# vtk DataFile Version 2.0
time_10.vtk
ASCII
DATASET UNSTRUCTURED_GRID
POINTS  1188 float
      0.000000       0.000000       0.000000
      0.083333       0.000000       0.000000
      0.083333       0.083333       0.000000
      0.000000       0.083333       0.000000
      0.083333       0.000000       0.000000
      0.166667       0.000000       0.000000
      0.166667       0.083333       0.000000
      0.083333       0.083333       0.000000
      0.000000       0.083333       0.000000
      0.083333       0.083333       0.000000
      0.083333       0.166667       0.000000
      0.000000       0.166667       0.000000
      0.083333       0.083333       0.000000
      0.166667       0.083333       0.000000
      0.166667       0.166667       0.000000
      0.083333       0.166667       0.000000
      0.166667       0.000000       0.000000
      0.250000       0.000000       0.000000
      0.250000       0.083333       0.000000
      0.166667       0.083333       0.000000
      0.250000       0.000000       0.000000
      0.333333       0.000000       0.000000
      0.333333       0.083333       0.000000
      0.250000       0.083333       0.000000
      0.166667       0.083333       0.000000
      0.250000       0.083333       0.000000
      0.250000       0.166667       0.000000
      0.166667       0.166667       0.000000
      0.250000       0.083333       0.000000
      0.333333       0.083333       0.000000
      0.333333       0.166667       0.000000
      0.250000       0.166667       0.000000
      0.333333       0.000000       0.000000
      0.416667      -0.000000       0.000000
      0.416667       0.083333       0.000000
      0.333333       0.083333       0.000000
      0.416667      -0.000000       0.000000
      0.500000       0.000000       0.000000
      0.500000       0.083333       0.000000
      0.416667       0.083333       0.000000
      0.333333       0.083333       0.000000
      0.416667       0.083333       0.000000
      0.416667       0.166667       0.000000
      0.333333       0.166667       0.000000
      0.416667       0.083333       0.000000
      0.500000       0.083333       0.000000
      0.500000       0.166667       0.000000
      0.416667       0.166667       0.000000
      0.000000       0.166667       0.000000
      0.083333       0.166667       0.000000
      0.083333       0.250000       0.000000
      0.000000       0.250000       0.000000
      0.083333       0.166667       0.000000
      0.166667       0.166667       0.000000
      0.166667       0.250000       0.000000
      0.083333       0.250000       0.000000
      0.000000       0.250000       0.000000
      0.083333       0.250000       0.000000
      0.083333       0.333333       0.000000
      0.000000       0.333333       0.000000
      0.083333       0.250000       0.000000
      0.166667       0.250000       0.000000
      0.166667       0.333333       0.000000
      0.083333       0.333333       0.000000
      0.166667       0.166667       0.000000
      0.250000       0.166667       0.000000
      0.250000       0.250000       0.000000
      0.166667       0.250000       0.000000
      0.250000       0.166667       0.000000
      0.333333       0.166667       0.000000
      0.333333       0.250000       0.000000
      0.250000       0.250000       0.000000
      0.166667       0.250000       0.000000
      0.250000       0.250000       0.000000
      0.250000       0.333333       0.000000
      0.166667       0.333333       0.000000
      0.250000       0.250000       0.000000
      0.333333       0.250000       0.000000
      0.333333       0.333333       0.000000
      0.250000       0.333333       0.000000
      0.333333       0.166667       0.000000
      0.416667       0.166667       0.000000
      0.416667       0.250000       0.000000
      0.333333       0.250000       0.000000
      0.416667       0.166667       0.000000
      0.500000       0.166667       0.000000
      0.500000       0.250000       0.000000
      0.416667       0.250000       0.000000
      0.333333       0.250000       0.000000
      0.416667       0.250000       0.000000
      0.416667       0.333333       0.000000
      0.333333       0.333333       0.000000
      0.416667       0.250000       0.000000
      0.500000       0.250000       0.000000
      0.500000       0.333333       0.000000
      0.416667       0.333333       0.000000
      0.000000       0.333333       0.000000
      0.083333       0.333333       0.000000
      0.083333       0.416667       0.000000
     -0.000000       0.416667       0.000000
      0.083333       0.333333       0.000000
      0.166667       0.333333       0.000000
      0.166667       0.416667       0.000000
      0.083333       0.416667       0.000000
     -0.000000       0.416667       0.000000
      0.083333       0.416667       0.000000
      0.083333       0.500000       0.000000
      0.000000       0.500000       0.000000
      0.083333       0.416667       0.000000
      0.166667       0.416667       0.000000
      0.166667       0.500000       0.000000
      0.083333       0.500000       0.000000
      0.166667       0.333333       0.000000
      0.250000       0.333333       0.000000
      0.250000       0.416667       0.000000
      0.166667       0.416667       0.000000
      0.250000       0.333333       0.000000
      0.333333       0.333333       0.000000
      0.333333       0.416667       0.000000
      0.250000       0.416667       0.000000
      0.166667       0.416667       0.000000
      0.250000       0.416667       0.000000
      0.250000       0.500000       0.000000
      0.166667       0.500000       0.000000
      0.250000       0.416667       0.000000
      0.333333       0.416667       0.000000
      0.333333       0.500000       0.000000
      0.250000       0.500000       0.000000
      0.333333       0.333333       0.000000
      0.375000       0.333333       0.000000
      0.375000       0.375000       0.000000
      0.333333       0.375000       0.000000
      0.375000       0.333333       0.000000
      0.416667       0.333333       0.000000
      0.416667       0.375000       0.000000
      0.375000       0.375000       0.000000
      0.333333       0.375000       0.000000
      0.375000       0.375000       0.000000
      0.375000       0.416667       0.000000
      0.333333       0.416667       0.000000
      0.375000       0.375000       0.000000
      0.416667       0.375000       0.000000
      0.416667       0.416667       0.000000
      0.375000       0.416667       0.000000
      0.416667       0.333333       0.000000
      0.458333       0.333333       0.000000
      0.458333       0.375000       0.000000
      0.416667       0.375000       0.000000
      0.458333       0.333333       0.000000
      0.500000       0.333333       0.000000
      0.500000       0.375000       0.000000
      0.458333       0.375000       0.000000
      0.416667       0.375000       0.000000
      0.458333       0.375000       0.000000
      0.458333       0.416667       0.000000
      0.416667       0.416667       0.000000
      0.458333       0.375000       0.000000
      0.500000       0.375000       0.000000
      0.500000       0.416667       0.000000
      0.458333       0.416667       0.000000
      0.333333       0.416667       0.000000
      0.375000       0.416667       0.000000
      0.375000       0.458333       0.000000
      0.333333       0.458333       0.000000
      0.375000       0.416667       0.000000
      0.416667       0.416667       0.000000
      0.416667       0.458333       0.000000
      0.375000       0.458333       0.000000
      0.333333       0.458333       0.000000
      0.375000       0.458333       0.000000
      0.375000       0.500000       0.000000
      0.333333       0.500000       0.000000
      0.375000       0.458333       0.000000
      0.416667       0.458333       0.000000
      0.416667       0.500000       0.000000
      0.375000       0.500000       0.000000
      0.416667       0.416667       0.000000
      0.437500       0.416667       0.000000
      0.437500       0.437500       0.000000
      0.416667       0.437500       0.000000
      0.437500       0.416667       0.000000
      0.458333       0.416667       0.000000
      0.458333       0.437500       0.000000
      0.437500       0.437500       0.000000
      0.416667       0.437500       0.000000
      0.437500       0.437500       0.000000
      0.437500       0.458333       0.000000
      0.416667       0.458333       0.000000
      0.437500       0.437500       0.000000
      0.458333       0.437500       0.000000
      0.458333       0.458333       0.000000
      0.437500       0.458333       0.000000
      0.458333       0.416667       0.000000
      0.479167       0.416667       0.000000
      0.479167       0.437500       0.000000
      0.458333       0.437500       0.000000
      0.479167       0.416667       0.000000
      0.500000       0.416667       0.000000
      0.500000       0.437500       0.000000
      0.479167       0.437500       0.000000
      0.458333       0.437500       0.000000
      0.479167       0.437500       0.000000
      0.479167       0.458333       0.000000
      0.458333       0.458333       0.000000
      0.416667       0.458333       0.000000
      0.437500       0.458333       0.000000
      0.437500       0.479167       0.000000
      0.416667       0.479167       0.000000
      0.437500       0.458333       0.000000
      0.458333       0.458333       0.000000
      0.458333       0.479167       0.000000
      0.437500       0.479167       0.000000
      0.416667       0.479167       0.000000
      0.437500       0.479167       0.000000
      0.437500       0.500000       0.000000
      0.416667       0.500000       0.000000
      0.437500       0.479167       0.000000
      0.458333       0.479167       0.000000
      0.458333       0.500000       0.000000
      0.437500       0.500000       0.000000
[...]
POINT_DATA  1188
VECTORS U float 
      0.000000       0.000000       0.000000
      0.000000       0.000000       0.000000
      0.000508       0.000017       0.000000
      0.000503       0.000000       0.000000
      0.000000       0.000000       0.000000
      0.000000       0.000000       0.000000
      0.000521       0.000036       0.000000
      0.000508       0.000017       0.000000
      0.000503       0.000000       0.000000
      0.000508       0.000017       0.000000
      0.000948       0.000026       0.000000
      0.000938       0.000000       0.000000
      0.000508       0.000017       0.000000
      0.000521       0.000036       0.000000
      0.000975       0.000058       0.000000
      0.000948       0.000026       0.000000
      0.000000       0.000000       0.000000
      0.000000       0.000000       0.000000
      0.000539       0.000059       0.000000
      0.000521       0.000036       0.000000
      0.000000       0.000000       0.000000
      0.000000       0.000000       0.000000
      0.000555       0.000085       0.000000
      0.000539       0.000059       0.000000
      0.000521       0.000036       0.000000
      0.000539       0.000059       0.000000
      0.001017       0.000101       0.000000
      0.000975       0.000058       0.000000
      0.000539       0.000059       0.000000
      0.000555       0.000085       0.000000
      0.001063       0.000155       0.000000
      0.001017       0.000101       0.000000
      0.000000       0.000000       0.000000
      0.000000       0.000000       0.000000
      0.000563       0.000110       0.000000
      0.000555       0.000085       0.000000
      0.000000       0.000000       0.000000
      0.000000       0.000000       0.000000
      0.000561       0.000124       0.000000
      0.000563       0.000110       0.000000
      0.000555       0.000085       0.000000
      0.000563       0.000110       0.000000
      0.001101       0.000214       0.000000
      0.001063       0.000155       0.000000
      0.000563       0.000110       0.000000
      0.000561       0.000124       0.000000
      0.001121       0.000249       0.000000
      0.001101       0.000214       0.000000
      0.000938       0.000000       0.000000
      0.000948       0.000026       0.000000
      0.001306       0.000027       0.000000
      0.001291       0.000000       0.000000
      0.000948       0.000026       0.000000
      0.000975       0.000058       0.000000
      0.001350       0.000063       0.000000
      0.001306       0.000027       0.000000
      0.001291       0.000000       0.000000
      0.001306       0.000027       0.000000
      0.001569       0.000019       0.000000
      0.001550       0.000000       0.000000
      0.001306       0.000027       0.000000
      0.001350       0.000063       0.000000
      0.001626       0.000048       0.000000
      0.001569       0.000019       0.000000
      0.000975       0.000058       0.000000
      0.001017       0.000101       0.000000
      0.001421       0.000116       0.000000
      0.001350       0.000063       0.000000
      0.001017       0.000101       0.000000
      0.001063       0.000155       0.000000
      0.001513       0.000194       0.000000
      0.001421       0.000116       0.000000
      0.001350       0.000063       0.000000
      0.001421       0.000116       0.000000
      0.001724       0.000096       0.000000
      0.001626       0.000048       0.000000
      0.001421       0.000116       0.000000
      0.001513       0.000194       0.000000
      0.001870       0.000180       0.000000
      0.001724       0.000096       0.000000
      0.001063       0.000155       0.000000
      0.001101       0.000214       0.000000
      0.001610       0.000295       0.000000
      0.001513       0.000194       0.000000
      0.001101       0.000214       0.000000
      0.001121       0.000249       0.000000
      0.001683       0.000368       0.000000
      0.001610       0.000295       0.000000
      0.001513       0.000194       0.000000
      0.001610       0.000295       0.000000
      0.002063       0.000322       0.000000
      0.001870       0.000180       0.000000
      0.001610       0.000295       0.000000
      0.001683       0.000368       0.000000
      0.002247       0.000479       0.000000
      0.002063       0.000322       0.000000
      0.001550       0.000000       0.000000
      0.001569       0.000019       0.000000
      0.001728       0.000005       0.000000
      0.001708       0.000000       0.000000
      0.001569       0.000019       0.000000
      0.001626       0.000048       0.000000
      0.001789       0.000018       0.000000
      0.001728       0.000005       0.000000
      0.001708       0.000000       0.000000
      0.001728       0.000005       0.000000
      0.001785      -0.000012       0.000000
      0.001767       0.000000       0.000000
      0.001728       0.000005       0.000000
      0.001789       0.000018       0.000000
      0.001841      -0.000016       0.000000
      0.001785      -0.000012       0.000000
      0.001626       0.000048       0.000000
      0.001724       0.000096       0.000000
      0.001898       0.000047       0.000000
      0.001789       0.000018       0.000000
      0.001724       0.000096       0.000000
      0.001870       0.000180       0.000000
      0.002066       0.000107       0.000000
      0.001898       0.000047       0.000000
      0.001789       0.000018       0.000000
      0.001898       0.000047       0.000000
      0.001938      -0.000007       0.000000
      0.001841      -0.000016       0.000000
      0.001898       0.000047       0.000000
      0.002066       0.000107       0.000000
      0.002078       0.000026       0.000000
      0.001938      -0.000007       0.000000
      0.001870       0.000180       0.000000
      0.001962       0.000242       0.000000
      0.002103       0.000209       0.000000
      0.001993       0.000149       0.000000
      0.001962       0.000242       0.000000
      0.002063       0.000322       0.000000
      0.002236       0.000296       0.000000
      0.002103       0.000209       0.000000
      0.001993       0.000149       0.000000
      0.002103       0.000209       0.000000
      0.002182       0.000157       0.000000
      0.002066       0.000107       0.000000
      0.002103       0.000209       0.000000
      0.002236       0.000296       0.000000
      0.002333       0.000234       0.000000
      0.002182       0.000157       0.000000
      0.002063       0.000322       0.000000
      0.002162       0.000412       0.000000
      0.002387       0.000415       0.000000
      0.002236       0.000296       0.000000
      0.002162       0.000412       0.000000
      0.002247       0.000479       0.000000
      0.002527       0.000529       0.000000
      0.002387       0.000415       0.000000
      0.002236       0.000296       0.000000
      0.002387       0.000415       0.000000
      0.002537       0.000369       0.000000
      0.002333       0.000234       0.000000
      0.002387       0.000415       0.000000
      0.002527       0.000529       0.000000
      0.002789       0.000569       0.000000
      0.002537       0.000369       0.000000
      0.002066       0.000107       0.000000
      0.002182       0.000157       0.000000
      0.002194       0.000100       0.000000
      0.002091       0.000064       0.000000
      0.002182       0.000157       0.000000
      0.002333       0.000234       0.000000
      0.002322       0.000157       0.000000
      0.002194       0.000100       0.000000
      0.002091       0.000064       0.000000
      0.002194       0.000100       0.000000
      0.002163       0.000057       0.000000
      0.002078       0.000026       0.000000
      0.002194       0.000100       0.000000
      0.002322       0.000157       0.000000
      0.002249       0.000107       0.000000
      0.002163       0.000057       0.000000
      0.002333       0.000234       0.000000
      0.002427       0.000292       0.000000
      0.002434       0.000246       0.000000
      0.002341       0.000195       0.000000
      0.002427       0.000292       0.000000
      0.002537       0.000369       0.000000
      0.002550       0.000320       0.000000
      0.002434       0.000246       0.000000
      0.002341       0.000195       0.000000
      0.002434       0.000246       0.000000
      0.002400       0.000200       0.000000
      0.002322       0.000157       0.000000
      0.002434       0.000246       0.000000
      0.002550       0.000320       0.000000
      0.002499       0.000262       0.000000
      0.002400       0.000200       0.000000
      0.002537       0.000369       0.000000
      0.002661       0.000469       0.000000
      0.002701       0.000430       0.000000
      0.002550       0.000320       0.000000
      0.002661       0.000469       0.000000
      0.002789       0.000569       0.000000
      0.002895       0.000575       0.000000
      0.002701       0.000430       0.000000
      0.002550       0.000320       0.000000
      0.002701       0.000430       0.000000
      0.002644       0.000361       0.000000
      0.002499       0.000262       0.000000
      0.002322       0.000157       0.000000
      0.002400       0.000200       0.000000
      0.002342       0.000165       0.000000
      0.002286       0.000127       0.000000
      0.002400       0.000200       0.000000
      0.002499       0.000262       0.000000
      0.002403       0.000219       0.000000
      0.002342       0.000165       0.000000
      0.002286       0.000127       0.000000
      0.002342       0.000165       0.000000
      0.002287       0.000145       0.000000
      0.002249       0.000107       0.000000
      0.002342       0.000165       0.000000
      0.002403       0.000219       0.000000
      0.002317       0.000200       0.000000
      0.002287       0.000145       0.000000
      0.002499       0.000262       0.000000
      0.002563       0.000305       0.000000
      0.002504       0.000276       0.000000
      0.002454       0.000237       0.000000
      0.002563       0.000305       0.000000
      0.002644       0.000361       0.000000
      0.002568       0.000326       0.000000
      0.002504       0.000276       0.000000
      0.002454       0.000237       0.000000
      0.002504       0.000276       0.000000
      0.002438       0.000255       0.000000
      0.002403       0.000219       0.000000
      0.002504       0.000276       0.000000
      0.002568       0.000326       0.000000
      0.002477       0.000301       0.000000
      0.002438       0.000255       0.000000
      0.002644       0.000361       0.000000
      0.002758       0.000438       0.000000
      0.002665       0.000392       0.000000
      0.002568       0.000326       0.000000
      0.002758       0.000438       0.000000
      0.002932       0.000545       0.000000
      0.002864       0.000496       0.000000
      0.002665       0.000392       0.000000
      0.002568       0.000326       0.000000
      0.002665       0.000392       0.000000
      0.002531       0.000360       0.000000
      0.002477       0.000301       0.000000
      0.002665       0.000392       0.000000
      0.002864       0.000496       0.000000
      0.002658       0.000449       0.000000
      0.002531       0.000360       0.000000
      0.002403       0.000219       0.000000
      0.002438       0.000255       0.000000
      0.002376       0.000243       0.000000
      0.002356       0.000207       0.000000
      0.002438       0.000255       0.000000
      0.002477       0.000301       0.000000
      0.002396       0.000290       0.000000
      0.002376       0.000243       0.000000
      0.002356       0.000207       0.000000
      0.002376       0.000243       0.000000
      0.002328       0.000238       0.000000
      0.002317       0.000200       0.000000
      0.002376       0.000243       0.000000
      0.002396       0.000290       0.000000
      0.002339       0.000287       0.000000
      0.002328       0.000238       0.000000
      0.002477       0.000301       0.000000
      0.002531       0.000360       0.000000
      0.002418       0.000346       0.000000
      0.002396       0.000290       0.000000
      0.002531       0.000360       0.000000
      0.002658       0.000449       0.000000
      0.002356       0.000394       0.000000
      0.002418       0.000346       0.000000
      0.002396       0.000290       0.000000
      0.002418       0.000346       0.000000
      0.002376       0.000353       0.000000
      0.002339       0.000287       0.000000
      0.002418       0.000346       0.000000
      0.002356       0.000394       0.000000
      0.006428       0.000493       0.000000
      0.002376       0.000353       0.000000
      0.002701       0.000430       0.000000
      0.002793       0.000501       0.000000
      0.002795       0.000476       0.000000
      0.002688       0.000398       0.000000
      0.002793       0.000501       0.000000
      0.002895       0.000575       0.000000
      0.002929       0.000568       0.000000
      0.002795       0.000476       0.000000
      0.002688       0.000398       0.000000
      0.002795       0.000476       0.000000
      0.002758       0.000438       0.000000
      0.002644       0.000361       0.000000
      0.002795       0.000476       0.000000
      0.002929       0.000568       0.000000
      0.002932       0.000545       0.000000
      0.002758       0.000438       0.000000
      0.000000       0.000000       0.000000
      0.000000       0.000000       0.000000
      0.000556       0.000116       0.000000
      0.000561       0.000124       0.000000
      0.000000       0.000000       0.000000
      0.000000       0.000000       0.000000
      0.000559       0.000091       0.000000
      0.000556       0.000116       0.000000
      0.000561       0.000124       0.000000
      0.000556       0.000116       0.000000
      0.001136       0.000231       0.000000
      0.001121       0.000249       0.000000
      0.000556       0.000116       0.000000
      0.000559       0.000091       0.000000
      0.001165       0.000170       0.000000
      0.001136       0.000231       0.000000
      0.000000       0.000000       0.000000
      0.000000       0.000000       0.000000
      0.000573       0.000060       0.000000
      0.000559       0.000091       0.000000
      0.000000       0.000000       0.000000
      0.000000       0.000000       0.000000
      0.000593       0.000034       0.000000
      0.000573       0.000060       0.000000
      0.000559       0.000091       0.000000
      0.000573       0.000060       0.000000
      0.001209       0.000102       0.000000
      0.001165       0.000170       0.000000
      0.000573       0.000060       0.000000
      0.000593       0.000034       0.000000
      0.001255       0.000052       0.000000
      0.001209       0.000102       0.000000
      0.000000       0.000000       0.000000
      0.000000       0.000000       0.000000
      0.000609       0.000015       0.000000
      0.000593       0.000034       0.000000
      0.000000       0.000000       0.000000
      0.000000       0.000000       0.000000
      0.000614       0.000000       0.000000
      0.000609       0.000015       0.000000
      0.000593       0.000034       0.000000
      0.000609       0.000015       0.000000
      0.001288       0.000021       0.000000
      0.001255       0.000052       0.000000
      0.000609       0.000015       0.000000
      0.000614       0.000000       0.000000
      0.001300       0.000000       0.000000
      0.001288       0.000021       0.000000
      0.001121       0.000249       0.000000
      0.001136       0.000231       0.000000
      0.001742       0.000333       0.000000
      0.001683       0.000368       0.000000
      0.001136       0.000231       0.000000
      0.001165       0.000170       0.000000
      0.001826       0.000219       0.000000
      0.001742       0.000333       0.000000
      0.001683       0.000368       0.000000
      0.001742       0.000333       0.000000
      0.002401       0.000408       0.000000
      0.002247       0.000479       0.000000
      0.001742       0.000333       0.000000
      0.001826       0.000219       0.000000
      0.002595       0.000209       0.000000
      0.002401       0.000408       0.000000
      0.001165       0.000170       0.000000
      0.001209       0.000102       0.000000
      0.001924       0.000113       0.000000
      0.001826       0.000219       0.000000
      0.001209       0.000102       0.000000
      0.001255       0.000052       0.000000
      0.002006       0.000048       0.000000
      0.001924       0.000113       0.000000
      0.001826       0.000219       0.000000
      0.001924       0.000113       0.000000
      0.002764       0.000078       0.000000
      0.002595       0.000209       0.000000
      0.001924       0.000113       0.000000
      0.002006       0.000048       0.000000
      0.002875       0.000018       0.000000
      0.002764       0.000078       0.000000
      0.001255       0.000052       0.000000
      0.001288       0.000021       0.000000
      0.002058       0.000016       0.000000
      0.002006       0.000048       0.000000
      0.001288       0.000021       0.000000
      0.001300       0.000000       0.000000
      0.002075       0.000000       0.000000
      0.002058       0.000016       0.000000
      0.002006       0.000048       0.000000
      0.002058       0.000016       0.000000
      0.002936      -0.000000       0.000000
      0.002875       0.000018       0.000000
      0.002058       0.000016       0.000000
      0.002075       0.000000       0.000000
      0.002955       0.000000       0.000000
      0.002936      -0.000000       0.000000
      0.002595       0.000209       0.000000
      0.002764       0.000078       0.000000
      0.003800       0.000011       0.000000
      0.003633       0.000113       0.000000
      0.002764       0.000078       0.000000
      0.002875       0.000018       0.000000
      0.003884      -0.000020       0.000000
      0.003800       0.000011       0.000000
      0.003633       0.000113       0.000000
      0.003800       0.000011       0.000000
      0.005014      -0.000014       0.000000
      0.005065       0.000058       0.000000
      0.003800       0.000011       0.000000
      0.003884      -0.000020       0.000000
      0.004991      -0.000033       0.000000
      0.005014      -0.000014       0.000000
      0.002875       0.000018       0.000000
      0.002936      -0.000000       0.000000
      0.003924      -0.000017       0.000000
      0.003884      -0.000020       0.000000
      0.002936      -0.000000       0.000000
      0.002955       0.000000       0.000000
      0.003936       0.000000       0.000000
      0.003924      -0.000017       0.000000
      0.003884      -0.000020       0.000000
      0.003924      -0.000017       0.000000
      0.004980      -0.000023       0.000000
      0.004991      -0.000033       0.000000
      0.003924      -0.000017       0.000000
      0.003936       0.000000       0.000000
      0.004977       0.000000       0.000000
      0.004980      -0.000023       0.000000
      0.002247       0.000479       0.000000
      0.002320       0.000479       0.000000
      0.002647       0.000532       0.000000
      0.002527       0.000529       0.000000
      0.002320       0.000479       0.000000
      0.002401       0.000408       0.000000
      0.002784       0.000416       0.000000
      0.002647       0.000532       0.000000
      0.002527       0.000529       0.000000
      0.002647       0.000532       0.000000
      0.003035       0.000573       0.000000
      0.002789       0.000569       0.000000
      0.002647       0.000532       0.000000
      0.002784       0.000416       0.000000
      0.003288       0.000376       0.000000