# vtk DataFile Version 2.0
time_10.vtk
ASCII
DATASET UNSTRUCTURED_GRID
POINTS  1812 float
      0.000000       0.000000       0.000000
      0.083333       0.000000       0.000000
      0.083333       0.083333       0.000000
      0.000000       0.083333       0.000000
      0.083333       0.000000       0.000000
      0.166667       0.000000       0.000000
      0.166667       0.083333       0.000000
      0.083333       0.083333       0.000000
      0.000000       0.083333       0.000000
      0.083333       0.083333       0.000000
      0.083333       0.166667       0.000000
      0.000000       0.166667       0.000000
      0.083333       0.083333       0.000000
      0.166667       0.083333       0.000000
      0.166667       0.166667       0.000000
      0.083333       0.166667       0.000000
      0.166667       0.000000       0.000000
      0.250000       0.000000       0.000000
      0.250000       0.083333       0.000000
      0.166667       0.083333       0.000000
      0.250000       0.000000       0.000000
      0.333333       0.000000       0.000000
      0.333333       0.083333       0.000000
      0.250000       0.083333       0.000000
      0.166667       0.083333       0.000000
      0.250000       0.083333       0.000000
      0.250000       0.166667       0.000000
      0.166667       0.166667       0.000000
      0.250000       0.083333       0.000000
      0.333333       0.083333       0.000000
      0.333333       0.166667       0.000000
      0.250000       0.166667       0.000000
      0.333333       0.000000       0.000000
      0.416667      -0.000000       0.000000
      0.416667       0.083333       0.000000
      0.333333       0.083333       0.000000
      0.416667      -0.000000       0.000000
      0.500000       0.000000       0.000000
      0.500000       0.083333       0.000000
      0.416667       0.083333       0.000000
      0.333333       0.083333       0.000000
      0.416667       0.083333       0.000000
      0.416667       0.166667       0.000000
      0.333333       0.166667       0.000000
      0.416667       0.083333       0.000000
      0.500000       0.083333       0.000000
      0.500000       0.166667       0.000000
      0.416667       0.166667       0.000000
      0.000000       0.166667       0.000000
      0.083333       0.166667       0.000000
      0.083333       0.250000       0.000000
      0.000000       0.250000       0.000000
      0.083333       0.166667       0.000000
      0.166667       0.166667       0.000000
      0.166667       0.250000       0.000000
      0.083333       0.250000       0.000000
      0.000000       0.250000       0.000000
      0.083333       0.250000       0.000000
      0.083333       0.333333       0.000000
      0.000000       0.333333       0.000000
      0.083333       0.250000       0.000000
      0.166667       0.250000       0.000000
      0.166667       0.333333       0.000000
      0.083333       0.333333       0.000000
      0.166667       0.166667       0.000000
      0.250000       0.166667       0.000000
      0.250000       0.250000       0.000000
      0.166667       0.250000       0.000000
      0.250000       0.166667       0.000000
      0.333333       0.166667       0.000000
      0.333333       0.250000       0.000000
      0.250000       0.250000       0.000000
      0.166667       0.250000       0.000000
      0.250000       0.250000       0.000000
      0.250000       0.333333       0.000000
      0.166667       0.333333       0.000000
      0.250000       0.250000       0.000000
      0.333333       0.250000       0.000000
      0.333333       0.333333       0.000000
      0.250000       0.333333       0.000000
      0.333333       0.166667       0.000000
      0.416667       0.166667       0.000000
      0.416667       0.250000       0.000000
      0.333333       0.250000       0.000000
      0.333333       0.250000       0.000000
      0.416667       0.250000       0.000000
      0.416667       0.333333       0.000000
      0.333333       0.333333       0.000000
      0.000000       0.333333       0.000000
      0.083333       0.333333       0.000000
      0.083333       0.416667       0.000000
     -0.000000       0.416667       0.000000
      0.083333       0.333333       0.000000
      0.166667       0.333333       0.000000
      0.166667       0.416667       0.000000
      0.083333       0.416667       0.000000
     -0.000000       0.416667       0.000000
      0.083333       0.416667       0.000000
      0.083333       0.500000       0.000000
      0.000000       0.500000       0.000000
      0.083333       0.416667       0.000000
      0.166667       0.416667       0.000000
      0.166667       0.500000       0.000000
      0.083333       0.500000       0.000000
      0.166667       0.333333       0.000000
      0.250000       0.333333       0.000000
      0.250000       0.416667       0.000000
      0.166667       0.416667       0.000000
      0.250000       0.333333       0.000000
      0.333333       0.333333       0.000000
      0.333333       0.416667       0.000000
      0.250000       0.416667       0.000000
      0.166667       0.416667       0.000000
      0.250000       0.416667       0.000000
      0.250000       0.500000       0.000000
      0.166667       0.500000       0.000000
      0.250000       0.416667       0.000000
      0.333333       0.416667       0.000000
      0.333333       0.500000       0.000000
      0.250000       0.500000       0.000000
      0.333333       0.333333       0.000000
      0.375000       0.333333       0.000000
      0.375000       0.375000       0.000000
      0.333333       0.375000       0.000000
      0.375000       0.333333       0.000000
      0.416667       0.333333       0.000000
      0.416667       0.375000       0.000000
      0.375000       0.375000       0.000000
      0.333333       0.375000       0.000000
      0.375000       0.375000       0.000000
      0.375000       0.416667       0.000000
      0.333333       0.416667       0.000000
      0.375000       0.375000       0.000000
      0.416667       0.375000       0.000000
      0.416667       0.416667       0.000000
      0.375000       0.416667       0.000000
      0.416667       0.333333       0.000000
      0.458333       0.333333       0.000000
      0.458333       0.375000       0.000000
      0.416667       0.375000       0.000000
      0.416667       0.375000       0.000000
      0.458333       0.375000       0.000000
      0.458333       0.416667       0.000000
      0.416667       0.416667       0.000000
      0.333333       0.416667       0.000000
      0.375000       0.416667       0.000000
      0.375000       0.458333       0.000000
      0.333333       0.458333       0.000000
      0.375000       0.416667       0.000000
      0.416667       0.416667       0.000000
      0.416667       0.458333       0.000000
      0.375000       0.458333       0.000000
      0.333333       0.458333       0.000000
      0.375000       0.458333       0.000000
      0.375000       0.500000       0.000000
      0.333333       0.500000       0.000000
      0.375000       0.458333       0.000000
      0.416667       0.458333       0.000000
      0.416667       0.500000       0.000000
      0.375000       0.500000       0.000000
      0.416667       0.416667       0.000000
      0.437500       0.416667       0.000000
      0.437500       0.437500       0.000000
      0.416667       0.437500       0.000000
      0.437500       0.416667       0.000000
      0.458333       0.416667       0.000000
      0.458333       0.437500       0.000000
      0.437500       0.437500       0.000000
      0.416667       0.437500       0.000000
      0.437500       0.437500       0.000000
      0.437500       0.458333       0.000000
      0.416667       0.458333       0.000000
      0.437500       0.437500       0.000000
      0.458333       0.437500       0.000000
      0.458333       0.458333       0.000000
      0.437500       0.458333       0.000000
      0.458333       0.416667       0.000000
      0.479167       0.416667       0.000000
      0.479167       0.437500       0.000000
      0.458333       0.437500       0.000000
      0.458333       0.437500       0.000000
      0.479167       0.437500       0.000000
      0.479167       0.458333       0.000000
      0.458333       0.458333       0.000000
      0.416667       0.458333       0.000000
      0.437500       0.458333       0.000000
      0.437500       0.479167       0.000000
      0.416667       0.479167       0.000000
      0.437500       0.458333       0.000000
      0.458333       0.458333       0.000000
      0.458333       0.479167       0.000000
      0.437500       0.479167       0.000000
      0.416667       0.479167       0.000000
      0.437500       0.479167       0.000000
      0.437500       0.500000       0.000000
      0.416667       0.500000       0.000000
      0.437500       0.479167       0.000000
      0.458333       0.479167       0.000000
      0.458333       0.500000       0.000000
      0.437500       0.500000       0.000000
      0.458333       0.458333       0.000000
      0.468750       0.458333       0.000000
      0.468750       0.468750       0.000000
      0.458333       0.468750       0.000000
      0.468750       0.458333       0.000000
      0.479167       0.458333       0.000000
      0.479167       0.468750       0.000000
      0.468750       0.468750       0.000000
      0.458333       0.468750       0.000000
      0.468750       0.468750       0.000000
      0.468750       0.479167       0.000000
      0.458333       0.479167       0.000000
      0.468750       0.468750       0.000000
      0.479167       0.468750       0.000000
      0.479167       0.479167       0.000000
      0.468750       0.479167       0.000000
      0.479167       0.458333       0.000000
      0.489583       0.458333       0.000000
      0.489583       0.468750       0.000000
      0.479167       0.468750       0.000000
[...]
POINT_DATA  1812
VECTORS U float 
      0.000000       0.000000       0.000000
      0.000000       0.000000       0.000000
      0.000289       0.000000       0.000000
      0.000281       0.000000       0.000000
      0.000000       0.000000       0.000000
      0.000000       0.000000       0.000000
      0.000316       0.000003       0.000000
      0.000289       0.000000       0.000000
      0.000281       0.000000       0.000000
      0.000289       0.000000       0.000000
      0.000530      -0.000009       0.000000
      0.000517       0.000000       0.000000
      0.000289       0.000000       0.000000
      0.000316       0.000003       0.000000
      0.000570      -0.000014       0.000000
      0.000530      -0.000009       0.000000
      0.000000       0.000000       0.000000
      0.000000       0.000000       0.000000
      0.000361       0.000013       0.000000
      0.000316       0.000003       0.000000
      0.000000       0.000000       0.000000
      0.000000       0.000000       0.000000
      0.000424       0.000034       0.000000
      0.000361       0.000013       0.000000
      0.000316       0.000003       0.000000
      0.000361       0.000013       0.000000
      0.000640      -0.000009       0.000000
      0.000570      -0.000014       0.000000
      0.000361       0.000013       0.000000
      0.000424       0.000034       0.000000
      0.000742       0.000020       0.000000
      0.000640      -0.000009       0.000000
      0.000000       0.000000       0.000000
      0.000000       0.000000       0.000000
      0.000498       0.000078       0.000000
      0.000424       0.000034       0.000000
      0.000000       0.000000       0.000000
      0.000000       0.000000       0.000000
      0.000561       0.000147       0.000000
      0.000498       0.000078       0.000000
      0.000424       0.000034       0.000000
      0.000498       0.000078       0.000000
      0.000880       0.000095       0.000000
      0.000742       0.000020       0.000000
      0.000498       0.000078       0.000000
      0.000561       0.000147       0.000000
      0.001037       0.000244       0.000000
      0.000880       0.000095       0.000000
      0.000517       0.000000       0.000000
      0.000530      -0.000009       0.000000
      0.000708      -0.000023       0.000000
      0.000694       0.000000       0.000000
      0.000530      -0.000009       0.000000
      0.000570      -0.000014       0.000000
      0.000749      -0.000042       0.000000
      0.000708      -0.000023       0.000000
      0.000694       0.000000       0.000000
      0.000708      -0.000023       0.000000
      0.000826      -0.000037       0.000000
      0.000816       0.000000       0.000000
      0.000708      -0.000023       0.000000
      0.000749      -0.000042       0.000000
      0.000857      -0.000068       0.000000
      0.000826      -0.000037       0.000000
      0.000570      -0.000014       0.000000
      0.000640      -0.000009       0.000000
      0.000821      -0.000048       0.000000
      0.000749      -0.000042       0.000000
      0.000640      -0.000009       0.000000
      0.000742       0.000020       0.000000
      0.000931      -0.000029       0.000000
      0.000821      -0.000048       0.000000
      0.000749      -0.000042       0.000000
      0.000821      -0.000048       0.000000
      0.000911      -0.000087       0.000000
      0.000857      -0.000068       0.000000
      0.000821      -0.000048       0.000000
      0.000931      -0.000029       0.000000
      0.000989      -0.000081       0.000000
      0.000911      -0.000087       0.000000
      0.000742       0.000020       0.000000
      0.000880       0.000095       0.000000
      0.001094       0.000042       0.000000
      0.000931      -0.000029       0.000000
      0.000931      -0.000029       0.000000
      0.001094       0.000042       0.000000
      0.001096      -0.000030       0.000000
      0.000989      -0.000081       0.000000
      0.000816       0.000000       0.000000
      0.000826      -0.000037       0.000000
      0.000899      -0.000045       0.000000
      0.000894       0.000000       0.000000
      0.000826      -0.000037       0.000000
      0.000857      -0.000068       0.000000
      0.000915      -0.000085       0.000000
      0.000899      -0.000045       0.000000
      0.000894       0.000000       0.000000
      0.000899      -0.000045       0.000000
      0.000950      -0.000048       0.000000
      0.000949       0.000000       0.000000
      0.000899      -0.000045       0.000000
      0.000915      -0.000085       0.000000
      0.000951      -0.000090       0.000000
      0.000950      -0.000048       0.000000
      0.000857      -0.000068       0.000000
      0.000911      -0.000087       0.000000
      0.000940      -0.000111       0.000000
      0.000915      -0.000085       0.000000
      0.000911      -0.000087       0.000000
      0.000989      -0.000081       0.000000
      0.000971      -0.000107       0.000000
      0.000940      -0.000111       0.000000
      0.000915      -0.000085       0.000000
      0.000940      -0.000111       0.000000
      0.000949      -0.000116       0.000000
      0.000951      -0.000090       0.000000
      0.000940      -0.000111       0.000000
      0.000971      -0.000107       0.000000
      0.000937      -0.000110       0.000000
      0.000949      -0.000116       0.000000
      0.000989      -0.000081       0.000000
      0.001039      -0.000063       0.000000
      0.001017      -0.000080       0.000000
      0.000986      -0.000098       0.000000
      0.001039      -0.000063       0.000000
      0.001096      -0.000030       0.000000
      0.001050      -0.000047       0.000000
      0.001017      -0.000080       0.000000
      0.000986      -0.000098       0.000000
      0.001017      -0.000080       0.000000
      0.000988      -0.000088       0.000000
      0.000971      -0.000107       0.000000
      0.001017      -0.000080       0.000000
      0.001050      -0.000047       0.000000
      0.001002      -0.000052       0.000000
      0.000988      -0.000088       0.000000
      0.001096      -0.000030       0.000000
      0.001162       0.000024       0.000000
      0.001081       0.000007       0.000000
      0.001050      -0.000047       0.000000
      0.001050      -0.000047       0.000000
      0.001081       0.000007       0.000000
      0.001013       0.000004       0.000000
      0.001002      -0.000052       0.000000
      0.000971      -0.000107       0.000000
      0.000988      -0.000088       0.000000
      0.000957      -0.000090       0.000000
      0.000954      -0.000111       0.000000
      0.000988      -0.000088       0.000000
      0.001002      -0.000052       0.000000
      0.000960      -0.000052       0.000000
      0.000957      -0.000090       0.000000
      0.000954      -0.000111       0.000000
      0.000957      -0.000090       0.000000
      0.000928      -0.000088       0.000000
      0.000937      -0.000110       0.000000
      0.000957      -0.000090       0.000000
      0.000960      -0.000052       0.000000
      0.000918      -0.000050       0.000000
      0.000928      -0.000088       0.000000
      0.001002      -0.000052       0.000000
      0.001008      -0.000027       0.000000
      0.000983      -0.000026       0.000000
      0.000980      -0.000052       0.000000
      0.001008      -0.000027       0.000000
      0.001013       0.000004       0.000000
      0.000986       0.000004       0.000000
      0.000983      -0.000026       0.000000
      0.000980      -0.000052       0.000000
      0.000983      -0.000026       0.000000
      0.000961      -0.000026       0.000000
      0.000960      -0.000052       0.000000
      0.000983      -0.000026       0.000000
      0.000986       0.000004       0.000000
      0.000962       0.000003       0.000000
      0.000961      -0.000026       0.000000
      0.001013       0.000004       0.000000
      0.001017       0.000041       0.000000
      0.000989       0.000039       0.000000
      0.000986       0.000004       0.000000
      0.000986       0.000004       0.000000
      0.000989       0.000039       0.000000
      0.000964       0.000036       0.000000
      0.000962       0.000003       0.000000
      0.000960      -0.000052       0.000000
      0.000961      -0.000026       0.000000
      0.000939      -0.000026       0.000000
      0.000940      -0.000051       0.000000
      0.000961      -0.000026       0.000000
      0.000962       0.000003       0.000000
      0.000939       0.000003       0.000000
      0.000939      -0.000026       0.000000
      0.000940      -0.000051       0.000000
      0.000939      -0.000026       0.000000
      0.000915      -0.000025       0.000000
      0.000918      -0.000050       0.000000
      0.000939      -0.000026       0.000000
      0.000939       0.000003       0.000000
      0.000914       0.000003       0.000000
      0.000915      -0.000025       0.000000
      0.000962       0.000003       0.000000
      0.000963       0.000019       0.000000
      0.000951       0.000019       0.000000
      0.000951       0.000003       0.000000
      0.000963       0.000019       0.000000
      0.000964       0.000036       0.000000
      0.000953       0.000035       0.000000
      0.000951       0.000019       0.000000
      0.000951       0.000003       0.000000
      0.000951       0.000019       0.000000
      0.000940       0.000018       0.000000
      0.000939       0.000003       0.000000
      0.000951       0.000019       0.000000
      0.000953       0.000035       0.000000
      0.000941       0.000034       0.000000
      0.000940       0.000018       0.000000
      0.000964       0.000036       0.000000
      0.000967       0.000055       0.000000
      0.000956       0.000053       0.000000
      0.000953       0.000035       0.000000
      0.000967       0.000055       0.000000
      0.000972       0.000075       0.000000
      0.000961       0.000079       0.000000
      0.000956       0.000053       0.000000
      0.000953       0.000035       0.000000
      0.000956       0.000053       0.000000
      0.000945       0.000050       0.000000
      0.000941       0.000034       0.000000
      0.000956       0.000053       0.000000
      0.000961       0.000079       0.000000
      0.000940       0.000083       0.000000
      0.000945       0.000050       0.000000
      0.000939       0.000003       0.000000
      0.000940       0.000018       0.000000
      0.000928       0.000017       0.000000
      0.000927       0.000003       0.000000
      0.000940       0.000018       0.000000
      0.000941       0.000034       0.000000
      0.000930       0.000031       0.000000
      0.000928       0.000017       0.000000
      0.000927       0.000003       0.000000
      0.000928       0.000017       0.000000
      0.000916       0.000018       0.000000
      0.000914       0.000003       0.000000
      0.000928       0.000017       0.000000
      0.000930       0.000031       0.000000
      0.000922       0.000035       0.000000
      0.000916       0.000018       0.000000
      0.000941       0.000034       0.000000
      0.000945       0.000050       0.000000
      0.000933       0.000042       0.000000
      0.000930       0.000031       0.000000
      0.000945       0.000050       0.000000
      0.000940       0.000083       0.000000
      0.000646       0.000074       0.000000
      0.000933       0.000042       0.000000
      0.000930       0.000031       0.000000
      0.000933       0.000042       0.000000
      0.000977       0.000059       0.000000
      0.000922       0.000035       0.000000
      0.000933       0.000042       0.000000
      0.000646       0.000074       0.000000
      0.008630       0.000844       0.000000
      0.000977       0.000059       0.000000
      0.000989       0.000039       0.000000
      0.000991       0.000058       0.000000
      0.000978       0.000057       0.000000
      0.000976       0.000038       0.000000
      0.000991       0.000058       0.000000
      0.000994       0.000079       0.000000
      0.000982       0.000077       0.000000
      0.000978       0.000057       0.000000
      0.000976       0.000038       0.000000
      0.000978       0.000057       0.000000
      0.000967       0.000055       0.000000
      0.000964       0.000036       0.000000
      0.000978       0.000057       0.000000
      0.000982       0.000077       0.000000
      0.000972       0.000075       0.000000
      0.000967       0.000055       0.000000
      0.001081       0.000007       0.000000
      0.001095       0.000045       0.000000
      0.001052       0.000042       0.000000
      0.001045       0.000005       0.000000
      0.001095       0.000045       0.000000
      0.001108       0.000093       0.000000
      0.001059       0.000089       0.000000
      0.001052       0.000042       0.000000
      0.001045       0.000005       0.000000
      0.001052       0.000042       0.000000
      0.001017       0.000041       0.000000
      0.001013       0.000004       0.000000
      0.001017       0.000041       0.000000
      0.001020       0.000062       0.000000
      0.001004       0.000060       0.000000
      0.001002       0.000040       0.000000
      0.001020       0.000062       0.000000
      0.001022       0.000084       0.000000
      0.001007       0.000082       0.000000
      0.001004       0.000060       0.000000
      0.001002       0.000040       0.000000
      0.001004       0.000060       0.000000
      0.000991       0.000058       0.000000
      0.000989       0.000039       0.000000
      0.001004       0.000060       0.000000
      0.001007       0.000082       0.000000
      0.000994       0.000079       0.000000
      0.000991       0.000058       0.000000
      0.001052       0.000042       0.000000
      0.001056       0.000064       0.000000
      0.001037       0.000063       0.000000
      0.001034       0.000042       0.000000
      0.001056       0.000064       0.000000
      0.001059       0.000089       0.000000
      0.001039       0.000087       0.000000
      0.001037       0.000063       0.000000
      0.001034       0.000042       0.000000
      0.001037       0.000063       0.000000
      0.001020       0.000062       0.000000
      0.001017       0.000041       0.000000
      0.001037       0.000063       0.000000
      0.001039       0.000087       0.000000
      0.001022       0.000084       0.000000
      0.001020       0.000062       0.000000
      0.001094       0.000042       0.000000
      0.001205       0.000113       0.000000
      0.001218       0.000063       0.000000
      0.001118       0.000002       0.000000
      0.001205       0.000113       0.000000
      0.001347       0.000226       0.000000
      0.001351       0.000163       0.000000
      0.001218       0.000063       0.000000
      0.001118       0.000002       0.000000
      0.001218       0.000063       0.000000
      0.001162       0.000024       0.000000
      0.001096      -0.000030       0.000000
      0.001162       0.000024       0.000000
      0.001199       0.000061       0.000000
      0.001145       0.000050       0.000000
      0.001122       0.000013       0.000000
      0.001199       0.000061       0.000000
      0.001239       0.000110       0.000000
      0.001169       0.000098       0.000000
      0.001145       0.000050       0.000000
      0.001122       0.000013       0.000000
      0.001145       0.000050       0.000000
      0.001095       0.000045       0.000000
      0.001081       0.000007       0.000000
      0.001145       0.000050       0.000000
      0.001169       0.000098       0.000000
      0.001108       0.000093       0.000000
      0.001095       0.000045       0.000000
      0.001218       0.000063       0.000000
      0.001279       0.000107       0.000000
      0.001246       0.000081       0.000000
      0.001196       0.000041       0.000000
      0.001279       0.000107       0.000000
      0.001351       0.000163       0.000000
      0.001305       0.000132       0.000000
      0.001246       0.000081       0.000000
      0.001196       0.000041       0.000000
      0.001246       0.000081       0.000000
      0.001199       0.000061       0.000000
      0.001162       0.000024       0.000000
      0.001246       0.000081       0.000000
      0.001305       0.000132       0.000000
      0.001239       0.000110       0.000000
      0.001199       0.000061       0.000000
      0.000880       0.000095       0.000000
      0.000958       0.000159       0.000000
      0.001113       0.000149       0.000000
      0.001012       0.000076       0.000000
      0.000958       0.000159       0.000000
      0.001037       0.000244       0.000000
      0.001226       0.000254       0.000000
      0.001113       0.000149       0.000000
      0.001012       0.000076       0.000000
      0.001113       0.000149       0.000000
      0.001205       0.000113       0.000000
      0.001094       0.000042       0.000000
      0.001113       0.000149       0.000000
      0.001226       0.000254       0.000000
      0.001347       0.000226       0.000000
      0.001205       0.000113       0.000000
      0.000000       0.000000       0.000000
      0.000000       0.000000       0.000000
      0.000585       0.000209       0.000000
      0.000561       0.000147       0.000000
      0.000000       0.000000       0.000000
      0.000000       0.000000       0.000000
      0.000583       0.000203       0.000000
      0.000585       0.000209       0.000000
      0.000561       0.000147       0.000000
      0.000585       0.000209       0.000000
      0.001154       0.000417       0.000000
      0.001037       0.000244       0.000000
      0.000585       0.000209       0.000000
      0.000583       0.000203       0.000000
      0.001224       0.000393       0.000000
      0.001154       0.000417       0.000000
      0.000000       0.000000       0.000000
      0.000000       0.000000       0.000000
      0.000604       0.000137       0.000000
      0.000583       0.000203       0.000000
      0.000000       0.000000       0.000000
      0.000000       0.000000       0.000000
      0.000649       0.000071       0.000000
      0.000604       0.000137       0.000000
      0.000583       0.000203       0.000000
      0.000604       0.000137       0.000000
      0.001338       0.000226       0.000000
      0.001224       0.000393       0.000000
      0.000604       0.000137       0.000000
      0.000649       0.000071       0.000000
      0.001458       0.000100       0.000000
      0.001338       0.000226       0.000000
      0.000000       0.000000       0.000000
      0.000000       0.000000       0.000000
      0.000689       0.000028       0.000000
      0.000649       0.000071       0.000000
      0.000000       0.000000       0.000000
      0.000000       0.000000       0.000000
      0.000704       0.000000       0.000000
      0.000689       0.000028       0.000000
      0.000649       0.000071       0.000000
      0.000689       0.000028       0.000000
      0.001540       0.000034       0.000000
      0.001458       0.000100       0.000000
      0.000689       0.000028       0.000000
      0.000704       0.000000       0.000000
      0.001568       0.000000       0.000000
      0.001540       0.000034       0.000000
      0.001224       0.000393       0.000000
      0.001338       0.000226       0.000000
      0.002309       0.000220       0.000000
      0.002008       0.000512       0.000000
      0.001338       0.000226       0.000000
      0.001458       0.000100       0.000000
      0.002502       0.000075       0.000000
      0.002309       0.000220       0.000000
      0.002309       0.000220       0.000000
      0.002502       0.000075       0.000000
      0.003847       0.000036       0.000000