# vtk DataFile Version 2.0
time_10.vtk
ASCII
DATASET UNSTRUCTURED_GRID
POINTS  1152 float
      0.000000       0.000000       0.000000
      0.083333       0.000000       0.000000
      0.083333       0.083333       0.000000
      0.000000       0.083333       0.000000
      0.083333       0.000000       0.000000
      0.166667       0.000000       0.000000
      0.166667       0.083333       0.000000
      0.083333       0.083333       0.000000
      0.000000       0.083333       0.000000
      0.083333       0.083333       0.000000
      0.083333       0.166667       0.000000
      0.000000       0.166667       0.000000
      0.083333       0.083333       0.000000
      0.166667       0.083333       0.000000
      0.166667       0.166667       0.000000
      0.083333       0.166667       0.000000
      0.166667       0.000000       0.000000
      0.250000       0.000000       0.000000
      0.250000       0.083333       0.000000
      0.166667       0.083333       0.000000
      0.250000       0.000000       0.000000
      0.333333       0.000000       0.000000
      0.333333       0.083333       0.000000
      0.250000       0.083333       0.000000
      0.166667       0.083333       0.000000
      0.250000       0.083333       0.000000
      0.250000       0.166667       0.000000
      0.166667       0.166667       0.000000
      0.250000       0.083333       0.000000
      0.333333       0.083333       0.000000
      0.333333       0.166667       0.000000
      0.250000       0.166667       0.000000
      0.333333       0.000000       0.000000
      0.416667      -0.000000       0.000000
      0.416667       0.083333       0.000000
      0.333333       0.083333       0.000000
      0.416667      -0.000000       0.000000
      0.500000       0.000000       0.000000
      0.500000       0.083333       0.000000
      0.416667       0.083333       0.000000
      0.333333       0.083333       0.000000
      0.416667       0.083333       0.000000
      0.416667       0.166667       0.000000
      0.333333       0.166667       0.000000
      0.416667       0.083333       0.000000
      0.500000       0.083333       0.000000
      0.500000       0.166667       0.000000
      0.416667       0.166667       0.000000
      0.000000       0.166667       0.000000
      0.083333       0.166667       0.000000
      0.083333       0.250000       0.000000
      0.000000       0.250000       0.000000
      0.083333       0.166667       0.000000
      0.166667       0.166667       0.000000
      0.166667       0.250000       0.000000
      0.083333       0.250000       0.000000
      0.000000       0.250000       0.000000
      0.083333       0.250000       0.000000
      0.083333       0.333333       0.000000
      0.000000       0.333333       0.000000
      0.083333       0.250000       0.000000
      0.166667       0.250000       0.000000
      0.166667       0.333333       0.000000
      0.083333       0.333333       0.000000
      0.166667       0.166667       0.000000
      0.250000       0.166667       0.000000
      0.250000       0.250000       0.000000
      0.166667       0.250000       0.000000
      0.250000       0.166667       0.000000
      0.333333       0.166667       0.000000
      0.333333       0.250000       0.000000
      0.250000       0.250000       0.000000
      0.166667       0.250000       0.000000
      0.250000       0.250000       0.000000
      0.250000       0.333333       0.000000
      0.166667       0.333333       0.000000
      0.250000       0.250000       0.000000
      0.333333       0.250000       0.000000
      0.333333       0.333333       0.000000
      0.250000       0.333333       0.000000
      0.333333       0.166667       0.000000
      0.416667       0.166667       0.000000
      0.416667       0.250000       0.000000
      0.333333       0.250000       0.000000
      0.416667       0.166667       0.000000
      0.500000       0.166667       0.000000
      0.500000       0.250000       0.000000
      0.416667       0.250000       0.000000
      0.333333       0.250000       0.000000
      0.416667       0.250000       0.000000
      0.416667       0.333333       0.000000
      0.333333       0.333333       0.000000
      0.416667       0.250000       0.000000
      0.500000       0.250000       0.000000
      0.500000       0.333333       0.000000
      0.416667       0.333333       0.000000
      0.000000       0.333333       0.000000
      0.083333       0.333333       0.000000
      0.083333       0.416667       0.000000
     -0.000000       0.416667       0.000000
      0.083333       0.333333       0.000000
      0.166667       0.333333       0.000000
      0.166667       0.416667       0.000000
      0.083333       0.416667       0.000000
     -0.000000       0.416667       0.000000
      0.083333       0.416667       0.000000
      0.083333       0.500000       0.000000
      0.000000       0.500000       0.000000
      0.083333       0.416667       0.000000
      0.166667       0.416667       0.000000
      0.166667       0.500000       0.000000
      0.083333       0.500000       0.000000
      0.166667       0.333333       0.000000
      0.250000       0.333333       0.000000
      0.250000       0.416667       0.000000
      0.166667       0.416667       0.000000
      0.250000       0.333333       0.000000
      0.333333       0.333333       0.000000
      0.333333       0.416667       0.000000
      0.250000       0.416667       0.000000
      0.166667       0.416667       0.000000
      0.250000       0.416667       0.000000
      0.250000       0.500000       0.000000
      0.166667       0.500000       0.000000
      0.250000       0.416667       0.000000
      0.333333       0.416667       0.000000
      0.333333       0.500000       0.000000
      0.250000       0.500000       0.000000
      0.333333       0.333333       0.000000
      0.375000       0.333333       0.000000
      0.375000       0.375000       0.000000
      0.333333       0.375000       0.000000
      0.375000       0.333333       0.000000
      0.416667       0.333333       0.000000
      0.416667       0.375000       0.000000
      0.375000       0.375000       0.000000
      0.333333       0.375000       0.000000
      0.375000       0.375000       0.000000
      0.375000       0.416667       0.000000
      0.333333       0.416667       0.000000
      0.375000       0.375000       0.000000
      0.416667       0.375000       0.000000
      0.416667       0.416667       0.000000
      0.375000       0.416667       0.000000
      0.416667       0.333333       0.000000
      0.458333       0.333333       0.000000
      0.458333       0.375000       0.000000
      0.416667       0.375000       0.000000
      0.458333       0.333333       0.000000
      0.500000       0.333333       0.000000
      0.500000       0.375000       0.000000
      0.458333       0.375000       0.000000
      0.416667       0.375000       0.000000
      0.458333       0.375000       0.000000
      0.458333       0.416667       0.000000
      0.416667       0.416667       0.000000
      0.458333       0.375000       0.000000
      0.500000       0.375000       0.000000
      0.500000       0.416667       0.000000
      0.458333       0.416667       0.000000
      0.333333       0.416667       0.000000
      0.375000       0.416667       0.000000
      0.375000       0.458333       0.000000
      0.333333       0.458333       0.000000
      0.375000       0.416667       0.000000
      0.416667       0.416667       0.000000
      0.416667       0.458333       0.000000
      0.375000       0.458333       0.000000
      0.333333       0.458333       0.000000
      0.375000       0.458333       0.000000
      0.375000       0.500000       0.000000
      0.333333       0.500000       0.000000
      0.375000       0.458333       0.000000
      0.416667       0.458333       0.000000
      0.416667       0.500000       0.000000
      0.375000       0.500000       0.000000
      0.416667       0.416667       0.000000
      0.437500       0.416667       0.000000
      0.437500       0.437500       0.000000
      0.416667       0.437500       0.000000
      0.437500       0.416667       0.000000
      0.458333       0.416667       0.000000
      0.458333       0.437500       0.000000
      0.437500       0.437500       0.000000
      0.416667       0.437500       0.000000
      0.437500       0.437500       0.000000
      0.437500       0.458333       0.000000
      0.416667       0.458333       0.000000
      0.437500       0.437500       0.000000
      0.458333       0.437500       0.000000
      0.458333       0.458333       0.000000
      0.437500       0.458333       0.000000
      0.458333       0.416667       0.000000
      0.479167       0.416667       0.000000
      0.479167       0.437500       0.000000
      0.458333       0.437500       0.000000
      0.479167       0.416667       0.000000
      0.500000       0.416667       0.000000
      0.500000       0.437500       0.000000
      0.479167       0.437500       0.000000
      0.458333       0.437500       0.000000
      0.479167       0.437500       0.000000
      0.479167       0.458333       0.000000
      0.458333       0.458333       0.000000
      0.479167       0.437500       0.000000
      0.500000       0.437500       0.000000
      0.500000       0.458333       0.000000
      0.479167       0.458333       0.000000
      0.416667       0.458333       0.000000
      0.437500       0.458333       0.000000
      0.437500       0.479167       0.000000
      0.416667       0.479167       0.000000
      0.437500       0.458333       0.000000
      0.458333       0.458333       0.000000
      0.458333       0.479167       0.000000
      0.437500       0.479167       0.000000
      0.416667       0.479167       0.000000
      0.437500       0.479167       0.000000
      0.437500       0.500000       0.000000
      0.416667       0.500000       0.000000
[...]
POINT_DATA  1152
VECTORS U float 
      0.000000       0.000000       0.000000
      0.000000       0.000000       0.000000
      0.000516       0.000020       0.000000
      0.000514       0.000000       0.000000
      0.000000       0.000000       0.000000
      0.000000       0.000000       0.000000
      0.000522       0.000042       0.000000
      0.000516       0.000020       0.000000
      0.000514       0.000000       0.000000
      0.000516       0.000020       0.000000
      0.000968       0.000036       0.000000
      0.000962       0.000000       0.000000
      0.000516       0.000020       0.000000
      0.000522       0.000042       0.000000
      0.000986       0.000076       0.000000
      0.000968       0.000036       0.000000
      0.000000       0.000000       0.000000
      0.000000       0.000000       0.000000
      0.000529       0.000064       0.000000
      0.000522       0.000042       0.000000
      0.000000       0.000000       0.000000
      0.000000       0.000000       0.000000
      0.000532       0.000084       0.000000
      0.000529       0.000064       0.000000
      0.000522       0.000042       0.000000
      0.000529       0.000064       0.000000
      0.001010       0.000120       0.000000
      0.000986       0.000076       0.000000
      0.000529       0.000064       0.000000
      0.000532       0.000084       0.000000
      0.001033       0.000164       0.000000
      0.001010       0.000120       0.000000
      0.000000       0.000000       0.000000
      0.000000       0.000000       0.000000
      0.000530       0.000098       0.000000
      0.000532       0.000084       0.000000
      0.000000       0.000000       0.000000
      0.000000       0.000000       0.000000
      0.000525       0.000099       0.000000
      0.000530       0.000098       0.000000
      0.000532       0.000084       0.000000
      0.000530       0.000098       0.000000
      0.001049       0.000196       0.000000
      0.001033       0.000164       0.000000
      0.000530       0.000098       0.000000
      0.000525       0.000099       0.000000
      0.001059       0.000198       0.000000
      0.001049       0.000196       0.000000
      0.000962       0.000000       0.000000
      0.000968       0.000036       0.000000
      0.001345       0.000044       0.000000
      0.001332       0.000000       0.000000
      0.000968       0.000036       0.000000
      0.000986       0.000076       0.000000
      0.001380       0.000095       0.000000
      0.001345       0.000044       0.000000
      0.001332       0.000000       0.000000
      0.001345       0.000044       0.000000
      0.001628       0.000041       0.000000
      0.001609       0.000000       0.000000
      0.001345       0.000044       0.000000
      0.001380       0.000095       0.000000
      0.001684       0.000092       0.000000
      0.001628       0.000041       0.000000
      0.000986       0.000076       0.000000
      0.001010       0.000120       0.000000
      0.001433       0.000156       0.000000
      0.001380       0.000095       0.000000
      0.001010       0.000120       0.000000
      0.001033       0.000164       0.000000
      0.001496       0.000225       0.000000
      0.001433       0.000156       0.000000
      0.001380       0.000095       0.000000
      0.001433       0.000156       0.000000
      0.001776       0.000159       0.000000
      0.001684       0.000092       0.000000
      0.001433       0.000156       0.000000
      0.001496       0.000225       0.000000
      0.001902       0.000247       0.000000
      0.001776       0.000159       0.000000
      0.001033       0.000164       0.000000
      0.001049       0.000196       0.000000
      0.001555       0.000283       0.000000
      0.001496       0.000225       0.000000
      0.001049       0.000196       0.000000
      0.001059       0.000198       0.000000
      0.001601       0.000292       0.000000
      0.001555       0.000283       0.000000
      0.001496       0.000225       0.000000
      0.001555       0.000283       0.000000
      0.002041       0.000344       0.000000
      0.001902       0.000247       0.000000
      0.001555       0.000283       0.000000
      0.001601       0.000292       0.000000
      0.002160       0.000375       0.000000
      0.002041       0.000344       0.000000
      0.001609       0.000000       0.000000
      0.001628       0.000041       0.000000
      0.001799       0.000028       0.000000
      0.001776       0.000000       0.000000
      0.001628       0.000041       0.000000
      0.001684       0.000092       0.000000
      0.001871       0.000065       0.000000
      0.001799       0.000028       0.000000
      0.001776       0.000000       0.000000
      0.001799       0.000028       0.000000
      0.001850       0.000008       0.000000
      0.001827       0.000000       0.000000
      0.001799       0.000028       0.000000
      0.001871       0.000065       0.000000
      0.001922       0.000023       0.000000
      0.001850       0.000008       0.000000
      0.001684       0.000092       0.000000
      0.001776       0.000159       0.000000
      0.001998       0.000120       0.000000
      0.001871       0.000065       0.000000
      0.001776       0.000159       0.000000
      0.001902       0.000247       0.000000
      0.002191       0.000205       0.000000
      0.001998       0.000120       0.000000
      0.001871       0.000065       0.000000
      0.001998       0.000120       0.000000
      0.002053       0.000052       0.000000
      0.001922       0.000023       0.000000
      0.001998       0.000120       0.000000
      0.002191       0.000205       0.000000
      0.002265       0.000101       0.000000
      0.002053       0.000052       0.000000
      0.001902       0.000247       0.000000
      0.001972       0.000297       0.000000
      0.002164       0.000292       0.000000
      0.002067       0.000235       0.000000
      0.001972       0.000297       0.000000
      0.002041       0.000344       0.000000
      0.002267       0.000352       0.000000
      0.002164       0.000292       0.000000
      0.002067       0.000235       0.000000
      0.002164       0.000292       0.000000
      0.002317       0.000262       0.000000
      0.002191       0.000205       0.000000
      0.002164       0.000292       0.000000
      0.002267       0.000352       0.000000
      0.002464       0.000332       0.000000
      0.002317       0.000262       0.000000
      0.002041       0.000344       0.000000
      0.002104       0.000376       0.000000
      0.002367       0.000403       0.000000
      0.002267       0.000352       0.000000
      0.002104       0.000376       0.000000
      0.002160       0.000375       0.000000
      0.002455       0.000411       0.000000
      0.002367       0.000403       0.000000
      0.002267       0.000352       0.000000
      0.002367       0.000403       0.000000
      0.002624       0.000411       0.000000
      0.002464       0.000332       0.000000
      0.002367       0.000403       0.000000
      0.002455       0.000411       0.000000
      0.002771       0.000443       0.000000
      0.002624       0.000411       0.000000
      0.002191       0.000205       0.000000
      0.002317       0.000262       0.000000
      0.002408       0.000207       0.000000
      0.002261       0.000157       0.000000
      0.002317       0.000262       0.000000
      0.002464       0.000332       0.000000
      0.002594       0.000271       0.000000
      0.002408       0.000207       0.000000
      0.002261       0.000157       0.000000
      0.002408       0.000207       0.000000
      0.002415       0.000136       0.000000
      0.002265       0.000101       0.000000
      0.002408       0.000207       0.000000
      0.002594       0.000271       0.000000
      0.002610       0.000178       0.000000
      0.002415       0.000136       0.000000
      0.002464       0.000332       0.000000
      0.002544       0.000372       0.000000
      0.002638       0.000350       0.000000
      0.002540       0.000307       0.000000
      0.002544       0.000372       0.000000
      0.002624       0.000411       0.000000
      0.002742       0.000399       0.000000
      0.002638       0.000350       0.000000
      0.002540       0.000307       0.000000
      0.002638       0.000350       0.000000
      0.002707       0.000313       0.000000
      0.002594       0.000271       0.000000
      0.002638       0.000350       0.000000
      0.002742       0.000399       0.000000
      0.002840       0.000367       0.000000
      0.002707       0.000313       0.000000
      0.002624       0.000411       0.000000
      0.002700       0.000439       0.000000
      0.002847       0.000443       0.000000
      0.002742       0.000399       0.000000
      0.002700       0.000439       0.000000
      0.002771       0.000443       0.000000
      0.002944       0.000456       0.000000
      0.002847       0.000443       0.000000
      0.002742       0.000399       0.000000
      0.002847       0.000443       0.000000
      0.002991       0.000433       0.000000
      0.002840       0.000367       0.000000
      0.002847       0.000443       0.000000
      0.002944       0.000456       0.000000
      0.003142       0.000466       0.000000
      0.002991       0.000433       0.000000
      0.002594       0.000271       0.000000
      0.002707       0.000313       0.000000
      0.002741       0.000262       0.000000
      0.002618       0.000227       0.000000
      0.002707       0.000313       0.000000
      0.002840       0.000367       0.000000
      0.002896       0.000308       0.000000
      0.002741       0.000262       0.000000
      0.002618       0.000227       0.000000
      0.002741       0.000262       0.000000
      0.002735       0.000203       0.000000
      0.002610       0.000178       0.000000
      0.002741       0.000262       0.000000
      0.002896       0.000308       0.000000
      0.002894       0.000230       0.000000
      0.002735       0.000203       0.000000
      0.002840       0.000367       0.000000
      0.002914       0.000399       0.000000
      0.002961       0.000376       0.000000
      0.002875       0.000341       0.000000
      0.002914       0.000399       0.000000
      0.002991       0.000433       0.000000
      0.003058       0.000416       0.000000
      0.002961       0.000376       0.000000
      0.002875       0.000341       0.000000
      0.002961       0.000376       0.000000
      0.002994       0.000341       0.000000
      0.002896       0.000308       0.000000
      0.002961       0.000376       0.000000
      0.003058       0.000416       0.000000
      0.003113       0.000385       0.000000
      0.002994       0.000341       0.000000
      0.002991       0.000433       0.000000
      0.003067       0.000459       0.000000
      0.003159       0.000455       0.000000
      0.003058       0.000416       0.000000
      0.003067       0.000459       0.000000
      0.003142       0.000466       0.000000
      0.003259       0.000469       0.000000
      0.003159       0.000455       0.000000
      0.003058       0.000416       0.000000
      0.003159       0.000455       0.000000
      0.003256       0.000442       0.000000
      0.003113       0.000385       0.000000
      0.003159       0.000455       0.000000
      0.003259       0.000469       0.000000
      0.003407       0.000468       0.000000
      0.003256       0.000442       0.000000
      0.002896       0.000308       0.000000
      0.002994       0.000341       0.000000
      0.003006       0.000295       0.000000
      0.002902       0.000270       0.000000
      0.002994       0.000341       0.000000
      0.003113       0.000385       0.000000
      0.003145       0.000331       0.000000
      0.003006       0.000295       0.000000
      0.002902       0.000270       0.000000
      0.003006       0.000295       0.000000
      0.003000       0.000244       0.000000
      0.002894       0.000230       0.000000
      0.003006       0.000295       0.000000
      0.003145       0.000331       0.000000
      0.003144       0.000257       0.000000
      0.003000       0.000244       0.000000
      0.003113       0.000385       0.000000
      0.003256       0.000442       0.000000
      0.003357       0.000402       0.000000
      0.003145       0.000331       0.000000
      0.003256       0.000442       0.000000
      0.003407       0.000468       0.000000
      0.003644       0.000458       0.000000
      0.003357       0.000402       0.000000
      0.003145       0.000331       0.000000
      0.003357       0.000402       0.000000
      0.003400       0.000267       0.000000
      0.003144       0.000257       0.000000
      0.003357       0.000402       0.000000
      0.003644       0.000458       0.000000
      0.004543       0.000354       0.000000
      0.003400       0.000267       0.000000
      0.000000       0.000000       0.000000
      0.000000       0.000000       0.000000
      0.000524       0.000085       0.000000
      0.000525       0.000099       0.000000
      0.000000       0.000000       0.000000
      0.000000       0.000000       0.000000
      0.000531       0.000063       0.000000
      0.000524       0.000085       0.000000
      0.000525       0.000099       0.000000
      0.000524       0.000085       0.000000
      0.001074       0.000165       0.000000
      0.001059       0.000198       0.000000
      0.000524       0.000085       0.000000
      0.000531       0.000063       0.000000
      0.001103       0.000113       0.000000
      0.001074       0.000165       0.000000
      0.000000       0.000000       0.000000
      0.000000       0.000000       0.000000
      0.000546       0.000040       0.000000
      0.000531       0.000063       0.000000
      0.000000       0.000000       0.000000
      0.000000       0.000000       0.000000
      0.000563       0.000022       0.000000
      0.000546       0.000040       0.000000
      0.000531       0.000063       0.000000
      0.000546       0.000040       0.000000
      0.001141       0.000065       0.000000
      0.001103       0.000113       0.000000
      0.000546       0.000040       0.000000
      0.000563       0.000022       0.000000
      0.001178       0.000032       0.000000
      0.001141       0.000065       0.000000
      0.000000       0.000000       0.000000
      0.000000       0.000000       0.000000
      0.000576       0.000010       0.000000
      0.000563       0.000022       0.000000
      0.000000       0.000000       0.000000
      0.000000       0.000000       0.000000
      0.000581       0.000000       0.000000
      0.000576       0.000010       0.000000
      0.000563       0.000022       0.000000
      0.000576       0.000010       0.000000
      0.001203       0.000012       0.000000
      0.001178       0.000032       0.000000
      0.000576       0.000010       0.000000
      0.000581       0.000000       0.000000
      0.001212       0.000000       0.000000
      0.001203       0.000012       0.000000
      0.001059       0.000198       0.000000
      0.001074       0.000165       0.000000
      0.001652       0.000230       0.000000
      0.001601       0.000292       0.000000
      0.001074       0.000165       0.000000
      0.001103       0.000113       0.000000
      0.001722       0.000139       0.000000
      0.001652       0.000230       0.000000
      0.001601       0.000292       0.000000
      0.001652       0.000230       0.000000
      0.002281       0.000263       0.000000
      0.002160       0.000375       0.000000
      0.001652       0.000230       0.000000
      0.001722       0.000139       0.000000
      0.002421       0.000124       0.000000
      0.002281       0.000263       0.000000
      0.001103       0.000113       0.000000
      0.001141       0.000065       0.000000
      0.001796       0.000067       0.000000
      0.001722       0.000139       0.000000
      0.001141       0.000065       0.000000
      0.001178       0.000032       0.000000
      0.001856       0.000026       0.000000
      0.001796       0.000067       0.000000
      0.001722       0.000139       0.000000
      0.001796       0.000067       0.000000
      0.002537       0.000040       0.000000
      0.002421       0.000124       0.000000
      0.001796       0.000067       0.000000
      0.001856       0.000026       0.000000
      0.002614       0.000004       0.000000
      0.002537       0.000040       0.000000
      0.001178       0.000032       0.000000
      0.001203       0.000012       0.000000
      0.001893       0.000007       0.000000
      0.001856       0.000026       0.000000
      0.001203       0.000012       0.000000
      0.001212       0.000000       0.000000
      0.001905       0.000000       0.000000
      0.001893       0.000007       0.000000
      0.001856       0.000026       0.000000
      0.001893       0.000007       0.000000
      0.002657      -0.000004       0.000000
      0.002614       0.000004       0.000000
      0.001893       0.000007       0.000000
      0.001905       0.000000       0.000000
      0.002671       0.000000       0.000000
      0.002657      -0.000004       0.000000
      0.002421       0.000124       0.000000
      0.002537       0.000040       0.000000
      0.003402      -0.000009       0.000000
      0.003284       0.000055       0.000000
      0.002537       0.000040       0.000000
      0.002614       0.000004       0.000000
      0.003464      -0.000025       0.000000
      0.003402      -0.000009       0.000000
      0.003284       0.000055       0.000000
      0.003402      -0.000009       0.000000
      0.004385      -0.000035       0.000000
      0.004390       0.000001       0.000000
      0.003402      -0.000009       0.000000
      0.003464      -0.000025       0.000000
      0.004383      -0.000038       0.000000
      0.004385      -0.000035       0.000000
      0.002614       0.000004       0.000000
      0.002657      -0.000004       0.000000
      0.003495      -0.000017       0.000000
      0.003464      -0.000025       0.000000
      0.002657      -0.000004       0.000000
      0.002671       0.000000       0.000000
      0.003505       0.000000       0.000000
      0.003495      -0.000017       0.000000
      0.003464      -0.000025       0.000000
      0.003495      -0.000017       0.000000
      0.004382      -0.000023       0.000000
      0.004383      -0.000038       0.000000
      0.003495      -0.000017       0.000000
      0.003505       0.000000       0.000000
      0.004382       0.000000       0.000000
      0.004382      -0.000023       0.000000
      0.002160       0.000375       0.000000
      0.002217       0.000333       0.000000
      0.002541       0.000352       0.000000
      0.002455       0.000411       0.000000
      0.002217       0.000333       0.000000
      0.002281       0.000263       0.000000
      0.002638       0.000256       0.000000
      0.002541       0.000352       0.000000
      0.002455       0.000411       0.000000
      0.002541       0.000352       0.000000
      0.002913       0.000353       0.000000
      0.002771       0.000443       0.000000
      0.002541       0.000352       0.000000
      0.002638       0.000256       0.000000
      0.003062       0.000221       0.000000
      0.002913       0.000353       0.000000
      0.002281       0.000263       0.000000
      0.002351       0.000188       0.000000
      0.002736       0.000165       0.000000
      0.002638       0.000256       0.000000
      0.002351       0.000188       0.000000
      0.002421       0.000124       0.000000
      0.002824       0.000095       0.000000
      0.002736       0.000165       0.000000
      0.002638       0.000256       0.000000
      0.002736       0.000165       0.000000
      0.003189       0.000121       0.000000