# vtk DataFile Version 2.0
time_10.vtk
ASCII
DATASET UNSTRUCTURED_GRID
POINTS  2376 float
      0.000000       0.000000       0.000000
      0.083333       0.000000       0.000000
      0.083333       0.083333       0.000000
      0.000000       0.083333       0.000000
      0.083333       0.000000       0.000000
      0.166667       0.000000       0.000000
      0.166667       0.083333       0.000000
      0.083333       0.083333       0.000000
      0.000000       0.083333       0.000000
      0.083333       0.083333       0.000000
      0.083333       0.166667       0.000000
      0.000000       0.166667       0.000000
      0.083333       0.083333       0.000000
      0.166667       0.083333       0.000000
      0.166667       0.166667       0.000000
      0.083333       0.166667       0.000000
      0.166667       0.000000       0.000000
      0.250000       0.000000       0.000000
      0.250000       0.083333       0.000000
      0.166667       0.083333       0.000000
      0.250000       0.000000       0.000000
      0.333333       0.000000       0.000000
      0.333333       0.083333       0.000000
      0.250000       0.083333       0.000000
      0.166667       0.083333       0.000000
      0.250000       0.083333       0.000000
      0.250000       0.166667       0.000000
      0.166667       0.166667       0.000000
      0.250000       0.083333       0.000000
      0.333333       0.083333       0.000000
      0.333333       0.166667       0.000000
      0.250000       0.166667       0.000000
      0.333333       0.000000       0.000000
      0.416667      -0.000000       0.000000
      0.416667       0.083333       0.000000
      0.333333       0.083333       0.000000
      0.416667      -0.000000       0.000000
      0.500000       0.000000       0.000000
      0.500000       0.083333       0.000000
      0.416667       0.083333       0.000000
      0.333333       0.083333       0.000000
      0.416667       0.083333       0.000000
      0.416667       0.166667       0.000000
      0.333333       0.166667       0.000000
      0.416667       0.083333       0.000000
      0.500000       0.083333       0.000000
      0.500000       0.166667       0.000000
      0.416667       0.166667       0.000000
      0.000000       0.166667       0.000000
      0.083333       0.166667       0.000000
      0.083333       0.250000       0.000000
      0.000000       0.250000       0.000000
      0.083333       0.166667       0.000000
      0.166667       0.166667       0.000000
      0.166667       0.250000       0.000000
      0.083333       0.250000       0.000000
      0.000000       0.250000       0.000000
      0.083333       0.250000       0.000000
      0.083333       0.333333       0.000000
      0.000000       0.333333       0.000000
      0.083333       0.250000       0.000000
      0.166667       0.250000       0.000000
      0.166667       0.333333       0.000000
      0.083333       0.333333       0.000000
      0.166667       0.166667       0.000000
      0.250000       0.166667       0.000000
      0.250000       0.250000       0.000000
      0.166667       0.250000       0.000000
      0.250000       0.166667       0.000000
      0.333333       0.166667       0.000000
      0.333333       0.250000       0.000000
      0.250000       0.250000       0.000000
      0.166667       0.250000       0.000000
      0.250000       0.250000       0.000000
      0.250000       0.333333       0.000000
      0.166667       0.333333       0.000000
      0.250000       0.250000       0.000000
      0.333333       0.250000       0.000000
      0.333333       0.333333       0.000000
      0.250000       0.333333       0.000000
      0.333333       0.166667       0.000000
      0.416667       0.166667       0.000000
      0.416667       0.250000       0.000000
      0.333333       0.250000       0.000000
      0.333333       0.250000       0.000000
      0.416667       0.250000       0.000000
      0.416667       0.333333       0.000000
      0.333333       0.333333       0.000000
      0.000000       0.333333       0.000000
      0.083333       0.333333       0.000000
      0.083333       0.416667       0.000000
     -0.000000       0.416667       0.000000
      0.083333       0.333333       0.000000
      0.166667       0.333333       0.000000
      0.166667       0.416667       0.000000
      0.083333       0.416667       0.000000
     -0.000000       0.416667       0.000000
      0.083333       0.416667       0.000000
      0.083333       0.500000       0.000000
      0.000000       0.500000       0.000000
      0.083333       0.416667       0.000000
      0.166667       0.416667       0.000000
      0.166667       0.500000       0.000000
      0.083333       0.500000       0.000000
      0.166667       0.333333       0.000000
      0.250000       0.333333       0.000000
      0.250000       0.416667       0.000000
      0.166667       0.416667       0.000000
      0.250000       0.333333       0.000000
      0.333333       0.333333       0.000000
      0.333333       0.416667       0.000000
      0.250000       0.416667       0.000000
      0.166667       0.416667       0.000000
      0.250000       0.416667       0.000000
      0.250000       0.500000       0.000000
      0.166667       0.500000       0.000000
      0.250000       0.416667       0.000000
      0.333333       0.416667       0.000000
      0.333333       0.500000       0.000000
      0.250000       0.500000       0.000000
      0.333333       0.333333       0.000000
      0.375000       0.333333       0.000000
      0.375000       0.375000       0.000000
      0.333333       0.375000       0.000000
      0.375000       0.333333       0.000000
      0.416667       0.333333       0.000000
      0.416667       0.375000       0.000000
      0.375000       0.375000       0.000000
      0.333333       0.375000       0.000000
      0.375000       0.375000       0.000000
      0.375000       0.416667       0.000000
      0.333333       0.416667       0.000000
      0.375000       0.375000       0.000000
      0.416667       0.375000       0.000000
      0.416667       0.416667       0.000000
      0.375000       0.416667       0.000000
      0.416667       0.333333       0.000000
      0.458333       0.333333       0.000000
      0.458333       0.375000       0.000000
      0.416667       0.375000       0.000000
      0.416667       0.375000       0.000000
      0.458333       0.375000       0.000000
      0.458333       0.416667       0.000000
      0.416667       0.416667       0.000000
      0.333333       0.416667       0.000000
      0.375000       0.416667       0.000000
      0.375000       0.458333       0.000000
      0.333333       0.458333       0.000000
      0.375000       0.416667       0.000000
      0.416667       0.416667       0.000000
      0.416667       0.458333       0.000000
      0.375000       0.458333       0.000000
      0.333333       0.458333       0.000000
      0.375000       0.458333       0.000000
      0.375000       0.500000       0.000000
      0.333333       0.500000       0.000000
      0.375000       0.458333       0.000000
      0.416667       0.458333       0.000000
      0.416667       0.500000       0.000000
      0.375000       0.500000       0.000000
      0.416667       0.416667       0.000000
      0.437500       0.416667       0.000000
      0.437500       0.437500       0.000000
      0.416667       0.437500       0.000000
      0.437500       0.416667       0.000000
      0.458333       0.416667       0.000000
      0.458333       0.437500       0.000000
      0.437500       0.437500       0.000000
      0.416667       0.437500       0.000000
      0.437500       0.437500       0.000000
      0.437500       0.458333       0.000000
      0.416667       0.458333       0.000000
      0.437500       0.437500       0.000000
      0.458333       0.437500       0.000000
      0.458333       0.458333       0.000000
      0.437500       0.458333       0.000000
      0.458333       0.416667       0.000000
      0.479167       0.416667       0.000000
      0.479167       0.437500       0.000000
      0.458333       0.437500       0.000000
      0.458333       0.437500       0.000000
      0.479167       0.437500       0.000000
      0.479167       0.458333       0.000000
      0.458333       0.458333       0.000000
      0.416667       0.458333       0.000000
      0.437500       0.458333       0.000000
      0.437500       0.479167       0.000000
      0.416667       0.479167       0.000000
      0.437500       0.458333       0.000000
      0.458333       0.458333       0.000000
      0.458333       0.479167       0.000000
      0.437500       0.479167       0.000000
      0.416667       0.479167       0.000000
      0.437500       0.479167       0.000000
      0.437500       0.500000       0.000000
      0.416667       0.500000       0.000000
      0.437500       0.479167       0.000000
      0.458333       0.479167       0.000000
      0.458333       0.500000       0.000000
      0.437500       0.500000       0.000000
      0.458333       0.458333       0.000000
      0.468750       0.458333       0.000000
      0.468750       0.468750       0.000000
      0.458333       0.468750       0.000000
      0.468750       0.458333       0.000000
      0.479167       0.458333       0.000000
      0.479167       0.468750       0.000000
      0.468750       0.468750       0.000000
      0.458333       0.468750       0.000000
      0.468750       0.468750       0.000000
      0.468750       0.479167       0.000000
      0.458333       0.479167       0.000000
      0.468750       0.468750       0.000000
      0.479167       0.468750       0.000000
      0.479167       0.479167       0.000000
      0.468750       0.479167       0.000000
      0.479167       0.458333       0.000000
      0.489583       0.458333       0.000000
      0.489583       0.468750       0.000000
      0.479167       0.468750       0.000000
[...]
POINT_DATA  2376
VECTORS U float 
      0.000000       0.000000       0.000000
      0.000000       0.000000       0.000000
      0.000134      -0.000003       0.000000
      0.000129       0.000000       0.000000
      0.000000       0.000000       0.000000
      0.000000       0.000000       0.000000
      0.000148      -0.000005       0.000000
      0.000134      -0.000003       0.000000
      0.000129       0.000000       0.000000
      0.000134      -0.000003       0.000000
      0.000249      -0.000010       0.000000
      0.000242       0.000000       0.000000
      0.000134      -0.000003       0.000000
      0.000148      -0.000005       0.000000
      0.000269      -0.000021       0.000000
      0.000249      -0.000010       0.000000
      0.000000       0.000000       0.000000
      0.000000       0.000000       0.000000
      0.000175      -0.000007       0.000000
      0.000148      -0.000005       0.000000
      0.000000       0.000000       0.000000
      0.000000       0.000000       0.000000
      0.000219      -0.000006       0.000000
      0.000175      -0.000007       0.000000
      0.000148      -0.000005       0.000000
      0.000175      -0.000007       0.000000
      0.000307      -0.000031       0.000000
      0.000269      -0.000021       0.000000
      0.000175      -0.000007       0.000000
      0.000219      -0.000006       0.000000
      0.000366      -0.000039       0.000000
      0.000307      -0.000031       0.000000
      0.000000       0.000000       0.000000
      0.000000       0.000000       0.000000
      0.000289       0.000002       0.000000
      0.000219      -0.000006       0.000000
      0.000000       0.000000       0.000000
      0.000000       0.000000       0.000000
      0.000393       0.000032       0.000000
      0.000289       0.000002       0.000000
      0.000219      -0.000006       0.000000
      0.000289       0.000002       0.000000
      0.000455      -0.000040       0.000000
      0.000366      -0.000039       0.000000
      0.000289       0.000002       0.000000
      0.000393       0.000032       0.000000
      0.000589      -0.000013       0.000000
      0.000455      -0.000040       0.000000
      0.000242       0.000000       0.000000
      0.000249      -0.000010       0.000000
      0.000338      -0.000019       0.000000
      0.000331       0.000000       0.000000
      0.000249      -0.000010       0.000000
      0.000269      -0.000021       0.000000
      0.000357      -0.000038       0.000000
      0.000338      -0.000019       0.000000
      0.000331       0.000000       0.000000
      0.000338      -0.000019       0.000000
      0.000402      -0.000026       0.000000
      0.000397       0.000000       0.000000
      0.000338      -0.000019       0.000000
      0.000357      -0.000038       0.000000
      0.000416      -0.000052       0.000000
      0.000402      -0.000026       0.000000
      0.000269      -0.000021       0.000000
      0.000307      -0.000031       0.000000
      0.000391      -0.000057       0.000000
      0.000357      -0.000038       0.000000
      0.000307      -0.000031       0.000000
      0.000366      -0.000039       0.000000
      0.000440      -0.000074       0.000000
      0.000391      -0.000057       0.000000
      0.000357      -0.000038       0.000000
      0.000391      -0.000057       0.000000
      0.000438      -0.000076       0.000000
      0.000416      -0.000052       0.000000
      0.000391      -0.000057       0.000000
      0.000440      -0.000074       0.000000
      0.000468      -0.000096       0.000000
      0.000438      -0.000076       0.000000
      0.000366      -0.000039       0.000000
      0.000455      -0.000040       0.000000
      0.000506      -0.000083       0.000000
      0.000440      -0.000074       0.000000
      0.000440      -0.000074       0.000000
      0.000506      -0.000083       0.000000
      0.000499      -0.000102       0.000000
      0.000468      -0.000096       0.000000
      0.000397       0.000000       0.000000
      0.000402      -0.000026       0.000000
      0.000447      -0.000030       0.000000
      0.000444       0.000000       0.000000
      0.000402      -0.000026       0.000000
      0.000416      -0.000052       0.000000
      0.000454      -0.000060       0.000000
      0.000447      -0.000030       0.000000
      0.000444       0.000000       0.000000
      0.000447      -0.000030       0.000000
      0.000482      -0.000032       0.000000
      0.000480       0.000000       0.000000
      0.000447      -0.000030       0.000000
      0.000454      -0.000060       0.000000
      0.000485      -0.000063       0.000000
      0.000482      -0.000032       0.000000
      0.000416      -0.000052       0.000000
      0.000438      -0.000076       0.000000
      0.000465      -0.000086       0.000000
      0.000454      -0.000060       0.000000
      0.000438      -0.000076       0.000000
      0.000468      -0.000096       0.000000
      0.000478      -0.000104       0.000000
      0.000465      -0.000086       0.000000
      0.000454      -0.000060       0.000000
      0.000465      -0.000086       0.000000
      0.000487      -0.000089       0.000000
      0.000485      -0.000063       0.000000
      0.000465      -0.000086       0.000000
      0.000478      -0.000104       0.000000
      0.000486      -0.000106       0.000000
      0.000487      -0.000089       0.000000
      0.000468      -0.000096       0.000000
      0.000484      -0.000101       0.000000
      0.000484      -0.000105       0.000000
      0.000474      -0.000101       0.000000
      0.000484      -0.000101       0.000000
      0.000499      -0.000102       0.000000
      0.000493      -0.000104       0.000000
      0.000484      -0.000105       0.000000
      0.000474      -0.000101       0.000000
      0.000484      -0.000105       0.000000
      0.000484      -0.000107       0.000000
      0.000478      -0.000104       0.000000
      0.000484      -0.000105       0.000000
      0.000493      -0.000104       0.000000
      0.000489      -0.000104       0.000000
      0.000484      -0.000107       0.000000
      0.000499      -0.000102       0.000000
      0.000513      -0.000095       0.000000
      0.000500      -0.000096       0.000000
      0.000493      -0.000104       0.000000
      0.000493      -0.000104       0.000000
      0.000500      -0.000096       0.000000
      0.000493      -0.000095       0.000000
      0.000489      -0.000104       0.000000
      0.000478      -0.000104       0.000000
      0.000484      -0.000107       0.000000
      0.000484      -0.000108       0.000000
      0.000482      -0.000106       0.000000
      0.000484      -0.000107       0.000000
      0.000489      -0.000104       0.000000
      0.000486      -0.000105       0.000000
      0.000484      -0.000108       0.000000
      0.000482      -0.000106       0.000000
      0.000484      -0.000108       0.000000
      0.000484      -0.000108       0.000000
      0.000486      -0.000106       0.000000
      0.000484      -0.000108       0.000000
      0.000486      -0.000105       0.000000
      0.000483      -0.000105       0.000000
      0.000484      -0.000108       0.000000
      0.000489      -0.000104       0.000000
      0.000491      -0.000101       0.000000
      0.000489      -0.000101       0.000000
      0.000488      -0.000104       0.000000
      0.000491      -0.000101       0.000000
      0.000493      -0.000095       0.000000
      0.000491      -0.000096       0.000000
      0.000489      -0.000101       0.000000
      0.000488      -0.000104       0.000000
      0.000489      -0.000101       0.000000
      0.000488      -0.000101       0.000000
      0.000486      -0.000105       0.000000
      0.000489      -0.000101       0.000000
      0.000491      -0.000096       0.000000
      0.000489      -0.000096       0.000000
      0.000488      -0.000101       0.000000
      0.000493      -0.000095       0.000000
      0.000495      -0.000088       0.000000
      0.000493      -0.000089       0.000000
      0.000491      -0.000096       0.000000
      0.000491      -0.000096       0.000000
      0.000493      -0.000089       0.000000
      0.000492      -0.000090       0.000000
      0.000489      -0.000096       0.000000
      0.000486      -0.000105       0.000000
      0.000488      -0.000101       0.000000
      0.000486      -0.000101       0.000000
      0.000485      -0.000105       0.000000
      0.000488      -0.000101       0.000000
      0.000489      -0.000096       0.000000
      0.000488      -0.000097       0.000000
      0.000486      -0.000101       0.000000
      0.000485      -0.000105       0.000000
      0.000486      -0.000101       0.000000
      0.000484      -0.000102       0.000000
      0.000483      -0.000105       0.000000
      0.000486      -0.000101       0.000000
      0.000488      -0.000097       0.000000
      0.000485      -0.000098       0.000000
      0.000484      -0.000102       0.000000
      0.000489      -0.000096       0.000000
      0.000490      -0.000093       0.000000
      0.000489      -0.000094       0.000000
      0.000488      -0.000097       0.000000
      0.000490      -0.000093       0.000000
      0.000492      -0.000090       0.000000
      0.000491      -0.000091       0.000000
      0.000489      -0.000094       0.000000
      0.000488      -0.000097       0.000000
      0.000489      -0.000094       0.000000
      0.000489      -0.000095       0.000000
      0.000488      -0.000097       0.000000
      0.000489      -0.000094       0.000000
      0.000491      -0.000091       0.000000
      0.000490      -0.000092       0.000000
      0.000489      -0.000095       0.000000
      0.000492      -0.000090       0.000000
      0.000493      -0.000087       0.000000
      0.000493      -0.000088       0.000000
      0.000491      -0.000091       0.000000
      0.000493      -0.000087       0.000000
      0.000497      -0.000082       0.000000
      0.000499      -0.000076       0.000000
      0.000493      -0.000088       0.000000
      0.000491      -0.000091       0.000000
      0.000493      -0.000088       0.000000
      0.000494      -0.000089       0.000000
      0.000490      -0.000092       0.000000
      0.000493      -0.000088       0.000000
      0.000499      -0.000076       0.000000
      0.000497      -0.000068       0.000000
      0.000494      -0.000089       0.000000
      0.000488      -0.000097       0.000000
      0.000489      -0.000095       0.000000
      0.000488      -0.000095       0.000000
      0.000487      -0.000097       0.000000
      0.000489      -0.000095       0.000000
      0.000490      -0.000092       0.000000
      0.000490      -0.000094       0.000000
      0.000488      -0.000095       0.000000
      0.000487      -0.000097       0.000000
      0.000488      -0.000095       0.000000
      0.000488      -0.000095       0.000000
      0.000485      -0.000098       0.000000
      0.000488      -0.000095       0.000000
      0.000490      -0.000094       0.000000
      0.000495      -0.000090       0.000000
      0.000488      -0.000095       0.000000
      0.000490      -0.000092       0.000000
      0.000494      -0.000089       0.000000
      0.000493      -0.000096       0.000000
      0.000490      -0.000094       0.000000
      0.000494      -0.000089       0.000000
      0.000497      -0.000068       0.000000
      0.000326       0.000019       0.000000
      0.000493      -0.000096       0.000000
      0.000490      -0.000094       0.000000
      0.000493      -0.000096       0.000000
      0.000560      -0.000077       0.000000
      0.000495      -0.000090       0.000000
      0.000493      -0.000096       0.000000
      0.000326       0.000019       0.000000
      0.009587       0.000920       0.000000
      0.000560      -0.000077       0.000000
      0.000493      -0.000089       0.000000
      0.000494      -0.000085       0.000000
      0.000494      -0.000086       0.000000
      0.000492      -0.000090       0.000000
      0.000494      -0.000085       0.000000
      0.000496      -0.000081       0.000000
      0.000496      -0.000082       0.000000
      0.000494      -0.000086       0.000000
      0.000492      -0.000090       0.000000
      0.000494      -0.000086       0.000000
      0.000493      -0.000087       0.000000
      0.000492      -0.000090       0.000000
      0.000494      -0.000086       0.000000
      0.000496      -0.000082       0.000000
      0.000497      -0.000082       0.000000
      0.000493      -0.000087       0.000000
      0.000500      -0.000096       0.000000
      0.000503      -0.000088       0.000000
      0.000498      -0.000088       0.000000
      0.000496      -0.000095       0.000000
      0.000503      -0.000088       0.000000
      0.000506      -0.000078       0.000000
      0.000501      -0.000078       0.000000
      0.000498      -0.000088       0.000000
      0.000496      -0.000095       0.000000
      0.000498      -0.000088       0.000000
      0.000495      -0.000088       0.000000
      0.000493      -0.000095       0.000000
      0.000495      -0.000088       0.000000
      0.000496      -0.000084       0.000000
      0.000495      -0.000085       0.000000
      0.000494      -0.000089       0.000000
      0.000496      -0.000084       0.000000
      0.000497      -0.000079       0.000000
      0.000496      -0.000080       0.000000
      0.000495      -0.000085       0.000000
      0.000494      -0.000089       0.000000
      0.000495      -0.000085       0.000000
      0.000494      -0.000085       0.000000
      0.000493      -0.000089       0.000000
      0.000495      -0.000085       0.000000
      0.000496      -0.000080       0.000000
      0.000496      -0.000081       0.000000
      0.000494      -0.000085       0.000000
      0.000498      -0.000088       0.000000
      0.000499      -0.000084       0.000000
      0.000497      -0.000084       0.000000
      0.000496      -0.000088       0.000000
      0.000499      -0.000084       0.000000
      0.000501      -0.000078       0.000000
      0.000499      -0.000079       0.000000
      0.000497      -0.000084       0.000000
      0.000496      -0.000088       0.000000
      0.000497      -0.000084       0.000000
      0.000496      -0.000084       0.000000
      0.000495      -0.000088       0.000000
      0.000497      -0.000084       0.000000
      0.000499      -0.000079       0.000000
      0.000497      -0.000079       0.000000
      0.000496      -0.000084       0.000000
      0.000506      -0.000083       0.000000
      0.000544      -0.000080       0.000000
      0.000530      -0.000091       0.000000
      0.000505      -0.000095       0.000000
      0.000544      -0.000080       0.000000
      0.000587      -0.000066       0.000000
      0.000554      -0.000076       0.000000
      0.000530      -0.000091       0.000000
      0.000505      -0.000095       0.000000
      0.000530      -0.000091       0.000000
      0.000513      -0.000095       0.000000
      0.000499      -0.000102       0.000000
      0.000513      -0.000095       0.000000
      0.000519      -0.000088       0.000000
      0.000510      -0.000088       0.000000
      0.000506      -0.000095       0.000000
      0.000519      -0.000088       0.000000
      0.000525      -0.000078       0.000000
      0.000514      -0.000078       0.000000
      0.000510      -0.000088       0.000000
      0.000506      -0.000095       0.000000
      0.000510      -0.000088       0.000000
      0.000503      -0.000088       0.000000
      0.000500      -0.000096       0.000000
      0.000510      -0.000088       0.000000
      0.000514      -0.000078       0.000000
      0.000506      -0.000078       0.000000
      0.000503      -0.000088       0.000000
      0.000530      -0.000091       0.000000
      0.000542      -0.000085       0.000000
      0.000530      -0.000087       0.000000
      0.000521      -0.000094       0.000000
      0.000542      -0.000085       0.000000
      0.000554      -0.000076       0.000000
      0.000538      -0.000077       0.000000
      0.000530      -0.000087       0.000000
      0.000521      -0.000094       0.000000
      0.000530      -0.000087       0.000000
      0.000519      -0.000088       0.000000
      0.000513      -0.000095       0.000000
      0.000530      -0.000087       0.000000
      0.000538      -0.000077       0.000000
      0.000525      -0.000078       0.000000
      0.000519      -0.000088       0.000000
      0.000455      -0.000040       0.000000
      0.000515      -0.000033       0.000000
      0.000544      -0.000059       0.000000
      0.000492      -0.000064       0.000000
      0.000515      -0.000033       0.000000
      0.000589      -0.000013       0.000000
      0.000607      -0.000044       0.000000
      0.000544      -0.000059       0.000000
      0.000492      -0.000064       0.000000
      0.000544      -0.000059       0.000000
      0.000544      -0.000080       0.000000
      0.000506      -0.000083       0.000000
      0.000544      -0.000059       0.000000
      0.000607      -0.000044       0.000000
      0.000587      -0.000066       0.000000
      0.000544      -0.000080       0.000000
      0.000000       0.000000       0.000000
      0.000000       0.000000       0.000000
      0.000526       0.000119       0.000000
      0.000393       0.000032       0.000000
      0.000000       0.000000       0.000000
      0.000000       0.000000       0.000000
      0.000622       0.000268       0.000000
      0.000526       0.000119       0.000000
      0.000393       0.000032       0.000000
      0.000526       0.000119       0.000000
      0.000806       0.000108       0.000000
      0.000589      -0.000013       0.000000
      0.000000       0.000000       0.000000
      0.000000       0.000000       0.000000
      0.000649       0.000266       0.000000
      0.000622       0.000268       0.000000
      0.000000       0.000000       0.000000
      0.000000       0.000000       0.000000
      0.000720       0.000133       0.000000
      0.000649       0.000266       0.000000
      0.000649       0.000266       0.000000
      0.000720       0.000133       0.000000
      0.001767       0.000171       0.000000
      0.001500       0.000457       0.000000
      0.000000       0.000000       0.000000
      0.000000       0.000000       0.000000
      0.000798       0.000046       0.000000
      0.000720       0.000133       0.000000
      0.000000       0.000000       0.000000
      0.000000       0.000000       0.000000
      0.000829       0.000000       0.000000
      0.000798       0.000046       0.000000
      0.000720       0.000133       0.000000
      0.000798       0.000046       0.000000
      0.001909       0.000049       0.000000
      0.001767       0.000171       0.000000
      0.000798       0.000046       0.000000
      0.000829       0.000000       0.000000
      0.001952       0.000000       0.000000
      0.001909       0.000049       0.000000
      0.003297       0.000513       0.000000
      0.003358       0.000165       0.000000
      0.005184       0.000245       0.000000
      0.005349       0.000660       0.000000
      0.001767       0.000171       0.000000
      0.001909       0.000049       0.000000
      0.003404       0.000046       0.000000
      0.003358       0.000165       0.000000
      0.001909       0.000049       0.000000
      0.001952       0.000000       0.000000
      0.003419       0.000000       0.000000
      0.003404       0.000046       0.000000
      0.003358       0.000165       0.000000
      0.003404       0.000046       0.000000
      0.005096       0.000079       0.000000
      0.005184       0.000245       0.000000
      0.003404       0.000046       0.000000
      0.003419       0.000000       0.000000
      0.005070       0.000000       0.000000