# vtk DataFile Version 2.0
time_10.vtk
ASCII
DATASET UNSTRUCTURED_GRID
POINTS  3696 float
      0.000000       0.000000       0.000000
      0.083333       0.000000       0.000000
      0.083333       0.083333       0.000000
      0.000000       0.083333       0.000000
      0.083333       0.000000       0.000000
      0.166667       0.000000       0.000000
      0.166667       0.083333       0.000000
      0.083333       0.083333       0.000000
      0.000000       0.083333       0.000000
      0.083333       0.083333       0.000000
      0.083333       0.166667       0.000000
      0.000000       0.166667       0.000000
      0.083333       0.083333       0.000000
      0.166667       0.083333       0.000000
      0.166667       0.166667       0.000000
      0.083333       0.166667       0.000000
      0.166667       0.000000       0.000000
      0.250000       0.000000       0.000000
      0.250000       0.083333       0.000000
      0.166667       0.083333       0.000000
      0.250000       0.000000       0.000000
      0.333333       0.000000       0.000000
      0.333333       0.083333       0.000000
      0.250000       0.083333       0.000000
      0.166667       0.083333       0.000000
      0.250000       0.083333       0.000000
      0.250000       0.166667       0.000000
      0.166667       0.166667       0.000000
      0.250000       0.083333       0.000000
      0.333333       0.083333       0.000000
      0.333333       0.166667       0.000000
      0.250000       0.166667       0.000000
      0.333333       0.000000       0.000000
      0.416667      -0.000000       0.000000
      0.416667       0.083333       0.000000
      0.333333       0.083333       0.000000
      0.416667      -0.000000       0.000000
      0.500000       0.000000       0.000000
      0.500000       0.083333       0.000000
      0.416667       0.083333       0.000000
      0.333333       0.083333       0.000000
      0.416667       0.083333       0.000000
      0.416667       0.166667       0.000000
      0.333333       0.166667       0.000000
      0.416667       0.083333       0.000000
      0.500000       0.083333       0.000000
      0.500000       0.166667       0.000000
      0.416667       0.166667       0.000000
      0.000000       0.166667       0.000000
      0.083333       0.166667       0.000000
      0.083333       0.250000       0.000000
      0.000000       0.250000       0.000000
      0.083333       0.166667       0.000000
      0.166667       0.166667       0.000000
      0.166667       0.250000       0.000000
      0.083333       0.250000       0.000000
      0.000000       0.250000       0.000000
      0.083333       0.250000       0.000000
      0.083333       0.333333       0.000000
      0.000000       0.333333       0.000000
      0.083333       0.250000       0.000000
      0.166667       0.250000       0.000000
      0.166667       0.333333       0.000000
      0.083333       0.333333       0.000000
      0.166667       0.166667       0.000000
      0.250000       0.166667       0.000000
      0.250000       0.250000       0.000000
      0.166667       0.250000       0.000000
      0.250000       0.166667       0.000000
      0.333333       0.166667       0.000000
      0.333333       0.250000       0.000000
      0.250000       0.250000       0.000000
      0.166667       0.250000       0.000000
      0.250000       0.250000       0.000000
      0.250000       0.333333       0.000000
      0.166667       0.333333       0.000000
      0.250000       0.250000       0.000000
      0.333333       0.250000       0.000000
      0.333333       0.333333       0.000000
      0.250000       0.333333       0.000000
      0.333333       0.166667       0.000000
      0.416667       0.166667       0.000000
      0.416667       0.250000       0.000000
      0.333333       0.250000       0.000000
      0.333333       0.250000       0.000000
      0.416667       0.250000       0.000000
      0.416667       0.333333       0.000000
      0.333333       0.333333       0.000000
      0.000000       0.333333       0.000000
      0.083333       0.333333       0.000000
      0.083333       0.416667       0.000000
     -0.000000       0.416667       0.000000
      0.083333       0.333333       0.000000
      0.166667       0.333333       0.000000
      0.166667       0.416667       0.000000
      0.083333       0.416667       0.000000
     -0.000000       0.416667       0.000000
      0.083333       0.416667       0.000000
      0.083333       0.500000       0.000000
      0.000000       0.500000       0.000000
      0.083333       0.416667       0.000000
      0.166667       0.416667       0.000000
      0.166667       0.500000       0.000000
      0.083333       0.500000       0.000000
      0.166667       0.333333       0.000000
      0.250000       0.333333       0.000000
      0.250000       0.416667       0.000000
      0.166667       0.416667       0.000000
      0.250000       0.333333       0.000000
      0.333333       0.333333       0.000000
      0.333333       0.416667       0.000000
      0.250000       0.416667       0.000000
      0.166667       0.416667       0.000000
      0.250000       0.416667       0.000000
      0.250000       0.500000       0.000000
      0.166667       0.500000       0.000000
      0.250000       0.416667       0.000000
      0.333333       0.416667       0.000000
      0.333333       0.500000       0.000000
      0.250000       0.500000       0.000000
      0.333333       0.333333       0.000000
      0.375000       0.333333       0.000000
      0.375000       0.375000       0.000000
      0.333333       0.375000       0.000000
      0.375000       0.333333       0.000000
      0.416667       0.333333       0.000000
      0.416667       0.375000       0.000000
      0.375000       0.375000       0.000000
      0.333333       0.375000       0.000000
      0.375000       0.375000       0.000000
      0.375000       0.416667       0.000000
      0.333333       0.416667       0.000000
      0.375000       0.375000       0.000000
      0.416667       0.375000       0.000000
      0.416667       0.416667       0.000000
      0.375000       0.416667       0.000000
      0.416667       0.333333       0.000000
      0.458333       0.333333       0.000000
      0.458333       0.375000       0.000000
      0.416667       0.375000       0.000000
      0.416667       0.375000       0.000000
      0.458333       0.375000       0.000000
      0.458333       0.416667       0.000000
      0.416667       0.416667       0.000000
      0.333333       0.416667       0.000000
      0.375000       0.416667       0.000000
      0.375000       0.458333       0.000000
      0.333333       0.458333       0.000000
      0.375000       0.416667       0.000000
      0.416667       0.416667       0.000000
      0.416667       0.458333       0.000000
      0.375000       0.458333       0.000000
      0.333333       0.458333       0.000000
      0.375000       0.458333       0.000000
      0.375000       0.500000       0.000000
      0.333333       0.500000       0.000000
      0.375000       0.458333       0.000000
      0.416667       0.458333       0.000000
      0.416667       0.500000       0.000000
      0.375000       0.500000       0.000000
      0.416667       0.416667       0.000000
      0.437500       0.416667       0.000000
      0.437500       0.437500       0.000000
      0.416667       0.437500       0.000000
      0.437500       0.416667       0.000000
      0.458333       0.416667       0.000000
      0.458333       0.437500       0.000000
      0.437500       0.437500       0.000000
      0.416667       0.437500       0.000000
      0.437500       0.437500       0.000000
      0.437500       0.458333       0.000000
      0.416667       0.458333       0.000000
      0.437500       0.437500       0.000000
      0.458333       0.437500       0.000000
      0.458333       0.458333       0.000000
      0.437500       0.458333       0.000000
      0.458333       0.416667       0.000000
      0.479167       0.416667       0.000000
      0.479167       0.437500       0.000000
      0.458333       0.437500       0.000000
      0.458333       0.437500       0.000000
      0.479167       0.437500       0.000000
      0.479167       0.458333       0.000000
      0.458333       0.458333       0.000000
      0.416667       0.458333       0.000000
      0.437500       0.458333       0.000000
      0.437500       0.479167       0.000000
      0.416667       0.479167       0.000000
      0.437500       0.458333       0.000000
      0.458333       0.458333       0.000000
      0.458333       0.479167       0.000000
      0.437500       0.479167       0.000000
      0.416667       0.479167       0.000000
      0.437500       0.479167       0.000000
      0.437500       0.500000       0.000000
      0.416667       0.500000       0.000000
      0.437500       0.479167       0.000000
      0.458333       0.479167       0.000000
      0.458333       0.500000       0.000000
      0.437500       0.500000       0.000000
      0.458333       0.458333       0.000000
      0.468750       0.458333       0.000000
      0.468750       0.468750       0.000000
      0.458333       0.468750       0.000000
      0.468750       0.458333       0.000000
      0.479167       0.458333       0.000000
      0.479167       0.468750       0.000000
      0.468750       0.468750       0.000000
      0.458333       0.468750       0.000000
      0.468750       0.468750       0.000000
      0.468750       0.479167       0.000000
      0.458333       0.479167       0.000000
      0.468750       0.468750       0.000000
      0.479167       0.468750       0.000000
      0.479167       0.479167       0.000000
      0.468750       0.479167       0.000000
      0.479167       0.458333       0.000000
      0.489583       0.458333       0.000000
      0.489583       0.468750       0.000000
      0.479167       0.468750       0.000000
[...]
POINT_DATA  3696
VECTORS U float 
      0.000000       0.000000       0.000000
      0.000000       0.000000       0.000000
      0.000011       0.000000       0.000000
      0.000011       0.000000       0.000000
      0.000000       0.000000       0.000000
      0.000000       0.000000       0.000000
      0.000012       0.000000       0.000000
      0.000011       0.000000       0.000000
      0.000011       0.000000       0.000000
      0.000011       0.000000       0.000000
      0.000022       0.000000       0.000000
      0.000021       0.000000       0.000000
      0.000011       0.000000       0.000000
      0.000012       0.000000       0.000000
      0.000022       0.000001       0.000000
      0.000022       0.000000       0.000000
      0.000000       0.000000       0.000000
      0.000000       0.000000       0.000000
      0.000012       0.000001       0.000000
      0.000012       0.000000       0.000000
      0.000000       0.000000       0.000000
      0.000000       0.000000       0.000000
      0.000013       0.000001       0.000000
      0.000012       0.000001       0.000000
      0.000012       0.000000       0.000000
      0.000012       0.000001       0.000000
      0.000023       0.000001       0.000000
      0.000022       0.000001       0.000000
      0.000012       0.000001       0.000000
      0.000013       0.000001       0.000000
      0.000025       0.000001       0.000000
      0.000023       0.000001       0.000000
      0.000000       0.000000       0.000000
      0.000000       0.000000       0.000000
      0.000013       0.000001       0.000000
      0.000013       0.000001       0.000000
      0.000000       0.000000       0.000000
      0.000000       0.000000       0.000000
      0.000014       0.000001       0.000000
      0.000013       0.000001       0.000000
      0.000013       0.000001       0.000000
      0.000013       0.000001       0.000000
      0.000026       0.000001       0.000000
      0.000025       0.000001       0.000000
      0.000013       0.000001       0.000000
      0.000014       0.000001       0.000000
      0.000028       0.000001       0.000000
      0.000026       0.000001       0.000000
      0.000021       0.000000       0.000000
      0.000022       0.000000       0.000000
      0.000031       0.000000       0.000000
      0.000030       0.000000       0.000000
      0.000022       0.000000       0.000000
      0.000022       0.000001       0.000000
      0.000031       0.000001       0.000000
      0.000031       0.000000       0.000000
      0.000030       0.000000       0.000000
      0.000031       0.000000       0.000000
      0.000038       0.000000       0.000000
      0.000037       0.000000       0.000000
      0.000031       0.000000       0.000000
      0.000031       0.000001       0.000000
      0.000039       0.000000       0.000000
      0.000038       0.000000       0.000000
      0.000022       0.000001       0.000000
      0.000023       0.000001       0.000000
      0.000033       0.000001       0.000000
      0.000031       0.000001       0.000000
      0.000023       0.000001       0.000000
      0.000025       0.000001       0.000000
      0.000035       0.000001       0.000000
      0.000033       0.000001       0.000000
      0.000031       0.000001       0.000000
      0.000033       0.000001       0.000000
      0.000041       0.000000       0.000000
      0.000039       0.000000       0.000000
      0.000033       0.000001       0.000000
      0.000035       0.000001       0.000000
      0.000044       0.000000       0.000000
      0.000041       0.000000       0.000000
      0.000025       0.000001       0.000000
      0.000026       0.000001       0.000000
      0.000038       0.000001       0.000000
      0.000035       0.000001       0.000000
      0.000035       0.000001       0.000000
      0.000038       0.000001       0.000000
      0.000048      -0.000000       0.000000
      0.000044       0.000000       0.000000
      0.000037       0.000000       0.000000
      0.000038       0.000000       0.000000
      0.000042      -0.000000       0.000000
      0.000042       0.000000       0.000000
      0.000038       0.000000       0.000000
      0.000039       0.000000       0.000000
      0.000044      -0.000001       0.000000
      0.000042      -0.000000       0.000000
      0.000042       0.000000       0.000000
      0.000042      -0.000000       0.000000
      0.000044      -0.000001       0.000000
      0.000044       0.000000       0.000000
      0.000042      -0.000000       0.000000
      0.000044      -0.000001       0.000000
      0.000046      -0.000002       0.000000
      0.000044      -0.000001       0.000000
      0.000039       0.000000       0.000000
      0.000041       0.000000       0.000000
      0.000047      -0.000001       0.000000
      0.000044      -0.000001       0.000000
      0.000041       0.000000       0.000000
      0.000044       0.000000       0.000000
      0.000051      -0.000001       0.000000
      0.000047      -0.000001       0.000000
      0.000044      -0.000001       0.000000
      0.000047      -0.000001       0.000000
      0.000049      -0.000002       0.000000
      0.000046      -0.000002       0.000000
      0.000047      -0.000001       0.000000
      0.000051      -0.000001       0.000000
      0.000054      -0.000004       0.000000
      0.000049      -0.000002       0.000000
      0.000044       0.000000       0.000000
      0.000046      -0.000000       0.000000
      0.000050      -0.000001       0.000000
      0.000048      -0.000001       0.000000
      0.000046      -0.000000       0.000000
      0.000048      -0.000000       0.000000
      0.000052      -0.000001       0.000000
      0.000050      -0.000001       0.000000
      0.000048      -0.000001       0.000000
      0.000050      -0.000001       0.000000
      0.000053      -0.000002       0.000000
      0.000051      -0.000001       0.000000
      0.000050      -0.000001       0.000000
      0.000052      -0.000001       0.000000
      0.000056      -0.000002       0.000000
      0.000053      -0.000002       0.000000
      0.000048      -0.000000       0.000000
      0.000050      -0.000001       0.000000
      0.000055      -0.000002       0.000000
      0.000052      -0.000001       0.000000
      0.000052      -0.000001       0.000000
      0.000055      -0.000002       0.000000
      0.000059      -0.000003       0.000000
      0.000056      -0.000002       0.000000
      0.000051      -0.000001       0.000000
      0.000053      -0.000002       0.000000
      0.000055      -0.000003       0.000000
      0.000053      -0.000002       0.000000
      0.000053      -0.000002       0.000000
      0.000056      -0.000002       0.000000
      0.000058      -0.000004       0.000000
      0.000055      -0.000003       0.000000
      0.000053      -0.000002       0.000000
      0.000055      -0.000003       0.000000
      0.000057      -0.000004       0.000000
      0.000054      -0.000004       0.000000
      0.000055      -0.000003       0.000000
      0.000058      -0.000004       0.000000
      0.000060      -0.000005       0.000000
      0.000057      -0.000004       0.000000
      0.000056      -0.000002       0.000000
      0.000057      -0.000003       0.000000
      0.000059      -0.000003       0.000000
      0.000057      -0.000003       0.000000
      0.000057      -0.000003       0.000000
      0.000059      -0.000003       0.000000
      0.000060      -0.000004       0.000000
      0.000059      -0.000003       0.000000
      0.000057      -0.000003       0.000000
      0.000059      -0.000003       0.000000
      0.000060      -0.000004       0.000000
      0.000058      -0.000004       0.000000
      0.000059      -0.000003       0.000000
      0.000060      -0.000004       0.000000
      0.000062      -0.000005       0.000000
      0.000060      -0.000004       0.000000
      0.000059      -0.000003       0.000000
      0.000061      -0.000003       0.000000
      0.000062      -0.000004       0.000000
      0.000060      -0.000004       0.000000
      0.000060      -0.000004       0.000000
      0.000062      -0.000004       0.000000
      0.000064      -0.000005       0.000000
      0.000062      -0.000005       0.000000
      0.000058      -0.000004       0.000000
      0.000060      -0.000004       0.000000
      0.000061      -0.000005       0.000000
      0.000059      -0.000004       0.000000
      0.000060      -0.000004       0.000000
      0.000062      -0.000005       0.000000
      0.000063      -0.000005       0.000000
      0.000061      -0.000005       0.000000
      0.000059      -0.000004       0.000000
      0.000061      -0.000005       0.000000
      0.000062      -0.000006       0.000000
      0.000060      -0.000005       0.000000
      0.000061      -0.000005       0.000000
      0.000063      -0.000005       0.000000
      0.000065      -0.000006       0.000000
      0.000062      -0.000006       0.000000
      0.000062      -0.000005       0.000000
      0.000063      -0.000005       0.000000
      0.000064      -0.000005       0.000000
      0.000062      -0.000005       0.000000
      0.000063      -0.000005       0.000000
      0.000064      -0.000005       0.000000
      0.000065      -0.000006       0.000000
      0.000064      -0.000005       0.000000
      0.000062      -0.000005       0.000000
      0.000064      -0.000005       0.000000
      0.000064      -0.000006       0.000000
      0.000063      -0.000005       0.000000
      0.000064      -0.000005       0.000000
      0.000065      -0.000006       0.000000
      0.000066      -0.000007       0.000000
      0.000064      -0.000006       0.000000
      0.000064      -0.000005       0.000000
      0.000066      -0.000005       0.000000
      0.000067      -0.000006       0.000000
      0.000065      -0.000006       0.000000
      0.000066      -0.000005       0.000000
      0.000070      -0.000005       0.000000
      0.000079      -0.000000       0.000000
      0.000067      -0.000006       0.000000
      0.000065      -0.000006       0.000000
      0.000067      -0.000006       0.000000
      0.000068      -0.000007       0.000000
      0.000066      -0.000007       0.000000
      0.000067      -0.000006       0.000000
      0.000079      -0.000000       0.000000
      0.000182       0.000010       0.000000
      0.000068      -0.000007       0.000000
      0.000063      -0.000005       0.000000
      0.000064      -0.000006       0.000000
      0.000066      -0.000007       0.000000
      0.000064      -0.000006       0.000000
      0.000064      -0.000006       0.000000
      0.000066      -0.000007       0.000000
      0.000070      -0.000010       0.000000
      0.000066      -0.000007       0.000000
      0.000064      -0.000006       0.000000
      0.000066      -0.000007       0.000000
      0.000068      -0.000006       0.000000
      0.000065      -0.000006       0.000000
      0.000066      -0.000007       0.000000
      0.000070      -0.000010       0.000000
      0.000078      -0.000003       0.000000
      0.000068      -0.000006       0.000000
      0.000066      -0.000007       0.000000
      0.000068      -0.000007       0.000000
      0.000107      -0.000022       0.000000
      0.000070      -0.000010       0.000000
      0.000068      -0.000007       0.000000
      0.000182       0.000010       0.000000
      0.006016       0.000051       0.000000
      0.000107      -0.000022       0.000000
      0.000070      -0.000010       0.000000
      0.000107      -0.000022       0.000000
      0.000173       0.000003       0.000000
      0.000078      -0.000003       0.000000
      0.000107      -0.000022       0.000000
      0.006016       0.000051       0.000000
      0.012264       0.000044       0.000000
      0.000173       0.000003       0.000000
      0.000062      -0.000004       0.000000
      0.000064      -0.000004       0.000000
      0.000065      -0.000005       0.000000
      0.000063      -0.000005       0.000000
      0.000064      -0.000004       0.000000
      0.000065      -0.000004       0.000000
      0.000066      -0.000005       0.000000
      0.000065      -0.000005       0.000000
      0.000063      -0.000005       0.000000
      0.000065      -0.000005       0.000000
      0.000066      -0.000005       0.000000
      0.000064      -0.000005       0.000000
      0.000065      -0.000005       0.000000
      0.000066      -0.000005       0.000000
      0.000070      -0.000005       0.000000
      0.000066      -0.000005       0.000000
      0.000055      -0.000002       0.000000
      0.000057      -0.000002       0.000000
      0.000059      -0.000003       0.000000
      0.000057      -0.000002       0.000000
      0.000057      -0.000002       0.000000
      0.000058      -0.000003       0.000000
      0.000060      -0.000003       0.000000
      0.000059      -0.000003       0.000000
      0.000057      -0.000002       0.000000
      0.000059      -0.000003       0.000000
      0.000061      -0.000003       0.000000
      0.000059      -0.000003       0.000000
      0.000061      -0.000003       0.000000
      0.000062      -0.000004       0.000000
      0.000063      -0.000004       0.000000
      0.000062      -0.000004       0.000000
      0.000062      -0.000004       0.000000
      0.000063      -0.000004       0.000000
      0.000064      -0.000004       0.000000
      0.000063      -0.000004       0.000000
      0.000062      -0.000004       0.000000
      0.000063      -0.000004       0.000000
      0.000064      -0.000004       0.000000
      0.000062      -0.000004       0.000000
      0.000063      -0.000004       0.000000
      0.000064      -0.000004       0.000000
      0.000065      -0.000004       0.000000
      0.000064      -0.000004       0.000000
      0.000059      -0.000003       0.000000
      0.000060      -0.000003       0.000000
      0.000061      -0.000003       0.000000
      0.000060      -0.000003       0.000000
      0.000060      -0.000003       0.000000
      0.000060      -0.000003       0.000000
      0.000062      -0.000003       0.000000
      0.000061      -0.000003       0.000000
      0.000060      -0.000003       0.000000
      0.000061      -0.000003       0.000000
      0.000062      -0.000004       0.000000
      0.000061      -0.000003       0.000000
      0.000061      -0.000003       0.000000
      0.000062      -0.000003       0.000000
      0.000063      -0.000004       0.000000
      0.000062      -0.000004       0.000000
      0.000038       0.000001       0.000000
      0.000040       0.000000       0.000000
      0.000045      -0.000000       0.000000
      0.000043       0.000000       0.000000
      0.000040       0.000000       0.000000
      0.000042      -0.000000       0.000000
      0.000048      -0.000001       0.000000
      0.000045      -0.000000       0.000000
      0.000043       0.000000       0.000000
      0.000045      -0.000000       0.000000
      0.000050      -0.000001       0.000000
      0.000048      -0.000000       0.000000
      0.000050      -0.000001       0.000000
      0.000052      -0.000001       0.000000
      0.000054      -0.000002       0.000000
      0.000053      -0.000001       0.000000
      0.000052      -0.000001       0.000000
      0.000053      -0.000002       0.000000
      0.000056      -0.000002       0.000000
      0.000054      -0.000002       0.000000
      0.000053      -0.000001       0.000000
      0.000054      -0.000002       0.000000
      0.000057      -0.000002       0.000000
      0.000055      -0.000002       0.000000
      0.000054      -0.000002       0.000000
      0.000056      -0.000002       0.000000
      0.000058      -0.000003       0.000000
      0.000057      -0.000002       0.000000
      0.000045      -0.000000       0.000000
      0.000046      -0.000000       0.000000
      0.000049      -0.000001       0.000000
      0.000048      -0.000000       0.000000
      0.000046      -0.000000       0.000000
      0.000048      -0.000001       0.000000
      0.000050      -0.000001       0.000000
      0.000049      -0.000001       0.000000
      0.000048      -0.000000       0.000000
      0.000049      -0.000001       0.000000
      0.000052      -0.000001       0.000000
      0.000050      -0.000001       0.000000
      0.000049      -0.000001       0.000000
      0.000050      -0.000001       0.000000
      0.000053      -0.000002       0.000000
      0.000052      -0.000001       0.000000
      0.000026       0.000001       0.000000
      0.000027       0.000001       0.000000
      0.000034       0.000001       0.000000
      0.000032       0.000001       0.000000
      0.000027       0.000001       0.000000
      0.000028       0.000001       0.000000
      0.000035       0.000000       0.000000
      0.000034       0.000001       0.000000
      0.000032       0.000001       0.000000
      0.000034       0.000001       0.000000
      0.000040       0.000000       0.000000
      0.000038       0.000001       0.000000
      0.000034       0.000001       0.000000
      0.000035       0.000000       0.000000
      0.000042      -0.000000       0.000000
      0.000040       0.000000       0.000000
      0.000000       0.000000       0.000000
      0.000000       0.000000       0.000000
      0.000016       0.000000       0.000000
      0.000014       0.000001       0.000000
      0.000000       0.000000       0.000000
      0.000000       0.000000       0.000000
      0.000018      -0.000000       0.000000
      0.000016       0.000000       0.000000
      0.000014       0.000001       0.000000
      0.000016       0.000000       0.000000
      0.000031      -0.000000       0.000000
      0.000028       0.000001       0.000000
      0.011997       0.000030       0.000000
      0.011997       0.000000       0.000000
      0.012064       0.000000       0.000000
      0.012063       0.000026       0.000000
      0.012062       0.000049       0.000000
      0.012063       0.000026       0.000000
      0.012121       0.000021       0.000000
      0.012120       0.000041       0.000000
      0.012063       0.000026       0.000000
      0.012064       0.000000       0.000000
      0.012122       0.000000       0.000000
      0.012121       0.000021       0.000000
      0.012117       0.000057       0.000000
      0.012120       0.000041       0.000000
      0.012172       0.000033       0.000000
      0.012171       0.000047       0.000000
      0.012170       0.000059       0.000000
      0.012171       0.000047       0.000000
      0.012219       0.000039       0.000000
      0.012221       0.000049       0.000000
      0.012171       0.000047       0.000000
      0.012172       0.000033       0.000000
      0.012218       0.000028       0.000000
      0.012219       0.000039       0.000000
      0.012120       0.000041       0.000000
      0.012121       0.000021       0.000000
      0.012173       0.000017       0.000000
      0.012172       0.000033       0.000000
      0.012121       0.000021       0.000000
      0.012122       0.000000       0.000000
      0.012173       0.000000       0.000000
      0.012173       0.000017       0.000000
      0.012172       0.000033       0.000000
      0.012173       0.000017       0.000000
      0.012217       0.000014       0.000000
      0.012218       0.000028       0.000000
      0.012173       0.000017       0.000000
      0.012173       0.000000       0.000000
      0.012217       0.000000       0.000000
      0.012217       0.000014       0.000000
      0.012169       0.000064       0.000000
      0.012170       0.000059       0.000000
      0.012197       0.000053       0.000000
      0.012198       0.000057       0.000000
      0.012198       0.000061       0.000000
      0.012198       0.000057       0.000000
      0.012224       0.000052       0.000000