# vtk DataFile Version 2.0
time_10.vtk
ASCII
DATASET UNSTRUCTURED_GRID
POINTS  1152 float
      0.000000       0.000000       0.000000
      0.083333       0.000000       0.000000
      0.083333       0.083333       0.000000
      0.000000       0.083333       0.000000
      0.083333       0.000000       0.000000
      0.166667       0.000000       0.000000
      0.166667       0.083333       0.000000
      0.083333       0.083333       0.000000
      0.000000       0.083333       0.000000
      0.083333       0.083333       0.000000
      0.083333       0.166667       0.000000
      0.000000       0.166667       0.000000
      0.083333       0.083333       0.000000
      0.166667       0.083333       0.000000
      0.166667       0.166667       0.000000
      0.083333       0.166667       0.000000
      0.166667       0.000000       0.000000
      0.250000       0.000000       0.000000
      0.250000       0.083333       0.000000
      0.166667       0.083333       0.000000
      0.250000       0.000000       0.000000
      0.333333       0.000000       0.000000
      0.333333       0.083333       0.000000
      0.250000       0.083333       0.000000
      0.166667       0.083333       0.000000
      0.250000       0.083333       0.000000
      0.250000       0.166667       0.000000
      0.166667       0.166667       0.000000
      0.250000       0.083333       0.000000
      0.333333       0.083333       0.000000
      0.333333       0.166667       0.000000
      0.250000       0.166667       0.000000
      0.333333       0.000000       0.000000
      0.416667      -0.000000       0.000000
      0.416667       0.083333       0.000000
      0.333333       0.083333       0.000000
      0.416667      -0.000000       0.000000
      0.500000       0.000000       0.000000
      0.500000       0.083333       0.000000
      0.416667       0.083333       0.000000
      0.333333       0.083333       0.000000
      0.416667       0.083333       0.000000
      0.416667       0.166667       0.000000
      0.333333       0.166667       0.000000
      0.416667       0.083333       0.000000
      0.500000       0.083333       0.000000
      0.500000       0.166667       0.000000
      0.416667       0.166667       0.000000
      0.000000       0.166667       0.000000
      0.083333       0.166667       0.000000
      0.083333       0.250000       0.000000
      0.000000       0.250000       0.000000
      0.083333       0.166667       0.000000
      0.166667       0.166667       0.000000
      0.166667       0.250000       0.000000
      0.083333       0.250000       0.000000
      0.000000       0.250000       0.000000
      0.083333       0.250000       0.000000
      0.083333       0.333333       0.000000
      0.000000       0.333333       0.000000
      0.083333       0.250000       0.000000
      0.166667       0.250000       0.000000
      0.166667       0.333333       0.000000
      0.083333       0.333333       0.000000
      0.166667       0.166667       0.000000
      0.250000       0.166667       0.000000
      0.250000       0.250000       0.000000
      0.166667       0.250000       0.000000
      0.250000       0.166667       0.000000
      0.333333       0.166667       0.000000
      0.333333       0.250000       0.000000
      0.250000       0.250000       0.000000
      0.166667       0.250000       0.000000
      0.250000       0.250000       0.000000
      0.250000       0.333333       0.000000
      0.166667       0.333333       0.000000
      0.250000       0.250000       0.000000
      0.333333       0.250000       0.000000
      0.333333       0.333333       0.000000
      0.250000       0.333333       0.000000
      0.333333       0.166667       0.000000
      0.416667       0.166667       0.000000
      0.416667       0.250000       0.000000
      0.333333       0.250000       0.000000
      0.416667       0.166667       0.000000
      0.500000       0.166667       0.000000
      0.500000       0.250000       0.000000
      0.416667       0.250000       0.000000
      0.333333       0.250000       0.000000
      0.416667       0.250000       0.000000
      0.416667       0.333333       0.000000
      0.333333       0.333333       0.000000
      0.416667       0.250000       0.000000
      0.500000       0.250000       0.000000
      0.500000       0.333333       0.000000
      0.416667       0.333333       0.000000
      0.000000       0.333333       0.000000
      0.083333       0.333333       0.000000
      0.083333       0.416667       0.000000
     -0.000000       0.416667       0.000000
      0.083333       0.333333       0.000000
      0.166667       0.333333       0.000000
      0.166667       0.416667       0.000000
      0.083333       0.416667       0.000000
     -0.000000       0.416667       0.000000
      0.083333       0.416667       0.000000
      0.083333       0.500000       0.000000
      0.000000       0.500000       0.000000
      0.083333       0.416667       0.000000
      0.166667       0.416667       0.000000
      0.166667       0.500000       0.000000
      0.083333       0.500000       0.000000
      0.166667       0.333333       0.000000
      0.250000       0.333333       0.000000
      0.250000       0.416667       0.000000
      0.166667       0.416667       0.000000
      0.250000       0.333333       0.000000
      0.333333       0.333333       0.000000
      0.333333       0.416667       0.000000
      0.250000       0.416667       0.000000
      0.166667       0.416667       0.000000
      0.250000       0.416667       0.000000
      0.250000       0.500000       0.000000
      0.166667       0.500000       0.000000
      0.250000       0.416667       0.000000
      0.333333       0.416667       0.000000
      0.333333       0.500000       0.000000
      0.250000       0.500000       0.000000
      0.333333       0.333333       0.000000
      0.375000       0.333333       0.000000
      0.375000       0.375000       0.000000
      0.333333       0.375000       0.000000
      0.375000       0.333333       0.000000
      0.416667       0.333333       0.000000
      0.416667       0.375000       0.000000
      0.375000       0.375000       0.000000
      0.333333       0.375000       0.000000
      0.375000       0.375000       0.000000
      0.375000       0.416667       0.000000
      0.333333       0.416667       0.000000
      0.375000       0.375000       0.000000
      0.416667       0.375000       0.000000
      0.416667       0.416667       0.000000
      0.375000       0.416667       0.000000
      0.416667       0.333333       0.000000
      0.458333       0.333333       0.000000
      0.458333       0.375000       0.000000
      0.416667       0.375000       0.000000
      0.458333       0.333333       0.000000
      0.500000       0.333333       0.000000
      0.500000       0.375000       0.000000
      0.458333       0.375000       0.000000
      0.416667       0.375000       0.000000
      0.458333       0.375000       0.000000
      0.458333       0.416667       0.000000
      0.416667       0.416667       0.000000
      0.458333       0.375000       0.000000
      0.500000       0.375000       0.000000
      0.500000       0.416667       0.000000
      0.458333       0.416667       0.000000
      0.333333       0.416667       0.000000
      0.375000       0.416667       0.000000
      0.375000       0.458333       0.000000
      0.333333       0.458333       0.000000
      0.375000       0.416667       0.000000
      0.416667       0.416667       0.000000
      0.416667       0.458333       0.000000
      0.375000       0.458333       0.000000
      0.333333       0.458333       0.000000
      0.375000       0.458333       0.000000
      0.375000       0.500000       0.000000
      0.333333       0.500000       0.000000
      0.375000       0.458333       0.000000
      0.416667       0.458333       0.000000
      0.416667       0.500000       0.000000
      0.375000       0.500000       0.000000
      0.416667       0.416667       0.000000
      0.437500       0.416667       0.000000
      0.437500       0.437500       0.000000
      0.416667       0.437500       0.000000
      0.437500       0.416667       0.000000
      0.458333       0.416667       0.000000
      0.458333       0.437500       0.000000
      0.437500       0.437500       0.000000
      0.416667       0.437500       0.000000
      0.437500       0.437500       0.000000
      0.437500       0.458333       0.000000
      0.416667       0.458333       0.000000
      0.437500       0.437500       0.000000
      0.458333       0.437500       0.000000
      0.458333       0.458333       0.000000
      0.437500       0.458333       0.000000
      0.458333       0.416667       0.000000
      0.479167       0.416667       0.000000
      0.479167       0.437500       0.000000
      0.458333       0.437500       0.000000
      0.479167       0.416667       0.000000
      0.500000       0.416667       0.000000
      0.500000       0.437500       0.000000
      0.479167       0.437500       0.000000
      0.458333       0.437500       0.000000
      0.479167       0.437500       0.000000
      0.479167       0.458333       0.000000
      0.458333       0.458333       0.000000
      0.479167       0.437500       0.000000
      0.500000       0.437500       0.000000
      0.500000       0.458333       0.000000
      0.479167       0.458333       0.000000
      0.416667       0.458333       0.000000
      0.437500       0.458333       0.000000
      0.437500       0.479167       0.000000
      0.416667       0.479167       0.000000
      0.437500       0.458333       0.000000
      0.458333       0.458333       0.000000
      0.458333       0.479167       0.000000
      0.437500       0.479167       0.000000
      0.416667       0.479167       0.000000
      0.437500       0.479167       0.000000
      0.437500       0.500000       0.000000
      0.416667       0.500000       0.000000
[...]
POINT_DATA  1152
VECTORS U float 
      0.000000       0.000000       0.000000
      0.000000       0.000000       0.000000
      0.000511       0.000018       0.000000
      0.000507       0.000000       0.000000
      0.000000       0.000000       0.000000
      0.000000       0.000000       0.000000
      0.000521       0.000038       0.000000
      0.000511       0.000018       0.000000
      0.000507       0.000000       0.000000
      0.000511       0.000018       0.000000
      0.000956       0.000030       0.000000
      0.000948       0.000000       0.000000
      0.000511       0.000018       0.000000
      0.000521       0.000038       0.000000
      0.000979       0.000065       0.000000
      0.000956       0.000030       0.000000
      0.000000       0.000000       0.000000
      0.000000       0.000000       0.000000
      0.000535       0.000061       0.000000
      0.000521       0.000038       0.000000
      0.000000       0.000000       0.000000
      0.000000       0.000000       0.000000
      0.000546       0.000085       0.000000
      0.000535       0.000061       0.000000
      0.000521       0.000038       0.000000
      0.000535       0.000061       0.000000
      0.001014       0.000108       0.000000
      0.000979       0.000065       0.000000
      0.000535       0.000061       0.000000
      0.000546       0.000085       0.000000
      0.001050       0.000159       0.000000
      0.001014       0.000108       0.000000
      0.000000       0.000000       0.000000
      0.000000       0.000000       0.000000
      0.000550       0.000106       0.000000
      0.000546       0.000085       0.000000
      0.000000       0.000000       0.000000
      0.000000       0.000000       0.000000
      0.000546       0.000115       0.000000
      0.000550       0.000106       0.000000
      0.000546       0.000085       0.000000
      0.000550       0.000106       0.000000
      0.001079       0.000208       0.000000
      0.001050       0.000159       0.000000
      0.000550       0.000106       0.000000
      0.000546       0.000115       0.000000
      0.001095       0.000230       0.000000
      0.001079       0.000208       0.000000
      0.000948       0.000000       0.000000
      0.000956       0.000030       0.000000
      0.001321       0.000034       0.000000
      0.001307       0.000000       0.000000
      0.000956       0.000030       0.000000
      0.000979       0.000065       0.000000
      0.001361       0.000076       0.000000
      0.001321       0.000034       0.000000
      0.001307       0.000000       0.000000
      0.001321       0.000034       0.000000
      0.001592       0.000028       0.000000
      0.001573       0.000000       0.000000
      0.001321       0.000034       0.000000
      0.001361       0.000076       0.000000
      0.001648       0.000065       0.000000
      0.001592       0.000028       0.000000
      0.000979       0.000065       0.000000
      0.001014       0.000108       0.000000
      0.001425       0.000132       0.000000
      0.001361       0.000076       0.000000
      0.001014       0.000108       0.000000
      0.001050       0.000159       0.000000
      0.001506       0.000207       0.000000
      0.001425       0.000132       0.000000
      0.001361       0.000076       0.000000
      0.001425       0.000132       0.000000
      0.001745       0.000121       0.000000
      0.001648       0.000065       0.000000
      0.001425       0.000132       0.000000
      0.001506       0.000207       0.000000
      0.001882       0.000207       0.000000
      0.001745       0.000121       0.000000
      0.001050       0.000159       0.000000
      0.001079       0.000208       0.000000
      0.001587       0.000292       0.000000
      0.001506       0.000207       0.000000
      0.001079       0.000208       0.000000
      0.001095       0.000230       0.000000
      0.001648       0.000341       0.000000
      0.001587       0.000292       0.000000
      0.001506       0.000207       0.000000
      0.001587       0.000292       0.000000
      0.002054       0.000333       0.000000
      0.001882       0.000207       0.000000
      0.001587       0.000292       0.000000
      0.001648       0.000341       0.000000
      0.002210       0.000443       0.000000
      0.002054       0.000333       0.000000
      0.001573       0.000000       0.000000
      0.001592       0.000028       0.000000
      0.001756       0.000014       0.000000
      0.001735       0.000000       0.000000
      0.001592       0.000028       0.000000
      0.001648       0.000065       0.000000
      0.001822       0.000037       0.000000
      0.001756       0.000014       0.000000
      0.001735       0.000000       0.000000
      0.001756       0.000014       0.000000
      0.001810      -0.000004       0.000000
      0.001790       0.000000       0.000000
      0.001756       0.000014       0.000000
      0.001822       0.000037       0.000000
      0.001873      -0.000000       0.000000
      0.001810      -0.000004       0.000000
      0.001648       0.000065       0.000000
      0.001745       0.000121       0.000000
      0.001937       0.000076       0.000000
      0.001822       0.000037       0.000000
      0.001745       0.000121       0.000000
      0.001882       0.000207       0.000000
      0.002116       0.000145       0.000000
      0.001937       0.000076       0.000000
      0.001822       0.000037       0.000000
      0.001937       0.000076       0.000000
      0.001983       0.000017       0.000000
      0.001873      -0.000000       0.000000
      0.001937       0.000076       0.000000
      0.002116       0.000145       0.000000
      0.002153       0.000055       0.000000
      0.001983       0.000017       0.000000
      0.001882       0.000207       0.000000
      0.001966       0.000265       0.000000
      0.002128       0.000243       0.000000
      0.002022       0.000183       0.000000
      0.001966       0.000265       0.000000
      0.002054       0.000333       0.000000
      0.002250       0.000321       0.000000
      0.002128       0.000243       0.000000
      0.002022       0.000183       0.000000
      0.002128       0.000243       0.000000
      0.002236       0.000198       0.000000
      0.002116       0.000145       0.000000
      0.002128       0.000243       0.000000
      0.002250       0.000321       0.000000
      0.002387       0.000273       0.000000
      0.002236       0.000198       0.000000
      0.002054       0.000333       0.000000
      0.002138       0.000401       0.000000
      0.002379       0.000416       0.000000
      0.002250       0.000321       0.000000
      0.002138       0.000401       0.000000
      0.002210       0.000443       0.000000
      0.002495       0.000489       0.000000
      0.002379       0.000416       0.000000
      0.002250       0.000321       0.000000
      0.002379       0.000416       0.000000
      0.002578       0.000392       0.000000
      0.002387       0.000273       0.000000
      0.002379       0.000416       0.000000
      0.002495       0.000489       0.000000
      0.002781       0.000531       0.000000
      0.002578       0.000392       0.000000
      0.002116       0.000145       0.000000
      0.002236       0.000198       0.000000
      0.002278       0.000141       0.000000
      0.002158       0.000100       0.000000
      0.002236       0.000198       0.000000
      0.002387       0.000273       0.000000
      0.002429       0.000198       0.000000
      0.002278       0.000141       0.000000
      0.002158       0.000100       0.000000
      0.002278       0.000141       0.000000
      0.002263       0.000086       0.000000
      0.002153       0.000055       0.000000
      0.002278       0.000141       0.000000
      0.002429       0.000198       0.000000
      0.002389       0.000131       0.000000
      0.002263       0.000086       0.000000
      0.002387       0.000273       0.000000
      0.002478       0.000326       0.000000
      0.002519       0.000286       0.000000
      0.002422       0.000237       0.000000
      0.002478       0.000326       0.000000
      0.002578       0.000392       0.000000
      0.002636       0.000355       0.000000
      0.002519       0.000286       0.000000
      0.002422       0.000237       0.000000
      0.002519       0.000286       0.000000
      0.002524       0.000239       0.000000
      0.002429       0.000198       0.000000
      0.002519       0.000286       0.000000
      0.002636       0.000355       0.000000
      0.002643       0.000299       0.000000
      0.002524       0.000239       0.000000
      0.002578       0.000392       0.000000
      0.002682       0.000468       0.000000
      0.002774       0.000450       0.000000
      0.002636       0.000355       0.000000
      0.002682       0.000468       0.000000
      0.002781       0.000531       0.000000
      0.002920       0.000547       0.000000
      0.002774       0.000450       0.000000
      0.002636       0.000355       0.000000
      0.002774       0.000450       0.000000
      0.002809       0.000400       0.000000
      0.002643       0.000299       0.000000
      0.002774       0.000450       0.000000
      0.002920       0.000547       0.000000
      0.003048       0.000552       0.000000
      0.002809       0.000400       0.000000
      0.002429       0.000198       0.000000
      0.002524       0.000239       0.000000
      0.002494       0.000194       0.000000
      0.002414       0.000161       0.000000
      0.002524       0.000239       0.000000
      0.002643       0.000299       0.000000
      0.002589       0.000239       0.000000
      0.002494       0.000194       0.000000
      0.002414       0.000161       0.000000
      0.002494       0.000194       0.000000
      0.002456       0.000161       0.000000
      0.002389       0.000131       0.000000
      0.002494       0.000194       0.000000
      0.002589       0.000239       0.000000
      0.002523       0.000202       0.000000
      0.002456       0.000161       0.000000
      0.002643       0.000299       0.000000
      0.002718       0.000342       0.000000
      0.002694       0.000306       0.000000
      0.002622       0.000268       0.000000
      0.002718       0.000342       0.000000
      0.002809       0.000400       0.000000
      0.002787       0.000360       0.000000
      0.002694       0.000306       0.000000
      0.002622       0.000268       0.000000
      0.002694       0.000306       0.000000
      0.002649       0.000271       0.000000
      0.002589       0.000239       0.000000
      0.002694       0.000306       0.000000
      0.002787       0.000360       0.000000
      0.002728       0.000316       0.000000
      0.002649       0.000271       0.000000
      0.002809       0.000400       0.000000
      0.002920       0.000475       0.000000
      0.002916       0.000440       0.000000
      0.002787       0.000360       0.000000
      0.002920       0.000475       0.000000
      0.003048       0.000552       0.000000
      0.003100       0.000543       0.000000
      0.002916       0.000440       0.000000
      0.002787       0.000360       0.000000
      0.002916       0.000440       0.000000
      0.002855       0.000386       0.000000
      0.002728       0.000316       0.000000
      0.002916       0.000440       0.000000
      0.003100       0.000543       0.000000
      0.003125       0.000511       0.000000
      0.002855       0.000386       0.000000
      0.002589       0.000239       0.000000
      0.002649       0.000271       0.000000
      0.002596       0.000245       0.000000
      0.002553       0.000218       0.000000
      0.002649       0.000271       0.000000
      0.002728       0.000316       0.000000
      0.002648       0.000280       0.000000
      0.002596       0.000245       0.000000
      0.002553       0.000218       0.000000
      0.002596       0.000245       0.000000
      0.002556       0.000229       0.000000
      0.002523       0.000202       0.000000
      0.002596       0.000245       0.000000
      0.002648       0.000280       0.000000
      0.002591       0.000264       0.000000
      0.002556       0.000229       0.000000
      0.002728       0.000316       0.000000
      0.002855       0.000386       0.000000
      0.002729       0.000329       0.000000
      0.002648       0.000280       0.000000
      0.002855       0.000386       0.000000
      0.003125       0.000511       0.000000
      0.003049       0.000377       0.000000
      0.002729       0.000329       0.000000
      0.002648       0.000280       0.000000
      0.002729       0.000329       0.000000
      0.002649       0.000316       0.000000
      0.002591       0.000264       0.000000
      0.002729       0.000329       0.000000
      0.003049       0.000377       0.000000
      0.005975       0.000423       0.000000
      0.002649       0.000316       0.000000
      0.000000       0.000000       0.000000
      0.000000       0.000000       0.000000
      0.000542       0.000105       0.000000
      0.000546       0.000115       0.000000
      0.000000       0.000000       0.000000
      0.000000       0.000000       0.000000
      0.000546       0.000081       0.000000
      0.000542       0.000105       0.000000
      0.000546       0.000115       0.000000
      0.000542       0.000105       0.000000
      0.001109       0.000207       0.000000
      0.001095       0.000230       0.000000
      0.000542       0.000105       0.000000
      0.000546       0.000081       0.000000
      0.001136       0.000150       0.000000
      0.001109       0.000207       0.000000
      0.000000       0.000000       0.000000
      0.000000       0.000000       0.000000
      0.000560       0.000053       0.000000
      0.000546       0.000081       0.000000
      0.000000       0.000000       0.000000
      0.000000       0.000000       0.000000
      0.000578       0.000030       0.000000
      0.000560       0.000053       0.000000
      0.000546       0.000081       0.000000
      0.000560       0.000053       0.000000
      0.001178       0.000090       0.000000
      0.001136       0.000150       0.000000
      0.000560       0.000053       0.000000
      0.000578       0.000030       0.000000
      0.001219       0.000046       0.000000
      0.001178       0.000090       0.000000
      0.000000       0.000000       0.000000
      0.000000       0.000000       0.000000
      0.000593       0.000013       0.000000
      0.000578       0.000030       0.000000
      0.000000       0.000000       0.000000
      0.000000       0.000000       0.000000
      0.000598       0.000000       0.000000
      0.000593       0.000013       0.000000
      0.000578       0.000030       0.000000
      0.000593       0.000013       0.000000
      0.001248       0.000018       0.000000
      0.001219       0.000046       0.000000
      0.000593       0.000013       0.000000
      0.000598       0.000000       0.000000
      0.001259       0.000000       0.000000
      0.001248       0.000018       0.000000
      0.001095       0.000230       0.000000
      0.001109       0.000207       0.000000
      0.001702       0.000297       0.000000
      0.001648       0.000341       0.000000
      0.001109       0.000207       0.000000
      0.001136       0.000150       0.000000
      0.001778       0.000192       0.000000
      0.001702       0.000297       0.000000
      0.001648       0.000341       0.000000
      0.001702       0.000297       0.000000
      0.002345       0.000358       0.000000
      0.002210       0.000443       0.000000
      0.001702       0.000297       0.000000
      0.001778       0.000192       0.000000
      0.002514       0.000184       0.000000
      0.002345       0.000358       0.000000
      0.001136       0.000150       0.000000
      0.001178       0.000090       0.000000
      0.001865       0.000099       0.000000
      0.001778       0.000192       0.000000
      0.001178       0.000090       0.000000
      0.001219       0.000046       0.000000
      0.001938       0.000042       0.000000
      0.001865       0.000099       0.000000
      0.001778       0.000192       0.000000
      0.001865       0.000099       0.000000
      0.002662       0.000068       0.000000
      0.002514       0.000184       0.000000
      0.001865       0.000099       0.000000
      0.001938       0.000042       0.000000
      0.002761       0.000016       0.000000
      0.002662       0.000068       0.000000
      0.001219       0.000046       0.000000
      0.001248       0.000018       0.000000
      0.001984       0.000014       0.000000
      0.001938       0.000042       0.000000
      0.001248       0.000018       0.000000
      0.001259       0.000000       0.000000
      0.002000       0.000000       0.000000
      0.001984       0.000014       0.000000
      0.001938       0.000042       0.000000
      0.001984       0.000014       0.000000
      0.002816      -0.000000       0.000000
      0.002761       0.000016       0.000000
      0.001984       0.000014       0.000000
      0.002000       0.000000       0.000000
      0.002833       0.000000       0.000000
      0.002816      -0.000000       0.000000
      0.002514       0.000184       0.000000
      0.002662       0.000068       0.000000
      0.003627       0.000007       0.000000
      0.003471       0.000099       0.000000
      0.002662       0.000068       0.000000
      0.002761       0.000016       0.000000
      0.003706      -0.000020       0.000000
      0.003627       0.000007       0.000000
      0.003471       0.000099       0.000000
      0.003627       0.000007       0.000000
      0.004753      -0.000022       0.000000
      0.004779       0.000036       0.000000
      0.003627       0.000007       0.000000
      0.003706      -0.000020       0.000000
      0.004742      -0.000035       0.000000
      0.004753      -0.000022       0.000000
      0.002761       0.000016       0.000000
      0.002816      -0.000000       0.000000
      0.003744      -0.000017       0.000000
      0.003706      -0.000020       0.000000
      0.002816      -0.000000       0.000000
      0.002833       0.000000       0.000000
      0.003756       0.000000       0.000000
      0.003744      -0.000017       0.000000
      0.003706      -0.000020       0.000000
      0.003744      -0.000017       0.000000
      0.004736      -0.000023       0.000000
      0.004742      -0.000035       0.000000
      0.003744      -0.000017       0.000000
      0.003756       0.000000       0.000000
      0.004735       0.000000       0.000000
      0.004736      -0.000023       0.000000
      0.002210       0.000443       0.000000
      0.002274       0.000427       0.000000
      0.002597       0.000469       0.000000
      0.002495       0.000489       0.000000
      0.002274       0.000427       0.000000
      0.002345       0.000358       0.000000
      0.002712       0.000364       0.000000
      0.002597       0.000469       0.000000
      0.002495       0.000489       0.000000
      0.002597       0.000469       0.000000
      0.002967       0.000498       0.000000
      0.002781       0.000531       0.000000
      0.002597       0.000469       0.000000
      0.002712       0.000364       0.000000
      0.003170       0.000331       0.000000
      0.002967       0.000498       0.000000
      0.002345       0.000358       0.000000
      0.002428       0.000268       0.000000
      0.002838       0.000246       0.000000
      0.002712       0.000364       0.000000
      0.002428       0.000268       0.000000
      0.002514       0.000184       0.000000
      0.002952       0.000150       0.000000
      0.002838       0.000246       0.000000
      0.002712       0.000364       0.000000
      0.002838       0.000246       0.000000
      0.003344       0.000191       0.000000