# vtk DataFile Version 2.0
time_10.vtk
ASCII
DATASET UNSTRUCTURED_GRID
POINTS  1572 float
      0.000000       0.000000       0.000000
      0.083333       0.000000       0.000000
      0.083333       0.083333       0.000000
      0.000000       0.083333       0.000000
      0.083333       0.000000       0.000000
      0.166667       0.000000       0.000000
      0.166667       0.083333       0.000000
      0.083333       0.083333       0.000000
      0.000000       0.083333       0.000000
      0.083333       0.083333       0.000000
      0.083333       0.166667       0.000000
      0.000000       0.166667       0.000000
      0.083333       0.083333       0.000000
      0.166667       0.083333       0.000000
      0.166667       0.166667       0.000000
      0.083333       0.166667       0.000000
      0.166667       0.000000       0.000000
      0.250000       0.000000       0.000000
      0.250000       0.083333       0.000000
      0.166667       0.083333       0.000000
      0.250000       0.000000       0.000000
      0.333333       0.000000       0.000000
      0.333333       0.083333       0.000000
      0.250000       0.083333       0.000000
      0.166667       0.083333       0.000000
      0.250000       0.083333       0.000000
      0.250000       0.166667       0.000000
      0.166667       0.166667       0.000000
      0.250000       0.083333       0.000000
      0.333333       0.083333       0.000000
      0.333333       0.166667       0.000000
      0.250000       0.166667       0.000000
      0.333333       0.000000       0.000000
      0.416667      -0.000000       0.000000
      0.416667       0.083333       0.000000
      0.333333       0.083333       0.000000
      0.416667      -0.000000       0.000000
      0.500000       0.000000       0.000000
      0.500000       0.083333       0.000000
      0.416667       0.083333       0.000000
      0.333333       0.083333       0.000000
      0.416667       0.083333       0.000000
      0.416667       0.166667       0.000000
      0.333333       0.166667       0.000000
      0.416667       0.083333       0.000000
      0.500000       0.083333       0.000000
      0.500000       0.166667       0.000000
      0.416667       0.166667       0.000000
      0.000000       0.166667       0.000000
      0.083333       0.166667       0.000000
      0.083333       0.250000       0.000000
      0.000000       0.250000       0.000000
      0.083333       0.166667       0.000000
      0.166667       0.166667       0.000000
      0.166667       0.250000       0.000000
      0.083333       0.250000       0.000000
      0.000000       0.250000       0.000000
      0.083333       0.250000       0.000000
      0.083333       0.333333       0.000000
      0.000000       0.333333       0.000000
      0.083333       0.250000       0.000000
      0.166667       0.250000       0.000000
      0.166667       0.333333       0.000000
      0.083333       0.333333       0.000000
      0.166667       0.166667       0.000000
      0.250000       0.166667       0.000000
      0.250000       0.250000       0.000000
      0.166667       0.250000       0.000000
      0.250000       0.166667       0.000000
      0.333333       0.166667       0.000000
      0.333333       0.250000       0.000000
      0.250000       0.250000       0.000000
      0.166667       0.250000       0.000000
      0.250000       0.250000       0.000000
      0.250000       0.333333       0.000000
      0.166667       0.333333       0.000000
      0.250000       0.250000       0.000000
      0.333333       0.250000       0.000000
      0.333333       0.333333       0.000000
      0.250000       0.333333       0.000000
      0.333333       0.166667       0.000000
      0.416667       0.166667       0.000000
      0.416667       0.250000       0.000000
      0.333333       0.250000       0.000000
      0.416667       0.166667       0.000000
      0.500000       0.166667       0.000000
      0.500000       0.250000       0.000000
      0.416667       0.250000       0.000000
      0.333333       0.250000       0.000000
      0.416667       0.250000       0.000000
      0.416667       0.333333       0.000000
      0.333333       0.333333       0.000000
      0.000000       0.333333       0.000000
      0.083333       0.333333       0.000000
      0.083333       0.416667       0.000000
     -0.000000       0.416667       0.000000
      0.083333       0.333333       0.000000
      0.166667       0.333333       0.000000
      0.166667       0.416667       0.000000
      0.083333       0.416667       0.000000
     -0.000000       0.416667       0.000000
      0.083333       0.416667       0.000000
      0.083333       0.500000       0.000000
      0.000000       0.500000       0.000000
      0.083333       0.416667       0.000000
      0.166667       0.416667       0.000000
      0.166667       0.500000       0.000000
      0.083333       0.500000       0.000000
      0.166667       0.333333       0.000000
      0.250000       0.333333       0.000000
      0.250000       0.416667       0.000000
      0.166667       0.416667       0.000000
      0.250000       0.333333       0.000000
      0.333333       0.333333       0.000000
      0.333333       0.416667       0.000000
      0.250000       0.416667       0.000000
      0.166667       0.416667       0.000000
      0.250000       0.416667       0.000000
      0.250000       0.500000       0.000000
      0.166667       0.500000       0.000000
      0.250000       0.416667       0.000000
      0.333333       0.416667       0.000000
      0.333333       0.500000       0.000000
      0.250000       0.500000       0.000000
      0.333333       0.333333       0.000000
      0.375000       0.333333       0.000000
      0.375000       0.375000       0.000000
      0.333333       0.375000       0.000000
      0.375000       0.333333       0.000000
      0.416667       0.333333       0.000000
      0.416667       0.375000       0.000000
      0.375000       0.375000       0.000000
      0.333333       0.375000       0.000000
      0.375000       0.375000       0.000000
      0.375000       0.416667       0.000000
      0.333333       0.416667       0.000000
      0.375000       0.375000       0.000000
      0.416667       0.375000       0.000000
      0.416667       0.416667       0.000000
      0.375000       0.416667       0.000000
      0.416667       0.333333       0.000000
      0.458333       0.333333       0.000000
      0.458333       0.375000       0.000000
      0.416667       0.375000       0.000000
      0.416667       0.375000       0.000000
      0.458333       0.375000       0.000000
      0.458333       0.416667       0.000000
      0.416667       0.416667       0.000000
      0.333333       0.416667       0.000000
      0.375000       0.416667       0.000000
      0.375000       0.458333       0.000000
      0.333333       0.458333       0.000000
      0.375000       0.416667       0.000000
      0.416667       0.416667       0.000000
      0.416667       0.458333       0.000000
      0.375000       0.458333       0.000000
      0.333333       0.458333       0.000000
      0.375000       0.458333       0.000000
      0.375000       0.500000       0.000000
      0.333333       0.500000       0.000000
      0.375000       0.458333       0.000000
      0.416667       0.458333       0.000000
      0.416667       0.500000       0.000000
      0.375000       0.500000       0.000000
      0.416667       0.416667       0.000000
      0.437500       0.416667       0.000000
      0.437500       0.437500       0.000000
      0.416667       0.437500       0.000000
      0.437500       0.416667       0.000000
      0.458333       0.416667       0.000000
      0.458333       0.437500       0.000000
      0.437500       0.437500       0.000000
      0.416667       0.437500       0.000000
      0.437500       0.437500       0.000000
      0.437500       0.458333       0.000000
      0.416667       0.458333       0.000000
      0.437500       0.437500       0.000000
      0.458333       0.437500       0.000000
      0.458333       0.458333       0.000000
      0.437500       0.458333       0.000000
      0.458333       0.416667       0.000000
      0.479167       0.416667       0.000000
      0.479167       0.437500       0.000000
      0.458333       0.437500       0.000000
      0.458333       0.437500       0.000000
      0.479167       0.437500       0.000000
      0.479167       0.458333       0.000000
      0.458333       0.458333       0.000000
      0.416667       0.458333       0.000000
      0.437500       0.458333       0.000000
      0.437500       0.479167       0.000000
      0.416667       0.479167       0.000000
      0.437500       0.458333       0.000000
      0.458333       0.458333       0.000000
      0.458333       0.479167       0.000000
      0.437500       0.479167       0.000000
      0.416667       0.479167       0.000000
      0.437500       0.479167       0.000000
      0.437500       0.500000       0.000000
      0.416667       0.500000       0.000000
      0.437500       0.479167       0.000000
      0.458333       0.479167       0.000000
      0.458333       0.500000       0.000000
      0.437500       0.500000       0.000000
      0.458333       0.458333       0.000000
      0.468750       0.458333       0.000000
      0.468750       0.468750       0.000000
      0.458333       0.468750       0.000000
      0.468750       0.458333       0.000000
      0.479167       0.458333       0.000000
      0.479167       0.468750       0.000000
      0.468750       0.468750       0.000000
      0.458333       0.468750       0.000000
      0.468750       0.468750       0.000000
      0.468750       0.479167       0.000000
      0.458333       0.479167       0.000000
      0.468750       0.468750       0.000000
      0.479167       0.468750       0.000000
      0.479167       0.479167       0.000000
      0.468750       0.479167       0.000000
[...]
POINT_DATA  1572
VECTORS U float 
      0.000000       0.000000       0.000000
      0.000000       0.000000       0.000000
      0.000356       0.000004       0.000000
      0.000347       0.000000       0.000000
      0.000000       0.000000       0.000000
      0.000000       0.000000       0.000000
      0.000382       0.000011       0.000000
      0.000356       0.000004       0.000000
      0.000347       0.000000       0.000000
      0.000356       0.000004       0.000000
      0.000654      -0.000003       0.000000
      0.000640       0.000000       0.000000
      0.000356       0.000004       0.000000
      0.000382       0.000011       0.000000
      0.000696       0.000000       0.000000
      0.000654      -0.000003       0.000000
      0.000000       0.000000       0.000000
      0.000000       0.000000       0.000000
      0.000425       0.000026       0.000000
      0.000382       0.000011       0.000000
      0.000000       0.000000       0.000000
      0.000000       0.000000       0.000000
      0.000479       0.000054       0.000000
      0.000425       0.000026       0.000000
      0.000382       0.000011       0.000000
      0.000425       0.000026       0.000000
      0.000767       0.000018       0.000000
      0.000696       0.000000       0.000000
      0.000425       0.000026       0.000000
      0.000479       0.000054       0.000000
      0.000866       0.000064       0.000000
      0.000767       0.000018       0.000000
      0.000000       0.000000       0.000000
      0.000000       0.000000       0.000000
      0.000534       0.000099       0.000000
      0.000479       0.000054       0.000000
      0.000000       0.000000       0.000000
      0.000000       0.000000       0.000000
      0.000568       0.000154       0.000000
      0.000534       0.000099       0.000000
      0.000479       0.000054       0.000000
      0.000534       0.000099       0.000000
      0.000983       0.000154       0.000000
      0.000866       0.000064       0.000000
      0.000534       0.000099       0.000000
      0.000568       0.000154       0.000000
      0.001090       0.000287       0.000000
      0.000983       0.000154       0.000000
      0.000640       0.000000       0.000000
      0.000654      -0.000003       0.000000
      0.000878      -0.000016       0.000000
      0.000863       0.000000       0.000000
      0.000654      -0.000003       0.000000
      0.000696       0.000000       0.000000
      0.000926      -0.000025       0.000000
      0.000878      -0.000016       0.000000
      0.000863       0.000000       0.000000
      0.000878      -0.000016       0.000000
      0.001030      -0.000031       0.000000
      0.001017       0.000000       0.000000
      0.000878      -0.000016       0.000000
      0.000926      -0.000025       0.000000
      0.001070      -0.000055       0.000000
      0.001030      -0.000031       0.000000
      0.000696       0.000000       0.000000
      0.000767       0.000018       0.000000
      0.001008      -0.000017       0.000000
      0.000926      -0.000025       0.000000
      0.000767       0.000018       0.000000
      0.000866       0.000064       0.000000
      0.001133       0.000027       0.000000
      0.001008      -0.000017       0.000000
      0.000926      -0.000025       0.000000
      0.001008      -0.000017       0.000000
      0.001141      -0.000062       0.000000
      0.001070      -0.000055       0.000000
      0.001008      -0.000017       0.000000
      0.001133       0.000027       0.000000
      0.001251      -0.000036       0.000000
      0.001141      -0.000062       0.000000
      0.000866       0.000064       0.000000
      0.000983       0.000154       0.000000
      0.001311       0.000137       0.000000
      0.001133       0.000027       0.000000
      0.000983       0.000154       0.000000
      0.001090       0.000287       0.000000
      0.001543       0.000357       0.000000
      0.001311       0.000137       0.000000
      0.001133       0.000027       0.000000
      0.001311       0.000137       0.000000
      0.001416       0.000050       0.000000
      0.001251      -0.000036       0.000000
      0.001017       0.000000       0.000000
      0.001030      -0.000031       0.000000
      0.001122      -0.000041       0.000000
      0.001114       0.000000       0.000000
      0.001030      -0.000031       0.000000
      0.001070      -0.000055       0.000000
      0.001146      -0.000077       0.000000
      0.001122      -0.000041       0.000000
      0.001114       0.000000       0.000000
      0.001122      -0.000041       0.000000
      0.001177      -0.000047       0.000000
      0.001173       0.000000       0.000000
      0.001122      -0.000041       0.000000
      0.001146      -0.000077       0.000000
      0.001186      -0.000086       0.000000
      0.001177      -0.000047       0.000000
      0.001070      -0.000055       0.000000
      0.001141      -0.000062       0.000000
      0.001187      -0.000096       0.000000
      0.001146      -0.000077       0.000000
      0.001141      -0.000062       0.000000
      0.001251      -0.000036       0.000000
      0.001243      -0.000083       0.000000
      0.001187      -0.000096       0.000000
      0.001146      -0.000077       0.000000
      0.001187      -0.000096       0.000000
      0.001195      -0.000109       0.000000
      0.001186      -0.000086       0.000000
      0.001187      -0.000096       0.000000
      0.001243      -0.000083       0.000000
      0.001195      -0.000096       0.000000
      0.001195      -0.000109       0.000000
      0.001251      -0.000036       0.000000
      0.001324      -0.000003       0.000000
      0.001313      -0.000036       0.000000
      0.001258      -0.000064       0.000000
      0.001324      -0.000003       0.000000
      0.001416       0.000050       0.000000
      0.001377       0.000011       0.000000
      0.001313      -0.000036       0.000000
      0.001258      -0.000064       0.000000
      0.001313      -0.000036       0.000000
      0.001276      -0.000056       0.000000
      0.001243      -0.000083       0.000000
      0.001313      -0.000036       0.000000
      0.001377       0.000011       0.000000
      0.001310      -0.000009       0.000000
      0.001276      -0.000056       0.000000
      0.001416       0.000050       0.000000
      0.001535       0.000132       0.000000
      0.001452       0.000084       0.000000
      0.001377       0.000011       0.000000
      0.001377       0.000011       0.000000
      0.001452       0.000084       0.000000
      0.001341       0.000066       0.000000
      0.001310      -0.000009       0.000000
      0.001243      -0.000083       0.000000
      0.001276      -0.000056       0.000000
      0.001232      -0.000065       0.000000
      0.001219      -0.000093       0.000000
      0.001276      -0.000056       0.000000
      0.001310      -0.000009       0.000000
      0.001243      -0.000014       0.000000
      0.001232      -0.000065       0.000000
      0.001219      -0.000093       0.000000
      0.001232      -0.000065       0.000000
      0.001189      -0.000066       0.000000
      0.001195      -0.000096       0.000000
      0.001232      -0.000065       0.000000
      0.001243      -0.000014       0.000000
      0.001180      -0.000014       0.000000
      0.001189      -0.000066       0.000000
      0.001310      -0.000009       0.000000
      0.001326       0.000025       0.000000
      0.001285       0.000022       0.000000
      0.001276      -0.000013       0.000000
      0.001326       0.000025       0.000000
      0.001341       0.000066       0.000000
      0.001293       0.000064       0.000000
      0.001285       0.000022       0.000000
      0.001276      -0.000013       0.000000
      0.001285       0.000022       0.000000
      0.001248       0.000021       0.000000
      0.001243      -0.000014       0.000000
      0.001285       0.000022       0.000000
      0.001293       0.000064       0.000000
      0.001251       0.000063       0.000000
      0.001248       0.000021       0.000000
      0.001341       0.000066       0.000000
      0.001354       0.000117       0.000000
      0.001300       0.000115       0.000000
      0.001293       0.000064       0.000000
      0.001293       0.000064       0.000000
      0.001300       0.000115       0.000000
      0.001256       0.000112       0.000000
      0.001251       0.000063       0.000000
      0.001243      -0.000014       0.000000
      0.001248       0.000021       0.000000
      0.001213       0.000021       0.000000
      0.001212      -0.000015       0.000000
      0.001248       0.000021       0.000000
      0.001251       0.000063       0.000000
      0.001214       0.000063       0.000000
      0.001213       0.000021       0.000000
      0.001212      -0.000015       0.000000
      0.001213       0.000021       0.000000
      0.001176       0.000022       0.000000
      0.001180      -0.000014       0.000000
      0.001213       0.000021       0.000000
      0.001214       0.000063       0.000000
      0.001175       0.000063       0.000000
      0.001176       0.000022       0.000000
      0.001251       0.000063       0.000000
      0.001253       0.000087       0.000000
      0.001234       0.000086       0.000000
      0.001232       0.000063       0.000000
      0.001253       0.000087       0.000000
      0.001256       0.000112       0.000000
      0.001236       0.000110       0.000000
      0.001234       0.000086       0.000000
      0.001232       0.000063       0.000000
      0.001234       0.000086       0.000000
      0.001215       0.000085       0.000000
      0.001214       0.000063       0.000000
      0.001234       0.000086       0.000000
      0.001236       0.000110       0.000000
      0.001216       0.000109       0.000000
      0.001215       0.000085       0.000000
      0.001256       0.000112       0.000000
      0.001259       0.000140       0.000000
      0.001239       0.000137       0.000000
      0.001236       0.000110       0.000000
      0.001259       0.000140       0.000000
      0.001265       0.000170       0.000000
      0.001247       0.000173       0.000000
      0.001239       0.000137       0.000000
      0.001236       0.000110       0.000000
      0.001239       0.000137       0.000000
      0.001220       0.000133       0.000000
      0.001216       0.000109       0.000000
      0.001239       0.000137       0.000000
      0.001247       0.000173       0.000000
      0.001217       0.000175       0.000000
      0.001220       0.000133       0.000000
      0.001214       0.000063       0.000000
      0.001215       0.000085       0.000000
      0.001196       0.000084       0.000000
      0.001195       0.000062       0.000000
      0.001215       0.000085       0.000000
      0.001216       0.000109       0.000000
      0.001198       0.000106       0.000000
      0.001196       0.000084       0.000000
      0.001195       0.000062       0.000000
      0.001196       0.000084       0.000000
      0.001176       0.000085       0.000000
      0.001175       0.000063       0.000000
      0.001196       0.000084       0.000000
      0.001198       0.000106       0.000000
      0.001182       0.000109       0.000000
      0.001176       0.000085       0.000000
      0.001216       0.000109       0.000000
      0.001220       0.000133       0.000000
      0.001201       0.000125       0.000000
      0.001198       0.000106       0.000000
      0.001220       0.000133       0.000000
      0.001217       0.000175       0.000000
      0.000925       0.000139       0.000000
      0.001201       0.000125       0.000000
      0.001198       0.000106       0.000000
      0.001201       0.000125       0.000000
      0.001232       0.000141       0.000000
      0.001182       0.000109       0.000000
      0.001201       0.000125       0.000000
      0.000925       0.000139       0.000000
      0.008073       0.000772       0.000000
      0.001232       0.000141       0.000000
      0.001300       0.000115       0.000000
      0.001304       0.000144       0.000000
      0.001280       0.000142       0.000000
      0.001277       0.000114       0.000000
      0.001304       0.000144       0.000000
      0.001308       0.000176       0.000000
      0.001285       0.000174       0.000000
      0.001280       0.000142       0.000000
      0.001277       0.000114       0.000000
      0.001280       0.000142       0.000000
      0.001259       0.000140       0.000000
      0.001256       0.000112       0.000000
      0.001280       0.000142       0.000000
      0.001285       0.000174       0.000000
      0.001265       0.000170       0.000000
      0.001259       0.000140       0.000000
      0.001452       0.000084       0.000000
      0.001494       0.000135       0.000000
      0.001420       0.000122       0.000000
      0.001395       0.000072       0.000000
      0.001494       0.000135       0.000000
      0.001540       0.000200       0.000000
      0.001444       0.000188       0.000000
      0.001420       0.000122       0.000000
      0.001395       0.000072       0.000000
      0.001420       0.000122       0.000000
      0.001354       0.000117       0.000000
      0.001341       0.000066       0.000000
      0.001354       0.000117       0.000000
      0.001360       0.000148       0.000000
      0.001330       0.000146       0.000000
      0.001326       0.000116       0.000000
      0.001360       0.000148       0.000000
      0.001366       0.000182       0.000000
      0.001335       0.000180       0.000000
      0.001330       0.000146       0.000000
      0.001326       0.000116       0.000000
      0.001330       0.000146       0.000000
      0.001304       0.000144       0.000000
      0.001300       0.000115       0.000000
      0.001330       0.000146       0.000000
      0.001335       0.000180       0.000000
      0.001308       0.000176       0.000000
      0.001304       0.000144       0.000000
      0.001420       0.000122       0.000000
      0.001432       0.000153       0.000000
      0.001394       0.000150       0.000000
      0.001386       0.000119       0.000000
      0.001432       0.000153       0.000000
      0.001444       0.000188       0.000000
      0.001403       0.000185       0.000000
      0.001394       0.000150       0.000000
      0.001386       0.000119       0.000000
      0.001394       0.000150       0.000000
      0.001360       0.000148       0.000000
      0.001354       0.000117       0.000000
      0.001394       0.000150       0.000000
      0.001403       0.000185       0.000000
      0.001366       0.000182       0.000000
      0.001360       0.000148       0.000000
      0.001311       0.000137       0.000000
      0.001423       0.000231       0.000000
      0.001527       0.000192       0.000000
      0.001397       0.000097       0.000000
      0.001423       0.000231       0.000000
      0.001543       0.000357       0.000000
      0.001692       0.000338       0.000000
      0.001527       0.000192       0.000000
      0.001397       0.000097       0.000000
      0.001527       0.000192       0.000000
      0.001535       0.000132       0.000000
      0.001416       0.000050       0.000000
      0.001527       0.000192       0.000000
      0.001692       0.000338       0.000000
      0.001703       0.000267       0.000000
      0.001535       0.000132       0.000000
      0.001535       0.000132       0.000000
      0.001610       0.000191       0.000000
      0.001563       0.000158       0.000000
      0.001502       0.000104       0.000000
      0.001610       0.000191       0.000000
      0.001703       0.000267       0.000000
      0.001636       0.000227       0.000000
      0.001563       0.000158       0.000000
      0.001502       0.000104       0.000000
      0.001563       0.000158       0.000000
      0.001494       0.000135       0.000000
      0.001452       0.000084       0.000000
      0.001563       0.000158       0.000000
      0.001636       0.000227       0.000000
      0.001540       0.000200       0.000000
      0.001494       0.000135       0.000000
      0.000000       0.000000       0.000000
      0.000000       0.000000       0.000000
      0.000572       0.000186       0.000000
      0.000568       0.000154       0.000000
      0.000000       0.000000       0.000000
      0.000000       0.000000       0.000000
      0.000570       0.000165       0.000000
      0.000572       0.000186       0.000000
      0.000568       0.000154       0.000000
      0.000572       0.000186       0.000000
      0.001149       0.000376       0.000000
      0.001090       0.000287       0.000000
      0.000572       0.000186       0.000000
      0.000570       0.000165       0.000000
      0.001197       0.000315       0.000000
      0.001149       0.000376       0.000000
      0.000000       0.000000       0.000000
      0.000000       0.000000       0.000000
      0.000589       0.000110       0.000000
      0.000570       0.000165       0.000000
      0.000000       0.000000       0.000000
      0.000000       0.000000       0.000000
      0.000623       0.000060       0.000000
      0.000589       0.000110       0.000000
      0.000570       0.000165       0.000000
      0.000589       0.000110       0.000000
      0.001282       0.000186       0.000000
      0.001197       0.000315       0.000000
      0.000589       0.000110       0.000000
      0.000623       0.000060       0.000000
      0.001373       0.000087       0.000000
      0.001282       0.000186       0.000000
      0.000000       0.000000       0.000000
      0.000000       0.000000       0.000000
      0.000654       0.000025       0.000000
      0.000623       0.000060       0.000000
      0.000000       0.000000       0.000000
      0.000000       0.000000       0.000000
      0.000665       0.000000       0.000000
      0.000654       0.000025       0.000000
      0.000623       0.000060       0.000000
      0.000654       0.000025       0.000000
      0.001437       0.000032       0.000000
      0.001373       0.000087       0.000000
      0.000654       0.000025       0.000000
      0.000665       0.000000       0.000000
      0.001459       0.000000       0.000000
      0.001437       0.000032       0.000000
      0.001090       0.000287       0.000000
      0.001149       0.000376       0.000000
      0.001739       0.000571       0.000000
      0.001543       0.000357       0.000000
      0.001149       0.000376       0.000000
      0.001197       0.000315       0.000000
      0.001923       0.000410       0.000000
      0.001739       0.000571       0.000000
      0.001197       0.000315       0.000000
      0.001282       0.000186       0.000000
      0.002139       0.000191       0.000000
      0.001923       0.000410       0.000000
      0.001282       0.000186       0.000000
      0.001373       0.000087       0.000000
      0.002299       0.000071       0.000000
      0.002139       0.000191       0.000000
      0.001923       0.000410       0.000000
      0.002139       0.000191       0.000000
      0.003320       0.000118       0.000000
      0.003033       0.000358       0.000000
      0.002139       0.000191       0.000000
      0.002299       0.000071       0.000000
      0.003469       0.000024       0.000000
      0.003320       0.000118       0.000000
      0.001373       0.000087       0.000000
      0.001437       0.000032       0.000000
      0.002390       0.000020       0.000000
      0.002299       0.000071       0.000000
      0.001437       0.000032       0.000000
      0.001459       0.000000       0.000000
      0.002420       0.000000       0.000000
      0.002390       0.000020       0.000000
      0.002299       0.000071       0.000000
      0.002390       0.000020       0.000000
      0.003541      -0.000002       0.000000