# vtk DataFile Version 2.0
time_10.vtk
ASCII
DATASET UNSTRUCTURED_GRID
POINTS  3696 float
      0.000000       0.000000       0.000000
      0.083333       0.000000       0.000000
      0.083333       0.083333       0.000000
      0.000000       0.083333       0.000000
      0.083333       0.000000       0.000000
      0.166667       0.000000       0.000000
      0.166667       0.083333       0.000000
      0.083333       0.083333       0.000000
      0.000000       0.083333       0.000000
      0.083333       0.083333       0.000000
      0.083333       0.166667       0.000000
      0.000000       0.166667       0.000000
      0.083333       0.083333       0.000000
      0.166667       0.083333       0.000000
      0.166667       0.166667       0.000000
      0.083333       0.166667       0.000000
      0.166667       0.000000       0.000000
      0.250000       0.000000       0.000000
      0.250000       0.083333       0.000000
      0.166667       0.083333       0.000000
      0.250000       0.000000       0.000000
      0.333333       0.000000       0.000000
      0.333333       0.083333       0.000000
      0.250000       0.083333       0.000000
      0.166667       0.083333       0.000000
      0.250000       0.083333       0.000000
      0.250000       0.166667       0.000000
      0.166667       0.166667       0.000000
      0.250000       0.083333       0.000000
      0.333333       0.083333       0.000000
      0.333333       0.166667       0.000000
      0.250000       0.166667       0.000000
      0.333333       0.000000       0.000000
      0.416667      -0.000000       0.000000
      0.416667       0.083333       0.000000
      0.333333       0.083333       0.000000
      0.416667      -0.000000       0.000000
      0.500000       0.000000       0.000000
      0.500000       0.083333       0.000000
      0.416667       0.083333       0.000000
      0.333333       0.083333       0.000000
      0.416667       0.083333       0.000000
      0.416667       0.166667       0.000000
      0.333333       0.166667       0.000000
      0.416667       0.083333       0.000000
      0.500000       0.083333       0.000000
      0.500000       0.166667       0.000000
      0.416667       0.166667       0.000000
      0.000000       0.166667       0.000000
      0.083333       0.166667       0.000000
      0.083333       0.250000       0.000000
      0.000000       0.250000       0.000000
      0.083333       0.166667       0.000000
      0.166667       0.166667       0.000000
      0.166667       0.250000       0.000000
      0.083333       0.250000       0.000000
      0.000000       0.250000       0.000000
      0.083333       0.250000       0.000000
      0.083333       0.333333       0.000000
      0.000000       0.333333       0.000000
      0.083333       0.250000       0.000000
      0.166667       0.250000       0.000000
      0.166667       0.333333       0.000000
      0.083333       0.333333       0.000000
      0.166667       0.166667       0.000000
      0.250000       0.166667       0.000000
      0.250000       0.250000       0.000000
      0.166667       0.250000       0.000000
      0.250000       0.166667       0.000000
      0.333333       0.166667       0.000000
      0.333333       0.250000       0.000000
      0.250000       0.250000       0.000000
      0.166667       0.250000       0.000000
      0.250000       0.250000       0.000000
      0.250000       0.333333       0.000000
      0.166667       0.333333       0.000000
      0.250000       0.250000       0.000000
      0.333333       0.250000       0.000000
      0.333333       0.333333       0.000000
      0.250000       0.333333       0.000000
      0.333333       0.166667       0.000000
      0.416667       0.166667       0.000000
      0.416667       0.250000       0.000000
      0.333333       0.250000       0.000000
      0.333333       0.250000       0.000000
      0.416667       0.250000       0.000000
      0.416667       0.333333       0.000000
      0.333333       0.333333       0.000000
      0.000000       0.333333       0.000000
      0.083333       0.333333       0.000000
      0.083333       0.416667       0.000000
     -0.000000       0.416667       0.000000
      0.083333       0.333333       0.000000
      0.166667       0.333333       0.000000
      0.166667       0.416667       0.000000
      0.083333       0.416667       0.000000
     -0.000000       0.416667       0.000000
      0.083333       0.416667       0.000000
      0.083333       0.500000       0.000000
      0.000000       0.500000       0.000000
      0.083333       0.416667       0.000000
      0.166667       0.416667       0.000000
      0.166667       0.500000       0.000000
      0.083333       0.500000       0.000000
      0.166667       0.333333       0.000000
      0.250000       0.333333       0.000000
      0.250000       0.416667       0.000000
      0.166667       0.416667       0.000000
      0.250000       0.333333       0.000000
      0.333333       0.333333       0.000000
      0.333333       0.416667       0.000000
      0.250000       0.416667       0.000000
      0.166667       0.416667       0.000000
      0.250000       0.416667       0.000000
      0.250000       0.500000       0.000000
      0.166667       0.500000       0.000000
      0.250000       0.416667       0.000000
      0.333333       0.416667       0.000000
      0.333333       0.500000       0.000000
      0.250000       0.500000       0.000000
      0.333333       0.333333       0.000000
      0.375000       0.333333       0.000000
      0.375000       0.375000       0.000000
      0.333333       0.375000       0.000000
      0.375000       0.333333       0.000000
      0.416667       0.333333       0.000000
      0.416667       0.375000       0.000000
      0.375000       0.375000       0.000000
      0.333333       0.375000       0.000000
      0.375000       0.375000       0.000000
      0.375000       0.416667       0.000000
      0.333333       0.416667       0.000000
      0.375000       0.375000       0.000000
      0.416667       0.375000       0.000000
      0.416667       0.416667       0.000000
      0.375000       0.416667       0.000000
      0.416667       0.333333       0.000000
      0.458333       0.333333       0.000000
      0.458333       0.375000       0.000000
      0.416667       0.375000       0.000000
      0.416667       0.375000       0.000000
      0.458333       0.375000       0.000000
      0.458333       0.416667       0.000000
      0.416667       0.416667       0.000000
      0.333333       0.416667       0.000000
      0.375000       0.416667       0.000000
      0.375000       0.458333       0.000000
      0.333333       0.458333       0.000000
      0.375000       0.416667       0.000000
      0.416667       0.416667       0.000000
      0.416667       0.458333       0.000000
      0.375000       0.458333       0.000000
      0.333333       0.458333       0.000000
      0.375000       0.458333       0.000000
      0.375000       0.500000       0.000000
      0.333333       0.500000       0.000000
      0.375000       0.458333       0.000000
      0.416667       0.458333       0.000000
      0.416667       0.500000       0.000000
      0.375000       0.500000       0.000000
      0.416667       0.416667       0.000000
      0.437500       0.416667       0.000000
      0.437500       0.437500       0.000000
      0.416667       0.437500       0.000000
      0.437500       0.416667       0.000000
      0.458333       0.416667       0.000000
      0.458333       0.437500       0.000000
      0.437500       0.437500       0.000000
      0.416667       0.437500       0.000000
      0.437500       0.437500       0.000000
      0.437500       0.458333       0.000000
      0.416667       0.458333       0.000000
      0.437500       0.437500       0.000000
      0.458333       0.437500       0.000000
      0.458333       0.458333       0.000000
      0.437500       0.458333       0.000000
      0.458333       0.416667       0.000000
      0.479167       0.416667       0.000000
      0.479167       0.437500       0.000000
      0.458333       0.437500       0.000000
      0.458333       0.437500       0.000000
      0.479167       0.437500       0.000000
      0.479167       0.458333       0.000000
      0.458333       0.458333       0.000000
      0.416667       0.458333       0.000000
      0.437500       0.458333       0.000000
      0.437500       0.479167       0.000000
      0.416667       0.479167       0.000000
      0.437500       0.458333       0.000000
      0.458333       0.458333       0.000000
      0.458333       0.479167       0.000000
      0.437500       0.479167       0.000000
      0.416667       0.479167       0.000000
      0.437500       0.479167       0.000000
      0.437500       0.500000       0.000000
      0.416667       0.500000       0.000000
      0.437500       0.479167       0.000000
      0.458333       0.479167       0.000000
      0.458333       0.500000       0.000000
      0.437500       0.500000       0.000000
      0.458333       0.458333       0.000000
      0.468750       0.458333       0.000000
      0.468750       0.468750       0.000000
      0.458333       0.468750       0.000000
      0.468750       0.458333       0.000000
      0.479167       0.458333       0.000000
      0.479167       0.468750       0.000000
      0.468750       0.468750       0.000000
      0.458333       0.468750       0.000000
      0.468750       0.468750       0.000000
      0.468750       0.479167       0.000000
      0.458333       0.479167       0.000000
      0.468750       0.468750       0.000000
      0.479167       0.468750       0.000000
      0.479167       0.479167       0.000000
      0.468750       0.479167       0.000000
      0.479167       0.458333       0.000000
      0.489583       0.458333       0.000000
      0.489583       0.468750       0.000000
      0.479167       0.468750       0.000000
[...]
POINT_DATA  3696
VECTORS U float 
      0.000000       0.000000       0.000000
      0.000000       0.000000       0.000000
      0.000011       0.000000       0.000000
      0.000011       0.000000       0.000000
      0.000000       0.000000       0.000000
      0.000000       0.000000       0.000000
      0.000012       0.000000       0.000000
      0.000011       0.000000       0.000000
      0.000011       0.000000       0.000000
      0.000011       0.000000       0.000000
      0.000022       0.000000       0.000000
      0.000021       0.000000       0.000000
      0.000011       0.000000       0.000000
      0.000012       0.000000       0.000000
      0.000022       0.000001       0.000000
      0.000022       0.000000       0.000000
      0.000000       0.000000       0.000000
      0.000000       0.000000       0.000000
      0.000012       0.000001       0.000000
      0.000012       0.000000       0.000000
      0.000000       0.000000       0.000000
      0.000000       0.000000       0.000000
      0.000012       0.000001       0.000000
      0.000012       0.000001       0.000000
      0.000012       0.000000       0.000000
      0.000012       0.000001       0.000000
      0.000023       0.000001       0.000000
      0.000022       0.000001       0.000000
      0.000012       0.000001       0.000000
      0.000012       0.000001       0.000000
      0.000024       0.000001       0.000000
      0.000023       0.000001       0.000000
      0.000000       0.000000       0.000000
      0.000000       0.000000       0.000000
      0.000013       0.000001       0.000000
      0.000012       0.000001       0.000000
      0.000000       0.000000       0.000000
      0.000000       0.000000       0.000000
      0.000014       0.000001       0.000000
      0.000013       0.000001       0.000000
      0.000012       0.000001       0.000000
      0.000013       0.000001       0.000000
      0.000026       0.000001       0.000000
      0.000024       0.000001       0.000000
      0.000013       0.000001       0.000000
      0.000014       0.000001       0.000000
      0.000028       0.000001       0.000000
      0.000026       0.000001       0.000000
      0.000021       0.000000       0.000000
      0.000022       0.000000       0.000000
      0.000030       0.000000       0.000000
      0.000030       0.000000       0.000000
      0.000022       0.000000       0.000000
      0.000022       0.000001       0.000000
      0.000031       0.000001       0.000000
      0.000030       0.000000       0.000000
      0.000030       0.000000       0.000000
      0.000030       0.000000       0.000000
      0.000037       0.000000       0.000000
      0.000037       0.000000       0.000000
      0.000030       0.000000       0.000000
      0.000031       0.000001       0.000000
      0.000039       0.000000       0.000000
      0.000037       0.000000       0.000000
      0.000022       0.000001       0.000000
      0.000023       0.000001       0.000000
      0.000033       0.000001       0.000000
      0.000031       0.000001       0.000000
      0.000023       0.000001       0.000000
      0.000024       0.000001       0.000000
      0.000035       0.000001       0.000000
      0.000033       0.000001       0.000000
      0.000031       0.000001       0.000000
      0.000033       0.000001       0.000000
      0.000041       0.000000       0.000000
      0.000039       0.000000       0.000000
      0.000033       0.000001       0.000000
      0.000035       0.000001       0.000000
      0.000044       0.000000       0.000000
      0.000041       0.000000       0.000000
      0.000024       0.000001       0.000000
      0.000026       0.000001       0.000000
      0.000038       0.000001       0.000000
      0.000035       0.000001       0.000000
      0.000035       0.000001       0.000000
      0.000038       0.000001       0.000000
      0.000048      -0.000000       0.000000
      0.000044       0.000000       0.000000
      0.000037       0.000000       0.000000
      0.000037       0.000000       0.000000
      0.000042      -0.000000       0.000000
      0.000041       0.000000       0.000000
      0.000037       0.000000       0.000000
      0.000039       0.000000       0.000000
      0.000044      -0.000000       0.000000
      0.000042      -0.000000       0.000000
      0.000041       0.000000       0.000000
      0.000042      -0.000000       0.000000
      0.000044      -0.000001       0.000000
      0.000044       0.000000       0.000000
      0.000042      -0.000000       0.000000
      0.000044      -0.000000       0.000000
      0.000046      -0.000001       0.000000
      0.000044      -0.000001       0.000000
      0.000039       0.000000       0.000000
      0.000041       0.000000       0.000000
      0.000046      -0.000001       0.000000
      0.000044      -0.000000       0.000000
      0.000041       0.000000       0.000000
      0.000044       0.000000       0.000000
      0.000050      -0.000001       0.000000
      0.000046      -0.000001       0.000000
      0.000044      -0.000000       0.000000
      0.000046      -0.000001       0.000000
      0.000049      -0.000002       0.000000
      0.000046      -0.000001       0.000000
      0.000046      -0.000001       0.000000
      0.000050      -0.000001       0.000000
      0.000053      -0.000003       0.000000
      0.000049      -0.000002       0.000000
      0.000044       0.000000       0.000000
      0.000046       0.000000       0.000000
      0.000049      -0.000001       0.000000
      0.000047      -0.000000       0.000000
      0.000046       0.000000       0.000000
      0.000048      -0.000000       0.000000
      0.000052      -0.000001       0.000000
      0.000049      -0.000001       0.000000
      0.000047      -0.000000       0.000000
      0.000049      -0.000001       0.000000
      0.000053      -0.000002       0.000000
      0.000050      -0.000001       0.000000
      0.000049      -0.000001       0.000000
      0.000052      -0.000001       0.000000
      0.000055      -0.000002       0.000000
      0.000053      -0.000002       0.000000
      0.000048      -0.000000       0.000000
      0.000050      -0.000001       0.000000
      0.000055      -0.000002       0.000000
      0.000052      -0.000001       0.000000
      0.000052      -0.000001       0.000000
      0.000055      -0.000002       0.000000
      0.000058      -0.000003       0.000000
      0.000055      -0.000002       0.000000
      0.000050      -0.000001       0.000000
      0.000053      -0.000002       0.000000
      0.000055      -0.000003       0.000000
      0.000052      -0.000002       0.000000
      0.000053      -0.000002       0.000000
      0.000055      -0.000002       0.000000
      0.000058      -0.000003       0.000000
      0.000055      -0.000003       0.000000
      0.000052      -0.000002       0.000000
      0.000055      -0.000003       0.000000
      0.000056      -0.000004       0.000000
      0.000053      -0.000003       0.000000
      0.000055      -0.000003       0.000000
      0.000058      -0.000003       0.000000
      0.000060      -0.000005       0.000000
      0.000056      -0.000004       0.000000
      0.000055      -0.000002       0.000000
      0.000057      -0.000002       0.000000
      0.000058      -0.000003       0.000000
      0.000057      -0.000003       0.000000
      0.000057      -0.000002       0.000000
      0.000058      -0.000003       0.000000
      0.000060      -0.000003       0.000000
      0.000058      -0.000003       0.000000
      0.000057      -0.000003       0.000000
      0.000058      -0.000003       0.000000
      0.000060      -0.000004       0.000000
      0.000058      -0.000003       0.000000
      0.000058      -0.000003       0.000000
      0.000060      -0.000003       0.000000
      0.000062      -0.000004       0.000000
      0.000060      -0.000004       0.000000
      0.000058      -0.000003       0.000000
      0.000060      -0.000003       0.000000
      0.000062      -0.000004       0.000000
      0.000060      -0.000003       0.000000
      0.000060      -0.000003       0.000000
      0.000062      -0.000004       0.000000
      0.000064      -0.000005       0.000000
      0.000062      -0.000004       0.000000
      0.000058      -0.000003       0.000000
      0.000060      -0.000004       0.000000
      0.000061      -0.000004       0.000000
      0.000059      -0.000004       0.000000
      0.000060      -0.000004       0.000000
      0.000062      -0.000004       0.000000
      0.000063      -0.000005       0.000000
      0.000061      -0.000004       0.000000
      0.000059      -0.000004       0.000000
      0.000061      -0.000004       0.000000
      0.000062      -0.000005       0.000000
      0.000060      -0.000005       0.000000
      0.000061      -0.000004       0.000000
      0.000063      -0.000005       0.000000
      0.000065      -0.000006       0.000000
      0.000062      -0.000005       0.000000
      0.000062      -0.000004       0.000000
      0.000063      -0.000004       0.000000
      0.000063      -0.000005       0.000000
      0.000062      -0.000005       0.000000
      0.000063      -0.000004       0.000000
      0.000064      -0.000005       0.000000
      0.000065      -0.000005       0.000000
      0.000063      -0.000005       0.000000
      0.000062      -0.000005       0.000000
      0.000063      -0.000005       0.000000
      0.000064      -0.000005       0.000000
      0.000063      -0.000005       0.000000
      0.000063      -0.000005       0.000000
      0.000065      -0.000005       0.000000
      0.000066      -0.000006       0.000000
      0.000064      -0.000005       0.000000
      0.000064      -0.000005       0.000000
      0.000066      -0.000005       0.000000
      0.000067      -0.000005       0.000000
      0.000065      -0.000005       0.000000
      0.000066      -0.000005       0.000000
      0.000069      -0.000005       0.000000
      0.000076       0.000001       0.000000
      0.000067      -0.000005       0.000000
      0.000065      -0.000005       0.000000
      0.000067      -0.000005       0.000000
      0.000069      -0.000005       0.000000
      0.000066      -0.000006       0.000000
      0.000067      -0.000005       0.000000
      0.000076       0.000001       0.000000
      0.000134       0.000014       0.000000
      0.000069      -0.000005       0.000000
      0.000063      -0.000005       0.000000
      0.000064      -0.000005       0.000000
      0.000066      -0.000006       0.000000
      0.000064      -0.000006       0.000000
      0.000064      -0.000005       0.000000
      0.000066      -0.000006       0.000000
      0.000068      -0.000009       0.000000
      0.000066      -0.000006       0.000000
      0.000064      -0.000006       0.000000
      0.000066      -0.000006       0.000000
      0.000068      -0.000005       0.000000
      0.000065      -0.000006       0.000000
      0.000066      -0.000006       0.000000
      0.000068      -0.000009       0.000000
      0.000077      -0.000003       0.000000
      0.000068      -0.000005       0.000000
      0.000066      -0.000006       0.000000
      0.000069      -0.000005       0.000000
      0.000080      -0.000015       0.000000
      0.000068      -0.000009       0.000000
      0.000069      -0.000005       0.000000
      0.000134       0.000014       0.000000
      0.001158       0.000179       0.000000
      0.000080      -0.000015       0.000000
      0.000068      -0.000009       0.000000
      0.000080      -0.000015       0.000000
      0.000165       0.000004       0.000000
      0.000077      -0.000003       0.000000
      0.000080      -0.000015       0.000000
      0.001158       0.000179       0.000000
      0.012115       0.000073       0.000000
      0.000165       0.000004       0.000000
      0.000062      -0.000004       0.000000
      0.000063      -0.000004       0.000000
      0.000064      -0.000004       0.000000
      0.000063      -0.000004       0.000000
      0.000063      -0.000004       0.000000
      0.000065      -0.000004       0.000000
      0.000066      -0.000005       0.000000
      0.000064      -0.000004       0.000000
      0.000063      -0.000004       0.000000
      0.000064      -0.000004       0.000000
      0.000066      -0.000005       0.000000
      0.000064      -0.000005       0.000000
      0.000064      -0.000004       0.000000
      0.000066      -0.000005       0.000000
      0.000069      -0.000005       0.000000
      0.000066      -0.000005       0.000000
      0.000055      -0.000002       0.000000
      0.000056      -0.000002       0.000000
      0.000058      -0.000002       0.000000
      0.000057      -0.000002       0.000000
      0.000056      -0.000002       0.000000
      0.000058      -0.000002       0.000000
      0.000060      -0.000003       0.000000
      0.000058      -0.000002       0.000000
      0.000057      -0.000002       0.000000
      0.000058      -0.000002       0.000000
      0.000060      -0.000003       0.000000
      0.000058      -0.000003       0.000000
      0.000060      -0.000003       0.000000
      0.000061      -0.000003       0.000000
      0.000062      -0.000003       0.000000
      0.000061      -0.000003       0.000000
      0.000061      -0.000003       0.000000
      0.000062      -0.000003       0.000000
      0.000063      -0.000004       0.000000
      0.000062      -0.000003       0.000000
      0.000061      -0.000003       0.000000
      0.000062      -0.000003       0.000000
      0.000063      -0.000004       0.000000
      0.000062      -0.000004       0.000000
      0.000062      -0.000003       0.000000
      0.000063      -0.000004       0.000000
      0.000065      -0.000004       0.000000
      0.000063      -0.000004       0.000000
      0.000058      -0.000002       0.000000
      0.000059      -0.000003       0.000000
      0.000060      -0.000003       0.000000
      0.000059      -0.000003       0.000000
      0.000059      -0.000003       0.000000
      0.000060      -0.000003       0.000000
      0.000061      -0.000003       0.000000
      0.000060      -0.000003       0.000000
      0.000059      -0.000003       0.000000
      0.000060      -0.000003       0.000000
      0.000061      -0.000003       0.000000
      0.000060      -0.000003       0.000000
      0.000060      -0.000003       0.000000
      0.000061      -0.000003       0.000000
      0.000062      -0.000003       0.000000
      0.000061      -0.000003       0.000000
      0.000038       0.000001       0.000000
      0.000039       0.000001       0.000000
      0.000045       0.000000       0.000000
      0.000043       0.000000       0.000000
      0.000039       0.000001       0.000000
      0.000041       0.000000       0.000000
      0.000047      -0.000001       0.000000
      0.000045       0.000000       0.000000
      0.000043       0.000000       0.000000
      0.000045       0.000000       0.000000
      0.000050      -0.000001       0.000000
      0.000048      -0.000000       0.000000
      0.000050      -0.000001       0.000000
      0.000051      -0.000001       0.000000
      0.000054      -0.000001       0.000000
      0.000052      -0.000001       0.000000
      0.000051      -0.000001       0.000000
      0.000053      -0.000001       0.000000
      0.000055      -0.000002       0.000000
      0.000054      -0.000001       0.000000
      0.000052      -0.000001       0.000000
      0.000054      -0.000001       0.000000
      0.000056      -0.000002       0.000000
      0.000055      -0.000002       0.000000
      0.000054      -0.000001       0.000000
      0.000055      -0.000002       0.000000
      0.000058      -0.000002       0.000000
      0.000056      -0.000002       0.000000
      0.000045       0.000000       0.000000
      0.000046      -0.000000       0.000000
      0.000049      -0.000001       0.000000
      0.000047      -0.000000       0.000000
      0.000046      -0.000000       0.000000
      0.000047      -0.000001       0.000000
      0.000050      -0.000001       0.000000
      0.000049      -0.000001       0.000000
      0.000047      -0.000000       0.000000
      0.000049      -0.000001       0.000000
      0.000051      -0.000001       0.000000
      0.000050      -0.000001       0.000000
      0.000049      -0.000001       0.000000
      0.000050      -0.000001       0.000000
      0.000053      -0.000001       0.000000
      0.000051      -0.000001       0.000000
      0.000026       0.000001       0.000000
      0.000027       0.000001       0.000000
      0.000033       0.000001       0.000000
      0.000032       0.000001       0.000000
      0.000027       0.000001       0.000000
      0.000028       0.000001       0.000000
      0.000035       0.000001       0.000000
      0.000033       0.000001       0.000000
      0.000032       0.000001       0.000000
      0.000033       0.000001       0.000000
      0.000039       0.000001       0.000000
      0.000038       0.000001       0.000000
      0.000033       0.000001       0.000000
      0.000035       0.000001       0.000000
      0.000041       0.000000       0.000000
      0.000039       0.000001       0.000000
      0.000000       0.000000       0.000000
      0.000000       0.000000       0.000000
      0.000015       0.000000       0.000000
      0.000014       0.000001       0.000000
      0.000000       0.000000       0.000000
      0.000000       0.000000       0.000000
      0.000017      -0.000000       0.000000
      0.000015       0.000000       0.000000
      0.000014       0.000001       0.000000
      0.000015       0.000000       0.000000
      0.000031      -0.000000       0.000000
      0.000028       0.000001       0.000000
      0.011633       0.000079       0.000000
      0.011625       0.000000       0.000000
      0.011779       0.000000       0.000000
      0.011779       0.000068       0.000000
      0.011778       0.000129       0.000000
      0.011779       0.000068       0.000000
      0.011897       0.000056       0.000000
      0.011894       0.000105       0.000000
      0.011779       0.000068       0.000000
      0.011779       0.000000       0.000000
      0.011898       0.000000       0.000000
      0.011897       0.000056       0.000000
      0.011890       0.000139       0.000000
      0.011894       0.000105       0.000000
      0.011992       0.000085       0.000000
      0.011989       0.000115       0.000000
      0.011989       0.000134       0.000000
      0.011989       0.000115       0.000000
      0.012072       0.000095       0.000000
      0.012076       0.000111       0.000000
      0.011989       0.000115       0.000000
      0.011992       0.000085       0.000000
      0.012073       0.000069       0.000000
      0.012072       0.000095       0.000000
      0.011894       0.000105       0.000000
      0.011897       0.000056       0.000000
      0.011994       0.000045       0.000000
      0.011992       0.000085       0.000000
      0.011897       0.000056       0.000000
      0.011898       0.000000       0.000000
      0.011996       0.000000       0.000000
      0.011994       0.000045       0.000000
      0.011992       0.000085       0.000000
      0.011994       0.000045       0.000000
      0.012074       0.000037       0.000000
      0.012073       0.000069       0.000000
      0.011994       0.000045       0.000000
      0.011996       0.000000       0.000000
      0.012075       0.000000       0.000000
      0.012074       0.000037       0.000000
      0.011988       0.000141       0.000000
      0.011989       0.000134       0.000000
      0.012035       0.000122       0.000000
      0.012037       0.000127       0.000000
      0.012039       0.000130       0.000000
      0.012037       0.000127       0.000000
      0.012080       0.000116       0.000000