# vtk DataFile Version 2.0
time_10.vtk
ASCII
DATASET UNSTRUCTURED_GRID
POINTS  1152 float
      0.000000       0.000000       0.000000
      0.083333       0.000000       0.000000
      0.083333       0.083333       0.000000
      0.000000       0.083333       0.000000
      0.083333       0.000000       0.000000
      0.166667       0.000000       0.000000
      0.166667       0.083333       0.000000
      0.083333       0.083333       0.000000
      0.000000       0.083333       0.000000
      0.083333       0.083333       0.000000
      0.083333       0.166667       0.000000
      0.000000       0.166667       0.000000
      0.083333       0.083333       0.000000
      0.166667       0.083333       0.000000
      0.166667       0.166667       0.000000
      0.083333       0.166667       0.000000
      0.166667       0.000000       0.000000
      0.250000       0.000000       0.000000
      0.250000       0.083333       0.000000
      0.166667       0.083333       0.000000
      0.250000       0.000000       0.000000
      0.333333       0.000000       0.000000
      0.333333       0.083333       0.000000
      0.250000       0.083333       0.000000
      0.166667       0.083333       0.000000
      0.250000       0.083333       0.000000
      0.250000       0.166667       0.000000
      0.166667       0.166667       0.000000
      0.250000       0.083333       0.000000
      0.333333       0.083333       0.000000
      0.333333       0.166667       0.000000
      0.250000       0.166667       0.000000
      0.333333       0.000000       0.000000
      0.416667      -0.000000       0.000000
      0.416667       0.083333       0.000000
      0.333333       0.083333       0.000000
      0.416667      -0.000000       0.000000
      0.500000       0.000000       0.000000
      0.500000       0.083333       0.000000
      0.416667       0.083333       0.000000
      0.333333       0.083333       0.000000
      0.416667       0.083333       0.000000
      0.416667       0.166667       0.000000
      0.333333       0.166667       0.000000
      0.416667       0.083333       0.000000
      0.500000       0.083333       0.000000
      0.500000       0.166667       0.000000
      0.416667       0.166667       0.000000
      0.000000       0.166667       0.000000
      0.083333       0.166667       0.000000
      0.083333       0.250000       0.000000
      0.000000       0.250000       0.000000
      0.083333       0.166667       0.000000
      0.166667       0.166667       0.000000
      0.166667       0.250000       0.000000
      0.083333       0.250000       0.000000
      0.000000       0.250000       0.000000
      0.083333       0.250000       0.000000
      0.083333       0.333333       0.000000
      0.000000       0.333333       0.000000
      0.083333       0.250000       0.000000
      0.166667       0.250000       0.000000
      0.166667       0.333333       0.000000
      0.083333       0.333333       0.000000
      0.166667       0.166667       0.000000
      0.250000       0.166667       0.000000
      0.250000       0.250000       0.000000
      0.166667       0.250000       0.000000
      0.250000       0.166667       0.000000
      0.333333       0.166667       0.000000
      0.333333       0.250000       0.000000
      0.250000       0.250000       0.000000
      0.166667       0.250000       0.000000
      0.250000       0.250000       0.000000
      0.250000       0.333333       0.000000
      0.166667       0.333333       0.000000
      0.250000       0.250000       0.000000
      0.333333       0.250000       0.000000
      0.333333       0.333333       0.000000
      0.250000       0.333333       0.000000
      0.333333       0.166667       0.000000
      0.416667       0.166667       0.000000
      0.416667       0.250000       0.000000
      0.333333       0.250000       0.000000
      0.416667       0.166667       0.000000
      0.500000       0.166667       0.000000
      0.500000       0.250000       0.000000
      0.416667       0.250000       0.000000
      0.333333       0.250000       0.000000
      0.416667       0.250000       0.000000
      0.416667       0.333333       0.000000
      0.333333       0.333333       0.000000
      0.416667       0.250000       0.000000
      0.500000       0.250000       0.000000
      0.500000       0.333333       0.000000
      0.416667       0.333333       0.000000
      0.000000       0.333333       0.000000
      0.083333       0.333333       0.000000
      0.083333       0.416667       0.000000
     -0.000000       0.416667       0.000000
      0.083333       0.333333       0.000000
      0.166667       0.333333       0.000000
      0.166667       0.416667       0.000000
      0.083333       0.416667       0.000000
     -0.000000       0.416667       0.000000
      0.083333       0.416667       0.000000
      0.083333       0.500000       0.000000
      0.000000       0.500000       0.000000
      0.083333       0.416667       0.000000
      0.166667       0.416667       0.000000
      0.166667       0.500000       0.000000
      0.083333       0.500000       0.000000
      0.166667       0.333333       0.000000
      0.250000       0.333333       0.000000
      0.250000       0.416667       0.000000
      0.166667       0.416667       0.000000
      0.250000       0.333333       0.000000
      0.333333       0.333333       0.000000
      0.333333       0.416667       0.000000
      0.250000       0.416667       0.000000
      0.166667       0.416667       0.000000
      0.250000       0.416667       0.000000
      0.250000       0.500000       0.000000
      0.166667       0.500000       0.000000
      0.250000       0.416667       0.000000
      0.333333       0.416667       0.000000
      0.333333       0.500000       0.000000
      0.250000       0.500000       0.000000
      0.333333       0.333333       0.000000
      0.375000       0.333333       0.000000
      0.375000       0.375000       0.000000
      0.333333       0.375000       0.000000
      0.375000       0.333333       0.000000
      0.416667       0.333333       0.000000
      0.416667       0.375000       0.000000
      0.375000       0.375000       0.000000
      0.333333       0.375000       0.000000
      0.375000       0.375000       0.000000
      0.375000       0.416667       0.000000
      0.333333       0.416667       0.000000
      0.375000       0.375000       0.000000
      0.416667       0.375000       0.000000
      0.416667       0.416667       0.000000
      0.375000       0.416667       0.000000
      0.416667       0.333333       0.000000
      0.458333       0.333333       0.000000
      0.458333       0.375000       0.000000
      0.416667       0.375000       0.000000
      0.458333       0.333333       0.000000
      0.500000       0.333333       0.000000
      0.500000       0.375000       0.000000
      0.458333       0.375000       0.000000
      0.416667       0.375000       0.000000
      0.458333       0.375000       0.000000
      0.458333       0.416667       0.000000
      0.416667       0.416667       0.000000
      0.458333       0.375000       0.000000
      0.500000       0.375000       0.000000
      0.500000       0.416667       0.000000
      0.458333       0.416667       0.000000
      0.333333       0.416667       0.000000
      0.375000       0.416667       0.000000
      0.375000       0.458333       0.000000
      0.333333       0.458333       0.000000
      0.375000       0.416667       0.000000
      0.416667       0.416667       0.000000
      0.416667       0.458333       0.000000
      0.375000       0.458333       0.000000
      0.333333       0.458333       0.000000
      0.375000       0.458333       0.000000
      0.375000       0.500000       0.000000
      0.333333       0.500000       0.000000
      0.375000       0.458333       0.000000
      0.416667       0.458333       0.000000
      0.416667       0.500000       0.000000
      0.375000       0.500000       0.000000
      0.416667       0.416667       0.000000
      0.437500       0.416667       0.000000
      0.437500       0.437500       0.000000
      0.416667       0.437500       0.000000
      0.437500       0.416667       0.000000
      0.458333       0.416667       0.000000
      0.458333       0.437500       0.000000
      0.437500       0.437500       0.000000
      0.416667       0.437500       0.000000
      0.437500       0.437500       0.000000
      0.437500       0.458333       0.000000
      0.416667       0.458333       0.000000
      0.437500       0.437500       0.000000
      0.458333       0.437500       0.000000
      0.458333       0.458333       0.000000
      0.437500       0.458333       0.000000
      0.458333       0.416667       0.000000
      0.479167       0.416667       0.000000
      0.479167       0.437500       0.000000
      0.458333       0.437500       0.000000
      0.479167       0.416667       0.000000
      0.500000       0.416667       0.000000
      0.500000       0.437500       0.000000
      0.479167       0.437500       0.000000
      0.458333       0.437500       0.000000
      0.479167       0.437500       0.000000
      0.479167       0.458333       0.000000
      0.458333       0.458333       0.000000
      0.479167       0.437500       0.000000
      0.500000       0.437500       0.000000
      0.500000       0.458333       0.000000
      0.479167       0.458333       0.000000
      0.416667       0.458333       0.000000
      0.437500       0.458333       0.000000
      0.437500       0.479167       0.000000
      0.416667       0.479167       0.000000
      0.437500       0.458333       0.000000
      0.458333       0.458333       0.000000
      0.458333       0.479167       0.000000
      0.437500       0.479167       0.000000
      0.416667       0.479167       0.000000
      0.437500       0.479167       0.000000
      0.437500       0.500000       0.000000
      0.416667       0.500000       0.000000
[...]
POINT_DATA  1152
VECTORS U float 
      0.000000       0.000000       0.000000
      0.000000       0.000000       0.000000
      0.000096       0.000004       0.000000
      0.000096       0.000000       0.000000
      0.000000       0.000000       0.000000
      0.000000       0.000000       0.000000
      0.000097       0.000008       0.000000
      0.000096       0.000004       0.000000
      0.000096       0.000000       0.000000
      0.000096       0.000004       0.000000
      0.000181       0.000008       0.000000
      0.000180       0.000000       0.000000
      0.000096       0.000004       0.000000
      0.000097       0.000008       0.000000
      0.000183       0.000016       0.000000
      0.000181       0.000008       0.000000
      0.000000       0.000000       0.000000
      0.000000       0.000000       0.000000
      0.000097       0.000012       0.000000
      0.000097       0.000008       0.000000
      0.000000       0.000000       0.000000
      0.000000       0.000000       0.000000
      0.000096       0.000015       0.000000
      0.000097       0.000012       0.000000
      0.000097       0.000008       0.000000
      0.000097       0.000012       0.000000
      0.000186       0.000024       0.000000
      0.000183       0.000016       0.000000
      0.000097       0.000012       0.000000
      0.000096       0.000015       0.000000
      0.000188       0.000031       0.000000
      0.000186       0.000024       0.000000
      0.000000       0.000000       0.000000
      0.000000       0.000000       0.000000
      0.000095       0.000017       0.000000
      0.000096       0.000015       0.000000
      0.000000       0.000000       0.000000
      0.000000       0.000000       0.000000
      0.000094       0.000016       0.000000
      0.000095       0.000017       0.000000
      0.000096       0.000015       0.000000
      0.000095       0.000017       0.000000
      0.000190       0.000034       0.000000
      0.000188       0.000031       0.000000
      0.000095       0.000017       0.000000
      0.000094       0.000016       0.000000
      0.000191       0.000031       0.000000
      0.000190       0.000034       0.000000
      0.000180       0.000000       0.000000
      0.000181       0.000008       0.000000
      0.000253       0.000010       0.000000
      0.000251       0.000000       0.000000
      0.000181       0.000008       0.000000
      0.000183       0.000016       0.000000
      0.000258       0.000021       0.000000
      0.000253       0.000010       0.000000
      0.000251       0.000000       0.000000
      0.000253       0.000010       0.000000
      0.000307       0.000010       0.000000
      0.000304       0.000000       0.000000
      0.000253       0.000010       0.000000
      0.000258       0.000021       0.000000
      0.000318       0.000021       0.000000
      0.000307       0.000010       0.000000
      0.000183       0.000016       0.000000
      0.000186       0.000024       0.000000
      0.000267       0.000032       0.000000
      0.000258       0.000021       0.000000
      0.000186       0.000024       0.000000
      0.000188       0.000031       0.000000
      0.000276       0.000043       0.000000
      0.000267       0.000032       0.000000
      0.000258       0.000021       0.000000
      0.000267       0.000032       0.000000
      0.000334       0.000035       0.000000
      0.000318       0.000021       0.000000
      0.000267       0.000032       0.000000
      0.000276       0.000043       0.000000
      0.000356       0.000051       0.000000
      0.000334       0.000035       0.000000
      0.000188       0.000031       0.000000
      0.000190       0.000034       0.000000
      0.000283       0.000049       0.000000
      0.000276       0.000043       0.000000
      0.000190       0.000034       0.000000
      0.000191       0.000031       0.000000
      0.000290       0.000045       0.000000
      0.000283       0.000049       0.000000
      0.000276       0.000043       0.000000
      0.000283       0.000049       0.000000
      0.000376       0.000063       0.000000
      0.000356       0.000051       0.000000
      0.000283       0.000049       0.000000
      0.000290       0.000045       0.000000
      0.000394       0.000056       0.000000
      0.000376       0.000063       0.000000
      0.000304       0.000000       0.000000
      0.000307       0.000010       0.000000
      0.000341       0.000007       0.000000
      0.000336       0.000000       0.000000
      0.000307       0.000010       0.000000
      0.000318       0.000021       0.000000
      0.000355       0.000016       0.000000
      0.000341       0.000007       0.000000
      0.000336       0.000000       0.000000
      0.000341       0.000007       0.000000
      0.000350       0.000003       0.000000
      0.000345       0.000000       0.000000
      0.000341       0.000007       0.000000
      0.000355       0.000016       0.000000
      0.000365       0.000008       0.000000
      0.000350       0.000003       0.000000
      0.000318       0.000021       0.000000
      0.000334       0.000035       0.000000
      0.000381       0.000029       0.000000
      0.000355       0.000016       0.000000
      0.000334       0.000035       0.000000
      0.000356       0.000051       0.000000
      0.000418       0.000046       0.000000
      0.000381       0.000029       0.000000
      0.000355       0.000016       0.000000
      0.000381       0.000029       0.000000
      0.000393       0.000015       0.000000
      0.000365       0.000008       0.000000
      0.000381       0.000029       0.000000
      0.000418       0.000046       0.000000
      0.000438       0.000025       0.000000
      0.000393       0.000015       0.000000
      0.000356       0.000051       0.000000
      0.000366       0.000058       0.000000
      0.000406       0.000060       0.000000
      0.000390       0.000051       0.000000
      0.000366       0.000058       0.000000
      0.000376       0.000063       0.000000
      0.000422       0.000067       0.000000
      0.000406       0.000060       0.000000
      0.000390       0.000051       0.000000
      0.000406       0.000060       0.000000
      0.000442       0.000057       0.000000
      0.000418       0.000046       0.000000
      0.000406       0.000060       0.000000
      0.000422       0.000067       0.000000
      0.000467       0.000067       0.000000
      0.000442       0.000057       0.000000
      0.000376       0.000063       0.000000
      0.000385       0.000062       0.000000
      0.000436       0.000068       0.000000
      0.000422       0.000067       0.000000
      0.000385       0.000062       0.000000
      0.000394       0.000056       0.000000
      0.000449       0.000061       0.000000
      0.000436       0.000068       0.000000
      0.000422       0.000067       0.000000
      0.000436       0.000068       0.000000
      0.000490       0.000072       0.000000
      0.000467       0.000067       0.000000
      0.000436       0.000068       0.000000
      0.000449       0.000061       0.000000
      0.000510       0.000064       0.000000
      0.000490       0.000072       0.000000
      0.000418       0.000046       0.000000
      0.000442       0.000057       0.000000
      0.000466       0.000047       0.000000
      0.000436       0.000037       0.000000
      0.000442       0.000057       0.000000
      0.000467       0.000067       0.000000
      0.000504       0.000059       0.000000
      0.000466       0.000047       0.000000
      0.000436       0.000037       0.000000
      0.000466       0.000047       0.000000
      0.000471       0.000032       0.000000
      0.000438       0.000025       0.000000
      0.000466       0.000047       0.000000
      0.000504       0.000059       0.000000
      0.000515       0.000040       0.000000
      0.000471       0.000032       0.000000
      0.000467       0.000067       0.000000
      0.000479       0.000071       0.000000
      0.000503       0.000070       0.000000
      0.000487       0.000064       0.000000
      0.000479       0.000071       0.000000
      0.000490       0.000072       0.000000
      0.000518       0.000073       0.000000
      0.000503       0.000070       0.000000
      0.000487       0.000064       0.000000
      0.000503       0.000070       0.000000
      0.000525       0.000065       0.000000
      0.000504       0.000059       0.000000
      0.000503       0.000070       0.000000
      0.000518       0.000073       0.000000
      0.000546       0.000071       0.000000
      0.000525       0.000065       0.000000
      0.000490       0.000072       0.000000
      0.000500       0.000070       0.000000
      0.000532       0.000072       0.000000
      0.000518       0.000073       0.000000
      0.000500       0.000070       0.000000
      0.000510       0.000064       0.000000
      0.000545       0.000065       0.000000
      0.000532       0.000072       0.000000
      0.000518       0.000073       0.000000
      0.000532       0.000072       0.000000
      0.000566       0.000073       0.000000
      0.000546       0.000071       0.000000
      0.000532       0.000072       0.000000
      0.000545       0.000065       0.000000
      0.000584       0.000065       0.000000
      0.000566       0.000073       0.000000
      0.000504       0.000059       0.000000
      0.000525       0.000065       0.000000
      0.000540       0.000057       0.000000
      0.000514       0.000051       0.000000
      0.000525       0.000065       0.000000
      0.000546       0.000071       0.000000
      0.000571       0.000064       0.000000
      0.000540       0.000057       0.000000
      0.000514       0.000051       0.000000
      0.000540       0.000057       0.000000
      0.000544       0.000044       0.000000
      0.000515       0.000040       0.000000
      0.000540       0.000057       0.000000
      0.000571       0.000064       0.000000
      0.000579       0.000049       0.000000
      0.000544       0.000044       0.000000
      0.000546       0.000071       0.000000
      0.000557       0.000073       0.000000
      0.000573       0.000071       0.000000
      0.000560       0.000069       0.000000
      0.000557       0.000073       0.000000
      0.000566       0.000073       0.000000
      0.000585       0.000073       0.000000
      0.000573       0.000071       0.000000
      0.000560       0.000069       0.000000
      0.000573       0.000071       0.000000
      0.000587       0.000068       0.000000
      0.000571       0.000064       0.000000
      0.000573       0.000071       0.000000
      0.000585       0.000073       0.000000
      0.000604       0.000071       0.000000
      0.000587       0.000068       0.000000
      0.000566       0.000073       0.000000
      0.000575       0.000071       0.000000
      0.000596       0.000071       0.000000
      0.000585       0.000073       0.000000
      0.000575       0.000071       0.000000
      0.000584       0.000065       0.000000
      0.000607       0.000064       0.000000
      0.000596       0.000071       0.000000
      0.000585       0.000073       0.000000
      0.000596       0.000071       0.000000
      0.000620       0.000071       0.000000
      0.000604       0.000071       0.000000
      0.000596       0.000071       0.000000
      0.000607       0.000064       0.000000
      0.000633       0.000063       0.000000
      0.000620       0.000071       0.000000
      0.000571       0.000064       0.000000
      0.000587       0.000068       0.000000
      0.000598       0.000061       0.000000
      0.000578       0.000057       0.000000
      0.000587       0.000068       0.000000
      0.000604       0.000071       0.000000
      0.000622       0.000065       0.000000
      0.000598       0.000061       0.000000
      0.000578       0.000057       0.000000
      0.000598       0.000061       0.000000
      0.000601       0.000051       0.000000
      0.000579       0.000049       0.000000
      0.000598       0.000061       0.000000
      0.000622       0.000065       0.000000
      0.000628       0.000054       0.000000
      0.000601       0.000051       0.000000
      0.000604       0.000071       0.000000
      0.000620       0.000071       0.000000
      0.000647       0.000069       0.000000
      0.000622       0.000065       0.000000
      0.000620       0.000071       0.000000
      0.000633       0.000063       0.000000
      0.000669       0.000062       0.000000
      0.000647       0.000069       0.000000
      0.000622       0.000065       0.000000
      0.000647       0.000069       0.000000
      0.000665       0.000056       0.000000
      0.000628       0.000054       0.000000
      0.000647       0.000069       0.000000
      0.000669       0.000062       0.000000
      0.000750       0.000053       0.000000
      0.000665       0.000056       0.000000
      0.000000       0.000000       0.000000
      0.000000       0.000000       0.000000
      0.000095       0.000012       0.000000
      0.000094       0.000016       0.000000
      0.000000       0.000000       0.000000
      0.000000       0.000000       0.000000
      0.000097       0.000009       0.000000
      0.000095       0.000012       0.000000
      0.000094       0.000016       0.000000
      0.000095       0.000012       0.000000
      0.000195       0.000023       0.000000
      0.000191       0.000031       0.000000
      0.000095       0.000012       0.000000
      0.000097       0.000009       0.000000
      0.000200       0.000015       0.000000
      0.000195       0.000023       0.000000
      0.000000       0.000000       0.000000
      0.000000       0.000000       0.000000
      0.000100       0.000005       0.000000
      0.000097       0.000009       0.000000
      0.000000       0.000000       0.000000
      0.000000       0.000000       0.000000
      0.000103       0.000003       0.000000
      0.000100       0.000005       0.000000
      0.000097       0.000009       0.000000
      0.000100       0.000005       0.000000
      0.000207       0.000008       0.000000
      0.000200       0.000015       0.000000
      0.000100       0.000005       0.000000
      0.000103       0.000003       0.000000
      0.000213       0.000004       0.000000
      0.000207       0.000008       0.000000
      0.000000       0.000000       0.000000
      0.000000       0.000000       0.000000
      0.000105       0.000001       0.000000
      0.000103       0.000003       0.000000
      0.000000       0.000000       0.000000
      0.000000       0.000000       0.000000
      0.000106       0.000000       0.000000
      0.000105       0.000001       0.000000
      0.000103       0.000003       0.000000
      0.000105       0.000001       0.000000
      0.000217       0.000001       0.000000
      0.000213       0.000004       0.000000
      0.000105       0.000001       0.000000
      0.000106       0.000000       0.000000
      0.000219       0.000000       0.000000
      0.000217       0.000001       0.000000
      0.000191       0.000031       0.000000
      0.000195       0.000023       0.000000
      0.000300       0.000031       0.000000
      0.000290       0.000045       0.000000
      0.000195       0.000023       0.000000
      0.000200       0.000015       0.000000
      0.000312       0.000017       0.000000
      0.000300       0.000031       0.000000
      0.000290       0.000045       0.000000
      0.000300       0.000031       0.000000
      0.000414       0.000033       0.000000
      0.000394       0.000056       0.000000
      0.000300       0.000031       0.000000
      0.000312       0.000017       0.000000
      0.000435       0.000013       0.000000
      0.000414       0.000033       0.000000
      0.000200       0.000015       0.000000
      0.000207       0.000008       0.000000
      0.000324       0.000007       0.000000
      0.000312       0.000017       0.000000
      0.000207       0.000008       0.000000
      0.000213       0.000004       0.000000
      0.000333       0.000002       0.000000
      0.000324       0.000007       0.000000
      0.000312       0.000017       0.000000
      0.000324       0.000007       0.000000
      0.000452       0.000002       0.000000
      0.000435       0.000013       0.000000
      0.000324       0.000007       0.000000
      0.000333       0.000002       0.000000
      0.000462      -0.000001       0.000000
      0.000452       0.000002       0.000000
      0.000213       0.000004       0.000000
      0.000217       0.000001       0.000000
      0.000338       0.000000       0.000000
      0.000333       0.000002       0.000000
      0.000217       0.000001       0.000000
      0.000219       0.000000       0.000000
      0.000340       0.000000       0.000000
      0.000338       0.000000       0.000000
      0.000333       0.000002       0.000000
      0.000338       0.000000       0.000000
      0.000468      -0.000001       0.000000
      0.000462      -0.000001       0.000000
      0.000338       0.000000       0.000000
      0.000340       0.000000       0.000000
      0.000470       0.000000       0.000000
      0.000468      -0.000001       0.000000
      0.000435       0.000013       0.000000
      0.000452       0.000002       0.000000
      0.000595      -0.000004       0.000000
      0.000580       0.000003       0.000000
      0.000452       0.000002       0.000000
      0.000462      -0.000001       0.000000
      0.000603      -0.000005       0.000000
      0.000595      -0.000004       0.000000
      0.000580       0.000003       0.000000
      0.000595      -0.000004       0.000000
      0.000750      -0.000008       0.000000
      0.000750      -0.000005       0.000000
      0.000595      -0.000004       0.000000
      0.000603      -0.000005       0.000000
      0.000750      -0.000007       0.000000
      0.000750      -0.000008       0.000000
      0.000462      -0.000001       0.000000
      0.000468      -0.000001       0.000000
      0.000606      -0.000003       0.000000
      0.000603      -0.000005       0.000000
      0.000468      -0.000001       0.000000
      0.000470       0.000000       0.000000
      0.000608       0.000000       0.000000
      0.000606      -0.000003       0.000000
      0.000603      -0.000005       0.000000
      0.000606      -0.000003       0.000000
      0.000750      -0.000004       0.000000
      0.000750      -0.000007       0.000000
      0.000606      -0.000003       0.000000
      0.000608       0.000000       0.000000
      0.000750       0.000000       0.000000
      0.000750      -0.000004       0.000000
      0.000394       0.000056       0.000000
      0.000403       0.000046       0.000000
      0.000463       0.000046       0.000000
      0.000449       0.000061       0.000000
      0.000403       0.000046       0.000000
      0.000414       0.000033       0.000000
      0.000478       0.000030       0.000000
      0.000463       0.000046       0.000000
      0.000449       0.000061       0.000000
      0.000463       0.000046       0.000000
      0.000531       0.000042       0.000000
      0.000510       0.000064       0.000000
      0.000463       0.000046       0.000000
      0.000478       0.000030       0.000000
      0.000552       0.000023       0.000000
      0.000531       0.000042       0.000000
      0.000414       0.000033       0.000000
      0.000425       0.000022       0.000000
      0.000493       0.000017       0.000000
      0.000478       0.000030       0.000000
      0.000425       0.000022       0.000000
      0.000435       0.000013       0.000000
      0.000505       0.000008       0.000000
      0.000493       0.000017       0.000000
      0.000478       0.000030       0.000000
      0.000493       0.000017       0.000000
      0.000568       0.000010       0.000000