# vtk DataFile Version 2.0
time_10.vtk
ASCII
DATASET UNSTRUCTURED_GRID
POINTS  2748 float
      0.000000       0.000000       0.000000
      0.083333       0.000000       0.000000
      0.083333       0.083333       0.000000
      0.000000       0.083333       0.000000
      0.083333       0.000000       0.000000
      0.166667       0.000000       0.000000
      0.166667       0.083333       0.000000
      0.083333       0.083333       0.000000
      0.000000       0.083333       0.000000
      0.083333       0.083333       0.000000
      0.083333       0.166667       0.000000
      0.000000       0.166667       0.000000
      0.083333       0.083333       0.000000
      0.166667       0.083333       0.000000
      0.166667       0.166667       0.000000
      0.083333       0.166667       0.000000
      0.166667       0.000000       0.000000
      0.250000       0.000000       0.000000
      0.250000       0.083333       0.000000
      0.166667       0.083333       0.000000
      0.250000       0.000000       0.000000
      0.333333       0.000000       0.000000
      0.333333       0.083333       0.000000
      0.250000       0.083333       0.000000
      0.166667       0.083333       0.000000
      0.250000       0.083333       0.000000
      0.250000       0.166667       0.000000
      0.166667       0.166667       0.000000
      0.250000       0.083333       0.000000
      0.333333       0.083333       0.000000
      0.333333       0.166667       0.000000
      0.250000       0.166667       0.000000
      0.333333       0.000000       0.000000
      0.416667      -0.000000       0.000000
      0.416667       0.083333       0.000000
      0.333333       0.083333       0.000000
      0.416667      -0.000000       0.000000
      0.500000       0.000000       0.000000
      0.500000       0.083333       0.000000
      0.416667       0.083333       0.000000
      0.333333       0.083333       0.000000
      0.416667       0.083333       0.000000
      0.416667       0.166667       0.000000
      0.333333       0.166667       0.000000
      0.416667       0.083333       0.000000
      0.500000       0.083333       0.000000
      0.500000       0.166667       0.000000
      0.416667       0.166667       0.000000
      0.000000       0.166667       0.000000
      0.083333       0.166667       0.000000
      0.083333       0.250000       0.000000
      0.000000       0.250000       0.000000
      0.083333       0.166667       0.000000
      0.166667       0.166667       0.000000
      0.166667       0.250000       0.000000
      0.083333       0.250000       0.000000
      0.000000       0.250000       0.000000
      0.083333       0.250000       0.000000
      0.083333       0.333333       0.000000
      0.000000       0.333333       0.000000
      0.083333       0.250000       0.000000
      0.166667       0.250000       0.000000
      0.166667       0.333333       0.000000
      0.083333       0.333333       0.000000
      0.166667       0.166667       0.000000
      0.250000       0.166667       0.000000
      0.250000       0.250000       0.000000
      0.166667       0.250000       0.000000
      0.250000       0.166667       0.000000
      0.333333       0.166667       0.000000
      0.333333       0.250000       0.000000
      0.250000       0.250000       0.000000
      0.166667       0.250000       0.000000
      0.250000       0.250000       0.000000
      0.250000       0.333333       0.000000
      0.166667       0.333333       0.000000
      0.250000       0.250000       0.000000
      0.333333       0.250000       0.000000
      0.333333       0.333333       0.000000
      0.250000       0.333333       0.000000
      0.333333       0.166667       0.000000
      0.416667       0.166667       0.000000
      0.416667       0.250000       0.000000
      0.333333       0.250000       0.000000
      0.333333       0.250000       0.000000
      0.416667       0.250000       0.000000
      0.416667       0.333333       0.000000
      0.333333       0.333333       0.000000
      0.000000       0.333333       0.000000
      0.083333       0.333333       0.000000
      0.083333       0.416667       0.000000
     -0.000000       0.416667       0.000000
      0.083333       0.333333       0.000000
      0.166667       0.333333       0.000000
      0.166667       0.416667       0.000000
      0.083333       0.416667       0.000000
     -0.000000       0.416667       0.000000
      0.083333       0.416667       0.000000
      0.083333       0.500000       0.000000
      0.000000       0.500000       0.000000
      0.083333       0.416667       0.000000
      0.166667       0.416667       0.000000
      0.166667       0.500000       0.000000
      0.083333       0.500000       0.000000
      0.166667       0.333333       0.000000
      0.250000       0.333333       0.000000
      0.250000       0.416667       0.000000
      0.166667       0.416667       0.000000
      0.250000       0.333333       0.000000
      0.333333       0.333333       0.000000
      0.333333       0.416667       0.000000
      0.250000       0.416667       0.000000
      0.166667       0.416667       0.000000
      0.250000       0.416667       0.000000
      0.250000       0.500000       0.000000
      0.166667       0.500000       0.000000
      0.250000       0.416667       0.000000
      0.333333       0.416667       0.000000
      0.333333       0.500000       0.000000
      0.250000       0.500000       0.000000
      0.333333       0.333333       0.000000
      0.375000       0.333333       0.000000
      0.375000       0.375000       0.000000
      0.333333       0.375000       0.000000
      0.375000       0.333333       0.000000
      0.416667       0.333333       0.000000
      0.416667       0.375000       0.000000
      0.375000       0.375000       0.000000
      0.333333       0.375000       0.000000
      0.375000       0.375000       0.000000
      0.375000       0.416667       0.000000
      0.333333       0.416667       0.000000
      0.375000       0.375000       0.000000
      0.416667       0.375000       0.000000
      0.416667       0.416667       0.000000
      0.375000       0.416667       0.000000
      0.416667       0.333333       0.000000
      0.458333       0.333333       0.000000
      0.458333       0.375000       0.000000
      0.416667       0.375000       0.000000
      0.416667       0.375000       0.000000
      0.458333       0.375000       0.000000
      0.458333       0.416667       0.000000
      0.416667       0.416667       0.000000
      0.333333       0.416667       0.000000
      0.375000       0.416667       0.000000
      0.375000       0.458333       0.000000
      0.333333       0.458333       0.000000
      0.375000       0.416667       0.000000
      0.416667       0.416667       0.000000
      0.416667       0.458333       0.000000
      0.375000       0.458333       0.000000
      0.333333       0.458333       0.000000
      0.375000       0.458333       0.000000
      0.375000       0.500000       0.000000
      0.333333       0.500000       0.000000
      0.375000       0.458333       0.000000
      0.416667       0.458333       0.000000
      0.416667       0.500000       0.000000
      0.375000       0.500000       0.000000
      0.416667       0.416667       0.000000
      0.437500       0.416667       0.000000
      0.437500       0.437500       0.000000
      0.416667       0.437500       0.000000
      0.437500       0.416667       0.000000
      0.458333       0.416667       0.000000
      0.458333       0.437500       0.000000
      0.437500       0.437500       0.000000
      0.416667       0.437500       0.000000
      0.437500       0.437500       0.000000
      0.437500       0.458333       0.000000
      0.416667       0.458333       0.000000
      0.437500       0.437500       0.000000
      0.458333       0.437500       0.000000
      0.458333       0.458333       0.000000
      0.437500       0.458333       0.000000
      0.458333       0.416667       0.000000
      0.479167       0.416667       0.000000
      0.479167       0.437500       0.000000
      0.458333       0.437500       0.000000
      0.458333       0.437500       0.000000
      0.479167       0.437500       0.000000
      0.479167       0.458333       0.000000
      0.458333       0.458333       0.000000
      0.416667       0.458333       0.000000
      0.437500       0.458333       0.000000
      0.437500       0.479167       0.000000
      0.416667       0.479167       0.000000
      0.437500       0.458333       0.000000
      0.458333       0.458333       0.000000
      0.458333       0.479167       0.000000
      0.437500       0.479167       0.000000
      0.416667       0.479167       0.000000
      0.437500       0.479167       0.000000
      0.437500       0.500000       0.000000
      0.416667       0.500000       0.000000
      0.437500       0.479167       0.000000
      0.458333       0.479167       0.000000
      0.458333       0.500000       0.000000
      0.437500       0.500000       0.000000
      0.458333       0.458333       0.000000
      0.468750       0.458333       0.000000
      0.468750       0.468750       0.000000
      0.458333       0.468750       0.000000
      0.468750       0.458333       0.000000
      0.479167       0.458333       0.000000
      0.479167       0.468750       0.000000
      0.468750       0.468750       0.000000
      0.458333       0.468750       0.000000
      0.468750       0.468750       0.000000
      0.468750       0.479167       0.000000
      0.458333       0.479167       0.000000
      0.468750       0.468750       0.000000
      0.479167       0.468750       0.000000
      0.479167       0.479167       0.000000
      0.468750       0.479167       0.000000
      0.479167       0.458333       0.000000
      0.489583       0.458333       0.000000
      0.489583       0.468750       0.000000
      0.479167       0.468750       0.000000
[...]
POINT_DATA  2748
VECTORS U float 
      0.000000       0.000000       0.000000
      0.000000       0.000000       0.000000
      0.000065      -0.000001       0.000000
      0.000063       0.000000       0.000000
      0.000000       0.000000       0.000000
      0.000000       0.000000       0.000000
      0.000071      -0.000003       0.000000
      0.000065      -0.000001       0.000000
      0.000063       0.000000       0.000000
      0.000065      -0.000001       0.000000
      0.000123      -0.000005       0.000000
      0.000120       0.000000       0.000000
      0.000065      -0.000001       0.000000
      0.000071      -0.000003       0.000000
      0.000132      -0.000010       0.000000
      0.000123      -0.000005       0.000000
      0.000000       0.000000       0.000000
      0.000000       0.000000       0.000000
      0.000082      -0.000005       0.000000
      0.000071      -0.000003       0.000000
      0.000000       0.000000       0.000000
      0.000000       0.000000       0.000000
      0.000101      -0.000007       0.000000
      0.000082      -0.000005       0.000000
      0.000071      -0.000003       0.000000
      0.000082      -0.000005       0.000000
      0.000148      -0.000017       0.000000
      0.000132      -0.000010       0.000000
      0.000082      -0.000005       0.000000
      0.000101      -0.000007       0.000000
      0.000174      -0.000025       0.000000
      0.000148      -0.000017       0.000000
      0.000000       0.000000       0.000000
      0.000000       0.000000       0.000000
      0.000134      -0.000010       0.000000
      0.000101      -0.000007       0.000000
      0.000000       0.000000       0.000000
      0.000000       0.000000       0.000000
      0.000192      -0.000012       0.000000
      0.000134      -0.000010       0.000000
      0.000101      -0.000007       0.000000
      0.000134      -0.000010       0.000000
      0.000213      -0.000036       0.000000
      0.000174      -0.000025       0.000000
      0.000134      -0.000010       0.000000
      0.000192      -0.000012       0.000000
      0.000270      -0.000049       0.000000
      0.000213      -0.000036       0.000000
      0.000120       0.000000       0.000000
      0.000123      -0.000005       0.000000
      0.000171      -0.000009       0.000000
      0.000168       0.000000       0.000000
      0.000123      -0.000005       0.000000
      0.000132      -0.000010       0.000000
      0.000180      -0.000018       0.000000
      0.000171      -0.000009       0.000000
      0.000168       0.000000       0.000000
      0.000171      -0.000009       0.000000
      0.000208      -0.000012       0.000000
      0.000206       0.000000       0.000000
      0.000171      -0.000009       0.000000
      0.000180      -0.000018       0.000000
      0.000215      -0.000025       0.000000
      0.000208      -0.000012       0.000000
      0.000132      -0.000010       0.000000
      0.000148      -0.000017       0.000000
      0.000195      -0.000030       0.000000
      0.000180      -0.000018       0.000000
      0.000148      -0.000017       0.000000
      0.000174      -0.000025       0.000000
      0.000218      -0.000043       0.000000
      0.000195      -0.000030       0.000000
      0.000180      -0.000018       0.000000
      0.000195      -0.000030       0.000000
      0.000227      -0.000039       0.000000
      0.000215      -0.000025       0.000000
      0.000195      -0.000030       0.000000
      0.000218      -0.000043       0.000000
      0.000243      -0.000054       0.000000
      0.000227      -0.000039       0.000000
      0.000174      -0.000025       0.000000
      0.000213      -0.000036       0.000000
      0.000246      -0.000057       0.000000
      0.000218      -0.000043       0.000000
      0.000218      -0.000043       0.000000
      0.000246      -0.000057       0.000000
      0.000260      -0.000066       0.000000
      0.000243      -0.000054       0.000000
      0.000206       0.000000       0.000000
      0.000208      -0.000012       0.000000
      0.000236      -0.000015       0.000000
      0.000234       0.000000       0.000000
      0.000208      -0.000012       0.000000
      0.000215      -0.000025       0.000000
      0.000241      -0.000030       0.000000
      0.000236      -0.000015       0.000000
      0.000234       0.000000       0.000000
      0.000236      -0.000015       0.000000
      0.000255      -0.000016       0.000000
      0.000254       0.000000       0.000000
      0.000236      -0.000015       0.000000
      0.000241      -0.000030       0.000000
      0.000260      -0.000032       0.000000
      0.000255      -0.000016       0.000000
      0.000215      -0.000025       0.000000
      0.000227      -0.000039       0.000000
      0.000249      -0.000045       0.000000
      0.000241      -0.000030       0.000000
      0.000227      -0.000039       0.000000
      0.000243      -0.000054       0.000000
      0.000259      -0.000060       0.000000
      0.000249      -0.000045       0.000000
      0.000241      -0.000030       0.000000
      0.000249      -0.000045       0.000000
      0.000266      -0.000049       0.000000
      0.000260      -0.000032       0.000000
      0.000249      -0.000045       0.000000
      0.000259      -0.000060       0.000000
      0.000272      -0.000063       0.000000
      0.000266      -0.000049       0.000000
      0.000243      -0.000054       0.000000
      0.000251      -0.000060       0.000000
      0.000258      -0.000063       0.000000
      0.000251      -0.000057       0.000000
      0.000251      -0.000060       0.000000
      0.000260      -0.000066       0.000000
      0.000265      -0.000068       0.000000
      0.000258      -0.000063       0.000000
      0.000251      -0.000057       0.000000
      0.000258      -0.000063       0.000000
      0.000264      -0.000066       0.000000
      0.000259      -0.000060       0.000000
      0.000258      -0.000063       0.000000
      0.000265      -0.000068       0.000000
      0.000269      -0.000070       0.000000
      0.000264      -0.000066       0.000000
      0.000260      -0.000066       0.000000
      0.000268      -0.000069       0.000000
      0.000271      -0.000071       0.000000
      0.000265      -0.000068       0.000000
      0.000265      -0.000068       0.000000
      0.000271      -0.000071       0.000000
      0.000274      -0.000072       0.000000
      0.000269      -0.000070       0.000000
      0.000259      -0.000060       0.000000
      0.000264      -0.000066       0.000000
      0.000269      -0.000067       0.000000
      0.000265      -0.000062       0.000000
      0.000264      -0.000066       0.000000
      0.000269      -0.000070       0.000000
      0.000274      -0.000071       0.000000
      0.000269      -0.000067       0.000000
      0.000265      -0.000062       0.000000
      0.000269      -0.000067       0.000000
      0.000275      -0.000069       0.000000
      0.000272      -0.000063       0.000000
      0.000269      -0.000067       0.000000
      0.000274      -0.000071       0.000000
      0.000278      -0.000073       0.000000
      0.000275      -0.000069       0.000000
      0.000269      -0.000070       0.000000
      0.000272      -0.000071       0.000000
      0.000274      -0.000072       0.000000
      0.000271      -0.000071       0.000000
      0.000272      -0.000071       0.000000
      0.000274      -0.000072       0.000000
      0.000276      -0.000073       0.000000
      0.000274      -0.000072       0.000000
      0.000271      -0.000071       0.000000
      0.000274      -0.000072       0.000000
      0.000276      -0.000073       0.000000
      0.000274      -0.000071       0.000000
      0.000274      -0.000072       0.000000
      0.000276      -0.000073       0.000000
      0.000278      -0.000073       0.000000
      0.000276      -0.000073       0.000000
      0.000274      -0.000072       0.000000
      0.000277      -0.000072       0.000000
      0.000279      -0.000073       0.000000
      0.000276      -0.000073       0.000000
      0.000276      -0.000073       0.000000
      0.000279      -0.000073       0.000000
      0.000281      -0.000074       0.000000
      0.000278      -0.000073       0.000000
      0.000274      -0.000071       0.000000
      0.000276      -0.000073       0.000000
      0.000278      -0.000073       0.000000
      0.000276      -0.000072       0.000000
      0.000276      -0.000073       0.000000
      0.000278      -0.000073       0.000000
      0.000280      -0.000074       0.000000
      0.000278      -0.000073       0.000000
      0.000276      -0.000072       0.000000
      0.000278      -0.000073       0.000000
      0.000279      -0.000074       0.000000
      0.000278      -0.000073       0.000000
      0.000278      -0.000073       0.000000
      0.000280      -0.000074       0.000000
      0.000282      -0.000075       0.000000
      0.000279      -0.000074       0.000000
      0.000278      -0.000073       0.000000
      0.000279      -0.000074       0.000000
      0.000280      -0.000074       0.000000
      0.000279      -0.000074       0.000000
      0.000279      -0.000074       0.000000
      0.000281      -0.000074       0.000000
      0.000282      -0.000074       0.000000
      0.000280      -0.000074       0.000000
      0.000279      -0.000074       0.000000
      0.000280      -0.000074       0.000000
      0.000281      -0.000075       0.000000
      0.000280      -0.000074       0.000000
      0.000280      -0.000074       0.000000
      0.000282      -0.000074       0.000000
      0.000283      -0.000075       0.000000
      0.000281      -0.000075       0.000000
      0.000281      -0.000074       0.000000
      0.000283      -0.000073       0.000000
      0.000285      -0.000074       0.000000
      0.000282      -0.000074       0.000000
      0.000283      -0.000073       0.000000
      0.000287      -0.000072       0.000000
      0.000290      -0.000066       0.000000
      0.000285      -0.000074       0.000000
      0.000282      -0.000074       0.000000
      0.000285      -0.000074       0.000000
      0.000286      -0.000075       0.000000
      0.000283      -0.000075       0.000000
      0.000285      -0.000074       0.000000
      0.000290      -0.000066       0.000000
      0.000298      -0.000055       0.000000
      0.000286      -0.000075       0.000000
      0.000280      -0.000074       0.000000
      0.000281      -0.000075       0.000000
      0.000283      -0.000076       0.000000
      0.000281      -0.000075       0.000000
      0.000281      -0.000075       0.000000
      0.000283      -0.000075       0.000000
      0.000285      -0.000077       0.000000
      0.000283      -0.000076       0.000000
      0.000281      -0.000075       0.000000
      0.000283      -0.000076       0.000000
      0.000284      -0.000075       0.000000
      0.000282      -0.000075       0.000000
      0.000283      -0.000076       0.000000
      0.000285      -0.000077       0.000000
      0.000292      -0.000073       0.000000
      0.000284      -0.000075       0.000000
      0.000283      -0.000075       0.000000
      0.000286      -0.000075       0.000000
      0.000289      -0.000081       0.000000
      0.000285      -0.000077       0.000000
      0.000286      -0.000075       0.000000
      0.000298      -0.000055       0.000000
      0.000243       0.000076       0.000000
      0.000289      -0.000081       0.000000
      0.000285      -0.000077       0.000000
      0.000289      -0.000081       0.000000
      0.000362      -0.000062       0.000000
      0.000292      -0.000073       0.000000
      0.000289      -0.000081       0.000000
      0.000243       0.000076       0.000000
      0.010038       0.000919       0.000000
      0.000362      -0.000062       0.000000
      0.000279      -0.000073       0.000000
      0.000280      -0.000072       0.000000
      0.000281      -0.000073       0.000000
      0.000280      -0.000073       0.000000
      0.000280      -0.000072       0.000000
      0.000282      -0.000072       0.000000
      0.000284      -0.000072       0.000000
      0.000281      -0.000073       0.000000
      0.000280      -0.000073       0.000000
      0.000281      -0.000073       0.000000
      0.000283      -0.000073       0.000000
      0.000281      -0.000074       0.000000
      0.000281      -0.000073       0.000000
      0.000284      -0.000072       0.000000
      0.000287      -0.000072       0.000000
      0.000283      -0.000073       0.000000
      0.000271      -0.000071       0.000000
      0.000273      -0.000071       0.000000
      0.000275      -0.000071       0.000000
      0.000272      -0.000071       0.000000
      0.000273      -0.000071       0.000000
      0.000276      -0.000070       0.000000
      0.000278      -0.000071       0.000000
      0.000275      -0.000071       0.000000
      0.000272      -0.000071       0.000000
      0.000275      -0.000071       0.000000
      0.000277      -0.000072       0.000000
      0.000274      -0.000072       0.000000
      0.000277      -0.000072       0.000000
      0.000278      -0.000072       0.000000
      0.000279      -0.000072       0.000000
      0.000278      -0.000072       0.000000
      0.000278      -0.000072       0.000000
      0.000280      -0.000071       0.000000
      0.000281      -0.000071       0.000000
      0.000279      -0.000072       0.000000
      0.000278      -0.000072       0.000000
      0.000279      -0.000072       0.000000
      0.000280      -0.000072       0.000000
      0.000279      -0.000073       0.000000
      0.000279      -0.000072       0.000000
      0.000281      -0.000071       0.000000
      0.000282      -0.000072       0.000000
      0.000280      -0.000072       0.000000
      0.000275      -0.000071       0.000000
      0.000276      -0.000071       0.000000
      0.000277      -0.000071       0.000000
      0.000276      -0.000072       0.000000
      0.000276      -0.000071       0.000000
      0.000278      -0.000071       0.000000
      0.000279      -0.000071       0.000000
      0.000277      -0.000071       0.000000
      0.000276      -0.000072       0.000000
      0.000277      -0.000071       0.000000
      0.000278      -0.000072       0.000000
      0.000277      -0.000072       0.000000
      0.000277      -0.000071       0.000000
      0.000279      -0.000071       0.000000
      0.000280      -0.000071       0.000000
      0.000278      -0.000072       0.000000
      0.000246      -0.000057       0.000000
      0.000262      -0.000063       0.000000
      0.000265      -0.000067       0.000000
      0.000254      -0.000062       0.000000
      0.000262      -0.000063       0.000000
      0.000278      -0.000067       0.000000
      0.000276      -0.000070       0.000000
      0.000265      -0.000067       0.000000
      0.000254      -0.000062       0.000000
      0.000265      -0.000067       0.000000
      0.000268      -0.000069       0.000000
      0.000260      -0.000066       0.000000
      0.000268      -0.000069       0.000000
      0.000271      -0.000070       0.000000
      0.000272      -0.000071       0.000000
      0.000269      -0.000070       0.000000
      0.000271      -0.000070       0.000000
      0.000275      -0.000070       0.000000
      0.000275      -0.000070       0.000000
      0.000272      -0.000071       0.000000
      0.000269      -0.000070       0.000000
      0.000272      -0.000071       0.000000
      0.000273      -0.000071       0.000000
      0.000271      -0.000071       0.000000
      0.000272      -0.000071       0.000000
      0.000275      -0.000070       0.000000
      0.000276      -0.000070       0.000000
      0.000273      -0.000071       0.000000
      0.000265      -0.000067       0.000000
      0.000271      -0.000069       0.000000
      0.000271      -0.000070       0.000000
      0.000267      -0.000069       0.000000
      0.000271      -0.000069       0.000000
      0.000276      -0.000070       0.000000
      0.000275      -0.000070       0.000000
      0.000271      -0.000070       0.000000
      0.000267      -0.000069       0.000000
      0.000271      -0.000070       0.000000
      0.000271      -0.000070       0.000000
      0.000268      -0.000069       0.000000
      0.000271      -0.000070       0.000000
      0.000275      -0.000070       0.000000
      0.000275      -0.000070       0.000000
      0.000271      -0.000070       0.000000
      0.000213      -0.000036       0.000000
      0.000239      -0.000043       0.000000
      0.000255      -0.000055       0.000000
      0.000234      -0.000048       0.000000
      0.000239      -0.000043       0.000000
      0.000270      -0.000049       0.000000
      0.000278      -0.000061       0.000000
      0.000255      -0.000055       0.000000
      0.000234      -0.000048       0.000000
      0.000255      -0.000055       0.000000
      0.000262      -0.000063       0.000000
      0.000246      -0.000057       0.000000
      0.000255      -0.000055       0.000000
      0.000278      -0.000061       0.000000
      0.000278      -0.000067       0.000000
      0.000262      -0.000063       0.000000
      0.000000       0.000000       0.000000
      0.000000       0.000000       0.000000
      0.000297      -0.000001       0.000000
      0.000192      -0.000012       0.000000
      0.000000       0.000000       0.000000
      0.000000       0.000000       0.000000
      0.000484       0.000091       0.000000
      0.000297      -0.000001       0.000000
      0.000192      -0.000012       0.000000
      0.000297      -0.000001       0.000000
      0.000349      -0.000049       0.000000
      0.000270      -0.000049       0.000000
      0.000000       0.000000       0.000000
      0.000000       0.000000       0.000000
      0.000989       0.000062       0.000000
      0.000845       0.000227       0.000000
      0.000000       0.000000       0.000000
      0.000000       0.000000       0.000000
      0.001039       0.000000       0.000000
      0.000989       0.000062       0.000000
      0.000845       0.000227       0.000000
      0.000989       0.000062       0.000000
      0.002529       0.000082       0.000000
      0.002453       0.000308       0.000000
      0.000989       0.000062       0.000000
      0.001039       0.000000       0.000000
      0.002552       0.000000       0.000000
      0.002529       0.000082       0.000000
      0.002453       0.000308       0.000000
      0.002529       0.000082       0.000000
      0.004439       0.000151       0.000000
      0.004578       0.000479       0.000000
      0.002529       0.000082       0.000000
      0.002552       0.000000       0.000000
      0.004398       0.000000       0.000000
      0.004439       0.000151       0.000000
      0.004578       0.000479       0.000000
      0.004439       0.000151       0.000000
      0.006177       0.000230       0.000000
      0.006317       0.000593       0.000000
      0.004439       0.000151       0.000000
      0.004398       0.000000       0.000000
      0.006126       0.000000       0.000000
      0.006177       0.000230       0.000000
      0.006469       0.001181       0.000000
      0.006317       0.000593       0.000000
      0.007718       0.000620       0.000000
      0.007842       0.001058       0.000000
      0.007934       0.001484       0.000000
      0.007842       0.001058       0.000000
      0.008951       0.000941       0.000000
      0.009075       0.001244       0.000000
      0.007842       0.001058       0.000000
      0.007718       0.000620       0.000000
      0.008845       0.000598       0.000000
      0.008951       0.000941       0.000000
      0.006317       0.000593       0.000000
      0.006177       0.000230       0.000000
      0.007609       0.000273       0.000000