# vtk DataFile Version 2.0
time_10.vtk
ASCII
DATASET UNSTRUCTURED_GRID
POINTS  1284 float
      0.000000       0.000000       0.000000
      0.083333       0.000000       0.000000
      0.083333       0.083333       0.000000
      0.000000       0.083333       0.000000
      0.083333       0.000000       0.000000
      0.166667       0.000000       0.000000
      0.166667       0.083333       0.000000
      0.083333       0.083333       0.000000
      0.000000       0.083333       0.000000
      0.083333       0.083333       0.000000
      0.083333       0.166667       0.000000
      0.000000       0.166667       0.000000
      0.083333       0.083333       0.000000
      0.166667       0.083333       0.000000
      0.166667       0.166667       0.000000
      0.083333       0.166667       0.000000
      0.166667       0.000000       0.000000
      0.250000       0.000000       0.000000
      0.250000       0.083333       0.000000
      0.166667       0.083333       0.000000
      0.250000       0.000000       0.000000
      0.333333       0.000000       0.000000
      0.333333       0.083333       0.000000
      0.250000       0.083333       0.000000
      0.166667       0.083333       0.000000
      0.250000       0.083333       0.000000
      0.250000       0.166667       0.000000
      0.166667       0.166667       0.000000
      0.250000       0.083333       0.000000
      0.333333       0.083333       0.000000
      0.333333       0.166667       0.000000
      0.250000       0.166667       0.000000
      0.333333       0.000000       0.000000
      0.416667      -0.000000       0.000000
      0.416667       0.083333       0.000000
      0.333333       0.083333       0.000000
      0.416667      -0.000000       0.000000
      0.500000       0.000000       0.000000
      0.500000       0.083333       0.000000
      0.416667       0.083333       0.000000
      0.333333       0.083333       0.000000
      0.416667       0.083333       0.000000
      0.416667       0.166667       0.000000
      0.333333       0.166667       0.000000
      0.416667       0.083333       0.000000
      0.500000       0.083333       0.000000
      0.500000       0.166667       0.000000
      0.416667       0.166667       0.000000
      0.000000       0.166667       0.000000
      0.083333       0.166667       0.000000
      0.083333       0.250000       0.000000
      0.000000       0.250000       0.000000
      0.083333       0.166667       0.000000
      0.166667       0.166667       0.000000
      0.166667       0.250000       0.000000
      0.083333       0.250000       0.000000
      0.000000       0.250000       0.000000
      0.083333       0.250000       0.000000
      0.083333       0.333333       0.000000
      0.000000       0.333333       0.000000
      0.083333       0.250000       0.000000
      0.166667       0.250000       0.000000
      0.166667       0.333333       0.000000
      0.083333       0.333333       0.000000
      0.166667       0.166667       0.000000
      0.250000       0.166667       0.000000
      0.250000       0.250000       0.000000
      0.166667       0.250000       0.000000
      0.250000       0.166667       0.000000
      0.333333       0.166667       0.000000
      0.333333       0.250000       0.000000
      0.250000       0.250000       0.000000
      0.166667       0.250000       0.000000
      0.250000       0.250000       0.000000
      0.250000       0.333333       0.000000
      0.166667       0.333333       0.000000
      0.250000       0.250000       0.000000
      0.333333       0.250000       0.000000
      0.333333       0.333333       0.000000
      0.250000       0.333333       0.000000
      0.333333       0.166667       0.000000
      0.416667       0.166667       0.000000
      0.416667       0.250000       0.000000
      0.333333       0.250000       0.000000
      0.416667       0.166667       0.000000
      0.500000       0.166667       0.000000
      0.500000       0.250000       0.000000
      0.416667       0.250000       0.000000
      0.333333       0.250000       0.000000
      0.416667       0.250000       0.000000
      0.416667       0.333333       0.000000
      0.333333       0.333333       0.000000
      0.416667       0.250000       0.000000
      0.500000       0.250000       0.000000
      0.500000       0.333333       0.000000
      0.416667       0.333333       0.000000
      0.000000       0.333333       0.000000
      0.083333       0.333333       0.000000
      0.083333       0.416667       0.000000
     -0.000000       0.416667       0.000000
      0.083333       0.333333       0.000000
      0.166667       0.333333       0.000000
      0.166667       0.416667       0.000000
      0.083333       0.416667       0.000000
     -0.000000       0.416667       0.000000
      0.083333       0.416667       0.000000
      0.083333       0.500000       0.000000
      0.000000       0.500000       0.000000
      0.083333       0.416667       0.000000
      0.166667       0.416667       0.000000
      0.166667       0.500000       0.000000
      0.083333       0.500000       0.000000
      0.166667       0.333333       0.000000
      0.250000       0.333333       0.000000
      0.250000       0.416667       0.000000
      0.166667       0.416667       0.000000
      0.250000       0.333333       0.000000
      0.333333       0.333333       0.000000
      0.333333       0.416667       0.000000
      0.250000       0.416667       0.000000
      0.166667       0.416667       0.000000
      0.250000       0.416667       0.000000
      0.250000       0.500000       0.000000
      0.166667       0.500000       0.000000
      0.250000       0.416667       0.000000
      0.333333       0.416667       0.000000
      0.333333       0.500000       0.000000
      0.250000       0.500000       0.000000
      0.333333       0.333333       0.000000
      0.375000       0.333333       0.000000
      0.375000       0.375000       0.000000
      0.333333       0.375000       0.000000
      0.375000       0.333333       0.000000
      0.416667       0.333333       0.000000
      0.416667       0.375000       0.000000
      0.375000       0.375000       0.000000
      0.333333       0.375000       0.000000
      0.375000       0.375000       0.000000
      0.375000       0.416667       0.000000
      0.333333       0.416667       0.000000
      0.375000       0.375000       0.000000
      0.416667       0.375000       0.000000
      0.416667       0.416667       0.000000
      0.375000       0.416667       0.000000
      0.416667       0.333333       0.000000
      0.458333       0.333333       0.000000
      0.458333       0.375000       0.000000
      0.416667       0.375000       0.000000
      0.458333       0.333333       0.000000
      0.500000       0.333333       0.000000
      0.500000       0.375000       0.000000
      0.458333       0.375000       0.000000
      0.416667       0.375000       0.000000
      0.458333       0.375000       0.000000
      0.458333       0.416667       0.000000
      0.416667       0.416667       0.000000
      0.333333       0.416667       0.000000
      0.375000       0.416667       0.000000
      0.375000       0.458333       0.000000
      0.333333       0.458333       0.000000
      0.375000       0.416667       0.000000
      0.416667       0.416667       0.000000
      0.416667       0.458333       0.000000
      0.375000       0.458333       0.000000
      0.333333       0.458333       0.000000
      0.375000       0.458333       0.000000
      0.375000       0.500000       0.000000
      0.333333       0.500000       0.000000
      0.375000       0.458333       0.000000
      0.416667       0.458333       0.000000
      0.416667       0.500000       0.000000
      0.375000       0.500000       0.000000
      0.416667       0.416667       0.000000
      0.437500       0.416667       0.000000
      0.437500       0.437500       0.000000
      0.416667       0.437500       0.000000
      0.437500       0.416667       0.000000
      0.458333       0.416667       0.000000
      0.458333       0.437500       0.000000
      0.437500       0.437500       0.000000
      0.416667       0.437500       0.000000
      0.437500       0.437500       0.000000
      0.437500       0.458333       0.000000
      0.416667       0.458333       0.000000
      0.437500       0.437500       0.000000
      0.458333       0.437500       0.000000
      0.458333       0.458333       0.000000
      0.437500       0.458333       0.000000
      0.458333       0.416667       0.000000
      0.479167       0.416667       0.000000
      0.479167       0.437500       0.000000
      0.458333       0.437500       0.000000
      0.458333       0.437500       0.000000
      0.479167       0.437500       0.000000
      0.479167       0.458333       0.000000
      0.458333       0.458333       0.000000
      0.416667       0.458333       0.000000
      0.437500       0.458333       0.000000
      0.437500       0.479167       0.000000
      0.416667       0.479167       0.000000
      0.437500       0.458333       0.000000
      0.458333       0.458333       0.000000
      0.458333       0.479167       0.000000
      0.437500       0.479167       0.000000
      0.416667       0.479167       0.000000
      0.437500       0.479167       0.000000
      0.437500       0.500000       0.000000
      0.416667       0.500000       0.000000
      0.437500       0.479167       0.000000
      0.458333       0.479167       0.000000
      0.458333       0.500000       0.000000
      0.437500       0.500000       0.000000
      0.458333       0.458333       0.000000
      0.468750       0.458333       0.000000
      0.468750       0.468750       0.000000
      0.458333       0.468750       0.000000
      0.468750       0.458333       0.000000
      0.479167       0.458333       0.000000
      0.479167       0.468750       0.000000
      0.468750       0.468750       0.000000
[...]
POINT_DATA  1284
VECTORS U float 
      0.000000       0.000000       0.000000
      0.000000       0.000000       0.000000
      0.000479       0.000013       0.000000
      0.000473       0.000000       0.000000
      0.000000       0.000000       0.000000
      0.000000       0.000000       0.000000
      0.000497       0.000030       0.000000
      0.000479       0.000013       0.000000
      0.000473       0.000000       0.000000
      0.000479       0.000013       0.000000
      0.000890       0.000018       0.000000
      0.000878       0.000000       0.000000
      0.000479       0.000013       0.000000
      0.000497       0.000030       0.000000
      0.000924       0.000042       0.000000
      0.000890       0.000018       0.000000
      0.000000       0.000000       0.000000
      0.000000       0.000000       0.000000
      0.000522       0.000052       0.000000
      0.000497       0.000030       0.000000
      0.000000       0.000000       0.000000
      0.000000       0.000000       0.000000
      0.000549       0.000081       0.000000
      0.000522       0.000052       0.000000
      0.000497       0.000030       0.000000
      0.000522       0.000052       0.000000
      0.000976       0.000080       0.000000
      0.000924       0.000042       0.000000
      0.000522       0.000052       0.000000
      0.000549       0.000081       0.000000
      0.001039       0.000139       0.000000
      0.000976       0.000080       0.000000
      0.000000       0.000000       0.000000
      0.000000       0.000000       0.000000
      0.000566       0.000113       0.000000
      0.000549       0.000081       0.000000
      0.000000       0.000000       0.000000
      0.000000       0.000000       0.000000
      0.000569       0.000136       0.000000
      0.000566       0.000113       0.000000
      0.000549       0.000081       0.000000
      0.000566       0.000113       0.000000
      0.001096       0.000213       0.000000
      0.001039       0.000139       0.000000
      0.000566       0.000113       0.000000
      0.000569       0.000136       0.000000
      0.001130       0.000272       0.000000
      0.001096       0.000213       0.000000
      0.000878       0.000000       0.000000
      0.000890       0.000018       0.000000
      0.001218       0.000014       0.000000
      0.001202       0.000000       0.000000
      0.000890       0.000018       0.000000
      0.000924       0.000042       0.000000
      0.001266       0.000036       0.000000
      0.001218       0.000014       0.000000
      0.001202       0.000000       0.000000
      0.001218       0.000014       0.000000
      0.001454       0.000002       0.000000
      0.001436       0.000000       0.000000
      0.001218       0.000014       0.000000
      0.001266       0.000036       0.000000
      0.001509       0.000014       0.000000
      0.001454       0.000002       0.000000
      0.000924       0.000042       0.000000
      0.000976       0.000080       0.000000
      0.001346       0.000079       0.000000
      0.001266       0.000036       0.000000
      0.000976       0.000080       0.000000
      0.001039       0.000139       0.000000
      0.001457       0.000157       0.000000
      0.001346       0.000079       0.000000
      0.001266       0.000036       0.000000
      0.001346       0.000079       0.000000
      0.001606       0.000045       0.000000
      0.001509       0.000014       0.000000
      0.001346       0.000079       0.000000
      0.001457       0.000157       0.000000
      0.001756       0.000118       0.000000
      0.001606       0.000045       0.000000
      0.001039       0.000139       0.000000
      0.001096       0.000213       0.000000
      0.001583       0.000278       0.000000
      0.001457       0.000157       0.000000
      0.001096       0.000213       0.000000
      0.001130       0.000272       0.000000
      0.001685       0.000400       0.000000
      0.001583       0.000278       0.000000
      0.001457       0.000157       0.000000
      0.001583       0.000278       0.000000
      0.001973       0.000269       0.000000
      0.001756       0.000118       0.000000
      0.001583       0.000278       0.000000
      0.001685       0.000400       0.000000
      0.002224       0.000508       0.000000
      0.001973       0.000269       0.000000
      0.001436       0.000000       0.000000
      0.001454       0.000002       0.000000
      0.001596      -0.000012       0.000000
      0.001580       0.000000       0.000000
      0.001454       0.000002       0.000000
      0.001509       0.000014       0.000000
      0.001648      -0.000017       0.000000
      0.001596      -0.000012       0.000000
      0.001580       0.000000       0.000000
      0.001596      -0.000012       0.000000
      0.001656      -0.000025       0.000000
      0.001642       0.000000       0.000000
      0.001596      -0.000012       0.000000
      0.001648      -0.000017       0.000000
      0.001697      -0.000044       0.000000
      0.001656      -0.000025       0.000000
      0.001509       0.000014       0.000000
      0.001606       0.000045       0.000000
      0.001738      -0.000005       0.000000
      0.001648      -0.000017       0.000000
      0.001606       0.000045       0.000000
      0.001756       0.000118       0.000000
      0.001877       0.000037       0.000000
      0.001738      -0.000005       0.000000
      0.001648      -0.000017       0.000000
      0.001738      -0.000005       0.000000
      0.001765      -0.000047       0.000000
      0.001697      -0.000044       0.000000
      0.001738      -0.000005       0.000000
      0.001877       0.000037       0.000000
      0.001853      -0.000023       0.000000
      0.001765      -0.000047       0.000000
      0.001756       0.000118       0.000000
      0.001856       0.000180       0.000000
      0.001948       0.000134       0.000000
      0.001841       0.000079       0.000000
      0.001856       0.000180       0.000000
      0.001973       0.000269       0.000000
      0.002085       0.000220       0.000000
      0.001948       0.000134       0.000000
      0.001841       0.000079       0.000000
      0.001948       0.000134       0.000000
      0.001974       0.000080       0.000000
      0.001877       0.000037       0.000000
      0.001948       0.000134       0.000000
      0.002085       0.000220       0.000000
      0.002099       0.000150       0.000000
      0.001974       0.000080       0.000000
      0.001973       0.000269       0.000000
      0.002103       0.000387       0.000000
      0.002258       0.000354       0.000000
      0.002085       0.000220       0.000000
      0.002103       0.000387       0.000000
      0.002224       0.000508       0.000000
      0.002460       0.000540       0.000000
      0.002258       0.000354       0.000000
      0.002085       0.000220       0.000000
      0.002258       0.000354       0.000000
      0.002275       0.000270       0.000000
      0.002099       0.000150       0.000000
      0.001877       0.000037       0.000000
      0.001974       0.000080       0.000000
      0.001945       0.000035       0.000000
      0.001874       0.000002       0.000000
      0.001974       0.000080       0.000000
      0.002099       0.000150       0.000000
      0.002025       0.000092       0.000000
      0.001945       0.000035       0.000000
      0.001874       0.000002       0.000000
      0.001945       0.000035       0.000000
      0.001897       0.000010       0.000000
      0.001853      -0.000023       0.000000
      0.001945       0.000035       0.000000
      0.002025       0.000092       0.000000
      0.001930       0.000068       0.000000
      0.001897       0.000010       0.000000
      0.002099       0.000150       0.000000
      0.002178       0.000201       0.000000
      0.002134       0.000163       0.000000
      0.002070       0.000117       0.000000
      0.002178       0.000201       0.000000
      0.002275       0.000270       0.000000
      0.002210       0.000225       0.000000
      0.002134       0.000163       0.000000
      0.002070       0.000117       0.000000
      0.002134       0.000163       0.000000
      0.002069       0.000136       0.000000
      0.002025       0.000092       0.000000
      0.002134       0.000163       0.000000
      0.002210       0.000225       0.000000
      0.002116       0.000195       0.000000
      0.002069       0.000136       0.000000
      0.002275       0.000270       0.000000
      0.002400       0.000366       0.000000
      0.002310       0.000310       0.000000
      0.002210       0.000225       0.000000
      0.002210       0.000225       0.000000
      0.002310       0.000310       0.000000
      0.002169       0.000276       0.000000
      0.002116       0.000195       0.000000
      0.002025       0.000092       0.000000
      0.002069       0.000136       0.000000
      0.002000       0.000121       0.000000
      0.001975       0.000077       0.000000
      0.002069       0.000136       0.000000
      0.002116       0.000195       0.000000
      0.002023       0.000182       0.000000
      0.002000       0.000121       0.000000
      0.001975       0.000077       0.000000
      0.002000       0.000121       0.000000
      0.001940       0.000114       0.000000
      0.001930       0.000068       0.000000
      0.002000       0.000121       0.000000
      0.002023       0.000182       0.000000
      0.001945       0.000178       0.000000
      0.001940       0.000114       0.000000
      0.002116       0.000195       0.000000
      0.002142       0.000232       0.000000
      0.002085       0.000225       0.000000
      0.002068       0.000187       0.000000
      0.002142       0.000232       0.000000
      0.002169       0.000276       0.000000
      0.002102       0.000269       0.000000
      0.002085       0.000225       0.000000
      0.002068       0.000187       0.000000
      0.002085       0.000225       0.000000
      0.002033       0.000220       0.000000
      0.002023       0.000182       0.000000
      0.002085       0.000225       0.000000
      0.002102       0.000269       0.000000
      0.002043       0.000265       0.000000
      0.002033       0.000220       0.000000
      0.002169       0.000276       0.000000
      0.002200       0.000328       0.000000
      0.002120       0.000322       0.000000
      0.002102       0.000269       0.000000
      0.002200       0.000328       0.000000
      0.002238       0.000391       0.000000
      0.002147       0.000392       0.000000
      0.002120       0.000322       0.000000
      0.002102       0.000269       0.000000
      0.002120       0.000322       0.000000
      0.002054       0.000317       0.000000
      0.002043       0.000265       0.000000
      0.002120       0.000322       0.000000
      0.002147       0.000392       0.000000
      0.002069       0.000394       0.000000
      0.002054       0.000317       0.000000
      0.002023       0.000182       0.000000
      0.002033       0.000220       0.000000
      0.001988       0.000218       0.000000
      0.001982       0.000179       0.000000
      0.002033       0.000220       0.000000
      0.002043       0.000265       0.000000
      0.001994       0.000261       0.000000
      0.001988       0.000218       0.000000
      0.001982       0.000179       0.000000
      0.001988       0.000218       0.000000
      0.001947       0.000217       0.000000
      0.001945       0.000178       0.000000
      0.001988       0.000218       0.000000
      0.001994       0.000261       0.000000
      0.001953       0.000263       0.000000
      0.001947       0.000217       0.000000
      0.002043       0.000265       0.000000
      0.002054       0.000317       0.000000
      0.002001       0.000307       0.000000
      0.001994       0.000261       0.000000
      0.002054       0.000317       0.000000
      0.002069       0.000394       0.000000
      0.001828       0.000322       0.000000
      0.002001       0.000307       0.000000
      0.001994       0.000261       0.000000
      0.002001       0.000307       0.000000
      0.001991       0.000318       0.000000
      0.001953       0.000263       0.000000
      0.002001       0.000307       0.000000
      0.001828       0.000322       0.000000
      0.006968       0.000585       0.000000
      0.001991       0.000318       0.000000
      0.002310       0.000310       0.000000
      0.002377       0.000366       0.000000
      0.002291       0.000341       0.000000
      0.002242       0.000289       0.000000
      0.002377       0.000366       0.000000
      0.002471       0.000436       0.000000
      0.002358       0.000405       0.000000
      0.002291       0.000341       0.000000
      0.002242       0.000289       0.000000
      0.002291       0.000341       0.000000
      0.002200       0.000328       0.000000
      0.002169       0.000276       0.000000
      0.002291       0.000341       0.000000
      0.002358       0.000405       0.000000
      0.002238       0.000391       0.000000
      0.002200       0.000328       0.000000
      0.002258       0.000354       0.000000
      0.002358       0.000443       0.000000
      0.002409       0.000415       0.000000
      0.002290       0.000317       0.000000
      0.002358       0.000443       0.000000
      0.002460       0.000540       0.000000
      0.002546       0.000537       0.000000
      0.002409       0.000415       0.000000
      0.002290       0.000317       0.000000
      0.002409       0.000415       0.000000
      0.002400       0.000366       0.000000
      0.002275       0.000270       0.000000
      0.002409       0.000415       0.000000
      0.002546       0.000537       0.000000
      0.002575       0.000505       0.000000
      0.002400       0.000366       0.000000
      0.002400       0.000366       0.000000
      0.002479       0.000429       0.000000
      0.002443       0.000397       0.000000
      0.002365       0.000337       0.000000
      0.002479       0.000429       0.000000
      0.002575       0.000505       0.000000
      0.002545       0.000474       0.000000
      0.002443       0.000397       0.000000
      0.002365       0.000337       0.000000
      0.002443       0.000397       0.000000
      0.002377       0.000366       0.000000
      0.002310       0.000310       0.000000
      0.002443       0.000397       0.000000
      0.002545       0.000474       0.000000
      0.002471       0.000436       0.000000
      0.002377       0.000366       0.000000
      0.000000       0.000000       0.000000
      0.000000       0.000000       0.000000
      0.000563       0.000135       0.000000
      0.000569       0.000136       0.000000
      0.000000       0.000000       0.000000
      0.000000       0.000000       0.000000
      0.000564       0.000108       0.000000
      0.000563       0.000135       0.000000
      0.000569       0.000136       0.000000
      0.000563       0.000135       0.000000
      0.001148       0.000269       0.000000
      0.001130       0.000272       0.000000
      0.000563       0.000135       0.000000
      0.000564       0.000108       0.000000
      0.001179       0.000203       0.000000
      0.001148       0.000269       0.000000
      0.000000       0.000000       0.000000
      0.000000       0.000000       0.000000
      0.000579       0.000072       0.000000
      0.000564       0.000108       0.000000
      0.000000       0.000000       0.000000
      0.000000       0.000000       0.000000
      0.000601       0.000041       0.000000
      0.000579       0.000072       0.000000
      0.000564       0.000108       0.000000
      0.000579       0.000072       0.000000
      0.001231       0.000123       0.000000
      0.001179       0.000203       0.000000
      0.000579       0.000072       0.000000
      0.000601       0.000041       0.000000
      0.001285       0.000062       0.000000
      0.001231       0.000123       0.000000
      0.000000       0.000000       0.000000
      0.000000       0.000000       0.000000
      0.000620       0.000018       0.000000
      0.000601       0.000041       0.000000
      0.000000       0.000000       0.000000
      0.000000       0.000000       0.000000
      0.000627       0.000000       0.000000
      0.000620       0.000018       0.000000
      0.000601       0.000041       0.000000
      0.000620       0.000018       0.000000
      0.001324       0.000025       0.000000
      0.001285       0.000062       0.000000
      0.000620       0.000018       0.000000
      0.000627       0.000000       0.000000
      0.001338       0.000000       0.000000
      0.001324       0.000025       0.000000
      0.001130       0.000272       0.000000
      0.001148       0.000269       0.000000
      0.001758       0.000394       0.000000
      0.001685       0.000400       0.000000
      0.001148       0.000269       0.000000
      0.001179       0.000203       0.000000
      0.001857       0.000264       0.000000
      0.001758       0.000394       0.000000
      0.001685       0.000400       0.000000
      0.001758       0.000394       0.000000
      0.002423       0.000495       0.000000
      0.002224       0.000508       0.000000
      0.001758       0.000394       0.000000
      0.001857       0.000264       0.000000
      0.002672       0.000250       0.000000
      0.002423       0.000495       0.000000
      0.001179       0.000203       0.000000
      0.001231       0.000123       0.000000
      0.001976       0.000135       0.000000
      0.001857       0.000264       0.000000
      0.001231       0.000123       0.000000
      0.001285       0.000062       0.000000
      0.002074       0.000056       0.000000
      0.001976       0.000135       0.000000
      0.001857       0.000264       0.000000
      0.001976       0.000135       0.000000
      0.002878       0.000092       0.000000
      0.002672       0.000250       0.000000
      0.001976       0.000135       0.000000
      0.002074       0.000056       0.000000
      0.003008       0.000021       0.000000
      0.002878       0.000092       0.000000
      0.001285       0.000062       0.000000
      0.001324       0.000025       0.000000
      0.002136       0.000018       0.000000
      0.002074       0.000056       0.000000
      0.001324       0.000025       0.000000
      0.001338       0.000000       0.000000
      0.002156       0.000000       0.000000
      0.002136       0.000018       0.000000
      0.002074       0.000056       0.000000
      0.002136       0.000018       0.000000
      0.003078      -0.000000       0.000000
      0.003008       0.000021       0.000000
      0.002136       0.000018       0.000000
      0.002156       0.000000       0.000000
      0.003100       0.000000       0.000000
      0.003078      -0.000000       0.000000
      0.002672       0.000250       0.000000
      0.002878       0.000092       0.000000
      0.004031       0.000018       0.000000
      0.003864       0.000135       0.000000
      0.002878       0.000092       0.000000
      0.003008       0.000021       0.000000
      0.004111      -0.000019       0.000000
      0.004031       0.000018       0.000000
      0.003864       0.000135       0.000000
      0.004031       0.000018       0.000000
      0.005365       0.000009       0.000000
      0.005477       0.000115       0.000000
      0.004031       0.000018       0.000000
      0.004111      -0.000019       0.000000
      0.005313      -0.000023       0.000000
      0.005365       0.000009       0.000000
      0.003008       0.000021       0.000000
      0.003078      -0.000000       0.000000
      0.004149      -0.000018       0.000000
      0.004111      -0.000019       0.000000
      0.003078      -0.000000       0.000000
      0.003100       0.000000       0.000000
      0.004160       0.000000       0.000000