# vtk DataFile Version 2.0
time_10.vtk
ASCII
DATASET UNSTRUCTURED_GRID
POINTS  2976 float
      0.000000       0.000000       0.000000
      0.083333       0.000000       0.000000
      0.083333       0.083333       0.000000
      0.000000       0.083333       0.000000
      0.083333       0.000000       0.000000
      0.166667       0.000000       0.000000
      0.166667       0.083333       0.000000
      0.083333       0.083333       0.000000
      0.000000       0.083333       0.000000
      0.083333       0.083333       0.000000
      0.083333       0.166667       0.000000
      0.000000       0.166667       0.000000
      0.083333       0.083333       0.000000
      0.166667       0.083333       0.000000
      0.166667       0.166667       0.000000
      0.083333       0.166667       0.000000
      0.166667       0.000000       0.000000
      0.250000       0.000000       0.000000
      0.250000       0.083333       0.000000
      0.166667       0.083333       0.000000
      0.250000       0.000000       0.000000
      0.333333       0.000000       0.000000
      0.333333       0.083333       0.000000
      0.250000       0.083333       0.000000
      0.166667       0.083333       0.000000
      0.250000       0.083333       0.000000
      0.250000       0.166667       0.000000
      0.166667       0.166667       0.000000
      0.250000       0.083333       0.000000
      0.333333       0.083333       0.000000
      0.333333       0.166667       0.000000
      0.250000       0.166667       0.000000
      0.333333       0.000000       0.000000
      0.416667      -0.000000       0.000000
      0.416667       0.083333       0.000000
      0.333333       0.083333       0.000000
      0.416667      -0.000000       0.000000
      0.500000       0.000000       0.000000
      0.500000       0.083333       0.000000
      0.416667       0.083333       0.000000
      0.333333       0.083333       0.000000
      0.416667       0.083333       0.000000
      0.416667       0.166667       0.000000
      0.333333       0.166667       0.000000
      0.416667       0.083333       0.000000
      0.500000       0.083333       0.000000
      0.500000       0.166667       0.000000
      0.416667       0.166667       0.000000
      0.000000       0.166667       0.000000
      0.083333       0.166667       0.000000
      0.083333       0.250000       0.000000
      0.000000       0.250000       0.000000
      0.083333       0.166667       0.000000
      0.166667       0.166667       0.000000
      0.166667       0.250000       0.000000
      0.083333       0.250000       0.000000
      0.000000       0.250000       0.000000
      0.083333       0.250000       0.000000
      0.083333       0.333333       0.000000
      0.000000       0.333333       0.000000
      0.083333       0.250000       0.000000
      0.166667       0.250000       0.000000
      0.166667       0.333333       0.000000
      0.083333       0.333333       0.000000
      0.166667       0.166667       0.000000
      0.250000       0.166667       0.000000
      0.250000       0.250000       0.000000
      0.166667       0.250000       0.000000
      0.250000       0.166667       0.000000
      0.333333       0.166667       0.000000
      0.333333       0.250000       0.000000
      0.250000       0.250000       0.000000
      0.166667       0.250000       0.000000
      0.250000       0.250000       0.000000
      0.250000       0.333333       0.000000
      0.166667       0.333333       0.000000
      0.250000       0.250000       0.000000
      0.333333       0.250000       0.000000
      0.333333       0.333333       0.000000
      0.250000       0.333333       0.000000
      0.333333       0.166667       0.000000
      0.416667       0.166667       0.000000
      0.416667       0.250000       0.000000
      0.333333       0.250000       0.000000
      0.333333       0.250000       0.000000
      0.416667       0.250000       0.000000
      0.416667       0.333333       0.000000
      0.333333       0.333333       0.000000
      0.000000       0.333333       0.000000
      0.083333       0.333333       0.000000
      0.083333       0.416667       0.000000
     -0.000000       0.416667       0.000000
      0.083333       0.333333       0.000000
      0.166667       0.333333       0.000000
      0.166667       0.416667       0.000000
      0.083333       0.416667       0.000000
     -0.000000       0.416667       0.000000
      0.083333       0.416667       0.000000
      0.083333       0.500000       0.000000
      0.000000       0.500000       0.000000
      0.083333       0.416667       0.000000
      0.166667       0.416667       0.000000
      0.166667       0.500000       0.000000
      0.083333       0.500000       0.000000
      0.166667       0.333333       0.000000
      0.250000       0.333333       0.000000
      0.250000       0.416667       0.000000
      0.166667       0.416667       0.000000
      0.250000       0.333333       0.000000
      0.333333       0.333333       0.000000
      0.333333       0.416667       0.000000
      0.250000       0.416667       0.000000
      0.166667       0.416667       0.000000
      0.250000       0.416667       0.000000
      0.250000       0.500000       0.000000
      0.166667       0.500000       0.000000
      0.250000       0.416667       0.000000
      0.333333       0.416667       0.000000
      0.333333       0.500000       0.000000
      0.250000       0.500000       0.000000
      0.333333       0.333333       0.000000
      0.375000       0.333333       0.000000
      0.375000       0.375000       0.000000
      0.333333       0.375000       0.000000
      0.375000       0.333333       0.000000
      0.416667       0.333333       0.000000
      0.416667       0.375000       0.000000
      0.375000       0.375000       0.000000
      0.333333       0.375000       0.000000
      0.375000       0.375000       0.000000
      0.375000       0.416667       0.000000
      0.333333       0.416667       0.000000
      0.375000       0.375000       0.000000
      0.416667       0.375000       0.000000
      0.416667       0.416667       0.000000
      0.375000       0.416667       0.000000
      0.416667       0.333333       0.000000
      0.458333       0.333333       0.000000
      0.458333       0.375000       0.000000
      0.416667       0.375000       0.000000
      0.416667       0.375000       0.000000
      0.458333       0.375000       0.000000
      0.458333       0.416667       0.000000
      0.416667       0.416667       0.000000
      0.333333       0.416667       0.000000
      0.375000       0.416667       0.000000
      0.375000       0.458333       0.000000
      0.333333       0.458333       0.000000
      0.375000       0.416667       0.000000
      0.416667       0.416667       0.000000
      0.416667       0.458333       0.000000
      0.375000       0.458333       0.000000
      0.333333       0.458333       0.000000
      0.375000       0.458333       0.000000
      0.375000       0.500000       0.000000
      0.333333       0.500000       0.000000
      0.375000       0.458333       0.000000
      0.416667       0.458333       0.000000
      0.416667       0.500000       0.000000
      0.375000       0.500000       0.000000
      0.416667       0.416667       0.000000
      0.437500       0.416667       0.000000
      0.437500       0.437500       0.000000
      0.416667       0.437500       0.000000
      0.437500       0.416667       0.000000
      0.458333       0.416667       0.000000
      0.458333       0.437500       0.000000
      0.437500       0.437500       0.000000
      0.416667       0.437500       0.000000
      0.437500       0.437500       0.000000
      0.437500       0.458333       0.000000
      0.416667       0.458333       0.000000
      0.437500       0.437500       0.000000
      0.458333       0.437500       0.000000
      0.458333       0.458333       0.000000
      0.437500       0.458333       0.000000
      0.458333       0.416667       0.000000
      0.479167       0.416667       0.000000
      0.479167       0.437500       0.000000
      0.458333       0.437500       0.000000
      0.458333       0.437500       0.000000
      0.479167       0.437500       0.000000
      0.479167       0.458333       0.000000
      0.458333       0.458333       0.000000
      0.416667       0.458333       0.000000
      0.437500       0.458333       0.000000
      0.437500       0.479167       0.000000
      0.416667       0.479167       0.000000
      0.437500       0.458333       0.000000
      0.458333       0.458333       0.000000
      0.458333       0.479167       0.000000
      0.437500       0.479167       0.000000
      0.416667       0.479167       0.000000
      0.437500       0.479167       0.000000
      0.437500       0.500000       0.000000
      0.416667       0.500000       0.000000
      0.437500       0.479167       0.000000
      0.458333       0.479167       0.000000
      0.458333       0.500000       0.000000
      0.437500       0.500000       0.000000
      0.458333       0.458333       0.000000
      0.468750       0.458333       0.000000
      0.468750       0.468750       0.000000
      0.458333       0.468750       0.000000
      0.468750       0.458333       0.000000
      0.479167       0.458333       0.000000
      0.479167       0.468750       0.000000
      0.468750       0.468750       0.000000
      0.458333       0.468750       0.000000
      0.468750       0.468750       0.000000
      0.468750       0.479167       0.000000
      0.458333       0.479167       0.000000
      0.468750       0.468750       0.000000
      0.479167       0.468750       0.000000
      0.479167       0.479167       0.000000
      0.468750       0.479167       0.000000
      0.479167       0.458333       0.000000
      0.489583       0.458333       0.000000
      0.489583       0.468750       0.000000
      0.479167       0.468750       0.000000
[...]
POINT_DATA  2976
VECTORS U float 
      0.000000       0.000000       0.000000
      0.000000       0.000000       0.000000
      0.000041      -0.000001       0.000000
      0.000040       0.000000       0.000000
      0.000000       0.000000       0.000000
      0.000000       0.000000       0.000000
      0.000044      -0.000001       0.000000
      0.000041      -0.000001       0.000000
      0.000040       0.000000       0.000000
      0.000041      -0.000001       0.000000
      0.000078      -0.000002       0.000000
      0.000077       0.000000       0.000000
      0.000041      -0.000001       0.000000
      0.000044      -0.000001       0.000000
      0.000083      -0.000005       0.000000
      0.000078      -0.000002       0.000000
      0.000000       0.000000       0.000000
      0.000000       0.000000       0.000000
      0.000049      -0.000002       0.000000
      0.000044      -0.000001       0.000000
      0.000000       0.000000       0.000000
      0.000000       0.000000       0.000000
      0.000058      -0.000003       0.000000
      0.000049      -0.000002       0.000000
      0.000044      -0.000001       0.000000
      0.000049      -0.000002       0.000000
      0.000091      -0.000008       0.000000
      0.000083      -0.000005       0.000000
      0.000049      -0.000002       0.000000
      0.000058      -0.000003       0.000000
      0.000105      -0.000012       0.000000
      0.000091      -0.000008       0.000000
      0.000000       0.000000       0.000000
      0.000000       0.000000       0.000000
      0.000074      -0.000005       0.000000
      0.000058      -0.000003       0.000000
      0.000000       0.000000       0.000000
      0.000000       0.000000       0.000000
      0.000101      -0.000009       0.000000
      0.000074      -0.000005       0.000000
      0.000058      -0.000003       0.000000
      0.000074      -0.000005       0.000000
      0.000125      -0.000018       0.000000
      0.000105      -0.000012       0.000000
      0.000074      -0.000005       0.000000
      0.000101      -0.000009       0.000000
      0.000154      -0.000028       0.000000
      0.000125      -0.000018       0.000000
      0.000077       0.000000       0.000000
      0.000078      -0.000002       0.000000
      0.000110      -0.000004       0.000000
      0.000108       0.000000       0.000000
      0.000078      -0.000002       0.000000
      0.000083      -0.000005       0.000000
      0.000115      -0.000009       0.000000
      0.000110      -0.000004       0.000000
      0.000108       0.000000       0.000000
      0.000110      -0.000004       0.000000
      0.000134      -0.000006       0.000000
      0.000133       0.000000       0.000000
      0.000110      -0.000004       0.000000
      0.000115      -0.000009       0.000000
      0.000139      -0.000013       0.000000
      0.000134      -0.000006       0.000000
      0.000083      -0.000005       0.000000
      0.000091      -0.000008       0.000000
      0.000124      -0.000015       0.000000
      0.000115      -0.000009       0.000000
      0.000091      -0.000008       0.000000
      0.000105      -0.000012       0.000000
      0.000137      -0.000022       0.000000
      0.000124      -0.000015       0.000000
      0.000115      -0.000009       0.000000
      0.000124      -0.000015       0.000000
      0.000147      -0.000020       0.000000
      0.000139      -0.000013       0.000000
      0.000124      -0.000015       0.000000
      0.000137      -0.000022       0.000000
      0.000158      -0.000029       0.000000
      0.000147      -0.000020       0.000000
      0.000105      -0.000012       0.000000
      0.000125      -0.000018       0.000000
      0.000154      -0.000030       0.000000
      0.000137      -0.000022       0.000000
      0.000137      -0.000022       0.000000
      0.000154      -0.000030       0.000000
      0.000170      -0.000037       0.000000
      0.000158      -0.000029       0.000000
      0.000133       0.000000       0.000000
      0.000134      -0.000006       0.000000
      0.000153      -0.000008       0.000000
      0.000151       0.000000       0.000000
      0.000134      -0.000006       0.000000
      0.000139      -0.000013       0.000000
      0.000157      -0.000016       0.000000
      0.000153      -0.000008       0.000000
      0.000151       0.000000       0.000000
      0.000153      -0.000008       0.000000
      0.000165      -0.000009       0.000000
      0.000163       0.000000       0.000000
      0.000153      -0.000008       0.000000
      0.000157      -0.000016       0.000000
      0.000168      -0.000018       0.000000
      0.000165      -0.000009       0.000000
      0.000139      -0.000013       0.000000
      0.000147      -0.000020       0.000000
      0.000163      -0.000025       0.000000
      0.000157      -0.000016       0.000000
      0.000147      -0.000020       0.000000
      0.000158      -0.000029       0.000000
      0.000171      -0.000034       0.000000
      0.000163      -0.000025       0.000000
      0.000157      -0.000016       0.000000
      0.000163      -0.000025       0.000000
      0.000174      -0.000028       0.000000
      0.000168      -0.000018       0.000000
      0.000163      -0.000025       0.000000
      0.000171      -0.000034       0.000000
      0.000181      -0.000037       0.000000
      0.000174      -0.000028       0.000000
      0.000158      -0.000029       0.000000
      0.000164      -0.000033       0.000000
      0.000171      -0.000036       0.000000
      0.000165      -0.000031       0.000000
      0.000164      -0.000033       0.000000
      0.000170      -0.000037       0.000000
      0.000176      -0.000039       0.000000
      0.000171      -0.000036       0.000000
      0.000165      -0.000031       0.000000
      0.000171      -0.000036       0.000000
      0.000176      -0.000038       0.000000
      0.000171      -0.000034       0.000000
      0.000171      -0.000036       0.000000
      0.000176      -0.000039       0.000000
      0.000181      -0.000041       0.000000
      0.000176      -0.000038       0.000000
      0.000170      -0.000037       0.000000
      0.000177      -0.000041       0.000000
      0.000182      -0.000042       0.000000
      0.000176      -0.000039       0.000000
      0.000176      -0.000039       0.000000
      0.000182      -0.000042       0.000000
      0.000186      -0.000044       0.000000
      0.000181      -0.000041       0.000000
      0.000171      -0.000034       0.000000
      0.000176      -0.000038       0.000000
      0.000181      -0.000040       0.000000
      0.000177      -0.000036       0.000000
      0.000176      -0.000038       0.000000
      0.000181      -0.000041       0.000000
      0.000185      -0.000043       0.000000
      0.000181      -0.000040       0.000000
      0.000177      -0.000036       0.000000
      0.000181      -0.000040       0.000000
      0.000185      -0.000041       0.000000
      0.000181      -0.000037       0.000000
      0.000181      -0.000040       0.000000
      0.000185      -0.000043       0.000000
      0.000188      -0.000045       0.000000
      0.000185      -0.000041       0.000000
      0.000181      -0.000041       0.000000
      0.000183      -0.000043       0.000000
      0.000185      -0.000044       0.000000
      0.000183      -0.000042       0.000000
      0.000183      -0.000043       0.000000
      0.000186      -0.000044       0.000000
      0.000188      -0.000045       0.000000
      0.000185      -0.000044       0.000000
      0.000183      -0.000042       0.000000
      0.000185      -0.000044       0.000000
      0.000187      -0.000045       0.000000
      0.000185      -0.000043       0.000000
      0.000185      -0.000044       0.000000
      0.000188      -0.000045       0.000000
      0.000190      -0.000046       0.000000
      0.000187      -0.000045       0.000000
      0.000186      -0.000044       0.000000
      0.000189      -0.000045       0.000000
      0.000190      -0.000045       0.000000
      0.000188      -0.000045       0.000000
      0.000188      -0.000045       0.000000
      0.000190      -0.000045       0.000000
      0.000192      -0.000046       0.000000
      0.000190      -0.000046       0.000000
      0.000185      -0.000043       0.000000
      0.000187      -0.000045       0.000000
      0.000189      -0.000045       0.000000
      0.000187      -0.000044       0.000000
      0.000187      -0.000045       0.000000
      0.000190      -0.000046       0.000000
      0.000191      -0.000047       0.000000
      0.000189      -0.000045       0.000000
      0.000187      -0.000044       0.000000
      0.000189      -0.000045       0.000000
      0.000191      -0.000046       0.000000
      0.000188      -0.000045       0.000000
      0.000189      -0.000045       0.000000
      0.000191      -0.000047       0.000000
      0.000193      -0.000047       0.000000
      0.000191      -0.000046       0.000000
      0.000190      -0.000046       0.000000
      0.000191      -0.000046       0.000000
      0.000192      -0.000047       0.000000
      0.000190      -0.000046       0.000000
      0.000191      -0.000046       0.000000
      0.000192      -0.000046       0.000000
      0.000193      -0.000047       0.000000
      0.000192      -0.000047       0.000000
      0.000190      -0.000046       0.000000
      0.000192      -0.000047       0.000000
      0.000193      -0.000047       0.000000
      0.000191      -0.000047       0.000000
      0.000192      -0.000047       0.000000
      0.000193      -0.000047       0.000000
      0.000194      -0.000048       0.000000
      0.000193      -0.000047       0.000000
      0.000192      -0.000046       0.000000
      0.000194      -0.000046       0.000000
      0.000196      -0.000046       0.000000
      0.000193      -0.000047       0.000000
      0.000194      -0.000046       0.000000
      0.000198      -0.000045       0.000000
      0.000202      -0.000039       0.000000
      0.000196      -0.000046       0.000000
      0.000193      -0.000047       0.000000
      0.000196      -0.000046       0.000000
      0.000198      -0.000047       0.000000
      0.000194      -0.000048       0.000000
      0.000196      -0.000046       0.000000
      0.000202      -0.000039       0.000000
      0.000215      -0.000028       0.000000
      0.000198      -0.000047       0.000000
      0.000191      -0.000047       0.000000
      0.000193      -0.000047       0.000000
      0.000194      -0.000048       0.000000
      0.000192      -0.000047       0.000000
      0.000193      -0.000047       0.000000
      0.000194      -0.000048       0.000000
      0.000196      -0.000050       0.000000
      0.000194      -0.000048       0.000000
      0.000192      -0.000047       0.000000
      0.000194      -0.000048       0.000000
      0.000196      -0.000047       0.000000
      0.000193      -0.000047       0.000000
      0.000194      -0.000048       0.000000
      0.000196      -0.000050       0.000000
      0.000204      -0.000045       0.000000
      0.000196      -0.000047       0.000000
      0.000194      -0.000048       0.000000
      0.000198      -0.000047       0.000000
      0.000201      -0.000054       0.000000
      0.000196      -0.000050       0.000000
      0.000198      -0.000047       0.000000
      0.000215      -0.000028       0.000000
      0.000255       0.000125       0.000000
      0.000201      -0.000054       0.000000
      0.000196      -0.000050       0.000000
      0.000201      -0.000054       0.000000
      0.000277      -0.000034       0.000000
      0.000204      -0.000045       0.000000
      0.000201      -0.000054       0.000000
      0.000255       0.000125       0.000000
      0.010425       0.000894       0.000000
      0.000277      -0.000034       0.000000
      0.000190      -0.000045       0.000000
      0.000192      -0.000045       0.000000
      0.000193      -0.000046       0.000000
      0.000191      -0.000046       0.000000
      0.000192      -0.000045       0.000000
      0.000194      -0.000045       0.000000
      0.000195      -0.000046       0.000000
      0.000193      -0.000046       0.000000
      0.000191      -0.000046       0.000000
      0.000193      -0.000046       0.000000
      0.000194      -0.000046       0.000000
      0.000192      -0.000046       0.000000
      0.000193      -0.000046       0.000000
      0.000195      -0.000046       0.000000
      0.000198      -0.000045       0.000000
      0.000194      -0.000046       0.000000
      0.000182      -0.000042       0.000000
      0.000185      -0.000043       0.000000
      0.000187      -0.000044       0.000000
      0.000184      -0.000043       0.000000
      0.000185      -0.000043       0.000000
      0.000187      -0.000044       0.000000
      0.000189      -0.000044       0.000000
      0.000187      -0.000044       0.000000
      0.000184      -0.000043       0.000000
      0.000187      -0.000044       0.000000
      0.000189      -0.000045       0.000000
      0.000186      -0.000044       0.000000
      0.000189      -0.000045       0.000000
      0.000190      -0.000045       0.000000
      0.000191      -0.000045       0.000000
      0.000190      -0.000045       0.000000
      0.000190      -0.000045       0.000000
      0.000191      -0.000045       0.000000
      0.000192      -0.000045       0.000000
      0.000191      -0.000045       0.000000
      0.000190      -0.000045       0.000000
      0.000191      -0.000045       0.000000
      0.000192      -0.000045       0.000000
      0.000190      -0.000045       0.000000
      0.000191      -0.000045       0.000000
      0.000192      -0.000045       0.000000
      0.000194      -0.000045       0.000000
      0.000192      -0.000045       0.000000
      0.000187      -0.000044       0.000000
      0.000188      -0.000044       0.000000
      0.000189      -0.000045       0.000000
      0.000188      -0.000044       0.000000
      0.000188      -0.000044       0.000000
      0.000189      -0.000044       0.000000
      0.000190      -0.000045       0.000000
      0.000189      -0.000045       0.000000
      0.000188      -0.000044       0.000000
      0.000189      -0.000045       0.000000
      0.000190      -0.000045       0.000000
      0.000189      -0.000045       0.000000
      0.000189      -0.000045       0.000000
      0.000190      -0.000045       0.000000
      0.000191      -0.000045       0.000000
      0.000190      -0.000045       0.000000
      0.000154      -0.000030       0.000000
      0.000164      -0.000035       0.000000
      0.000171      -0.000038       0.000000
      0.000163      -0.000034       0.000000
      0.000164      -0.000035       0.000000
      0.000174      -0.000040       0.000000
      0.000179      -0.000042       0.000000
      0.000171      -0.000038       0.000000
      0.000163      -0.000034       0.000000
      0.000171      -0.000038       0.000000
      0.000177      -0.000041       0.000000
      0.000170      -0.000037       0.000000
      0.000177      -0.000041       0.000000
      0.000180      -0.000042       0.000000
      0.000183      -0.000043       0.000000
      0.000180      -0.000042       0.000000
      0.000180      -0.000042       0.000000
      0.000184      -0.000043       0.000000
      0.000185      -0.000044       0.000000
      0.000183      -0.000043       0.000000
      0.000180      -0.000042       0.000000
      0.000183      -0.000043       0.000000
      0.000185      -0.000043       0.000000
      0.000182      -0.000042       0.000000
      0.000183      -0.000043       0.000000
      0.000185      -0.000044       0.000000
      0.000187      -0.000044       0.000000
      0.000185      -0.000043       0.000000
      0.000171      -0.000038       0.000000
      0.000175      -0.000040       0.000000
      0.000178      -0.000041       0.000000
      0.000174      -0.000040       0.000000
      0.000175      -0.000040       0.000000
      0.000179      -0.000042       0.000000
      0.000182      -0.000043       0.000000
      0.000178      -0.000041       0.000000
      0.000174      -0.000040       0.000000
      0.000178      -0.000041       0.000000
      0.000180      -0.000042       0.000000
      0.000177      -0.000041       0.000000
      0.000178      -0.000041       0.000000
      0.000182      -0.000043       0.000000
      0.000184      -0.000043       0.000000
      0.000180      -0.000042       0.000000
      0.000125      -0.000018       0.000000
      0.000138      -0.000023       0.000000
      0.000153      -0.000030       0.000000
      0.000142      -0.000025       0.000000
      0.000138      -0.000023       0.000000
      0.000154      -0.000028       0.000000
      0.000167      -0.000035       0.000000
      0.000153      -0.000030       0.000000
      0.000142      -0.000025       0.000000
      0.000153      -0.000030       0.000000
      0.000164      -0.000035       0.000000
      0.000154      -0.000030       0.000000
      0.000153      -0.000030       0.000000
      0.000167      -0.000035       0.000000
      0.000174      -0.000040       0.000000
      0.000164      -0.000035       0.000000
      0.000000       0.000000       0.000000
      0.000000       0.000000       0.000000
      0.000152      -0.000015       0.000000
      0.000101      -0.000009       0.000000
      0.000000       0.000000       0.000000
      0.000000       0.000000       0.000000
      0.000253      -0.000015       0.000000
      0.000152      -0.000015       0.000000
      0.000101      -0.000009       0.000000
      0.000152      -0.000015       0.000000
      0.000193      -0.000040       0.000000
      0.000154      -0.000028       0.000000
      0.000000       0.000000       0.000000
      0.000000       0.000000       0.000000
      0.001313       0.000000       0.000000
      0.001244       0.000095       0.000000
      0.001244       0.000095       0.000000
      0.001313       0.000000       0.000000
      0.003324       0.000000       0.000000
      0.003371       0.000185       0.000000
      0.003570       0.000731       0.000000
      0.003371       0.000185       0.000000
      0.005447       0.000322       0.000000
      0.005630       0.000880       0.000000
      0.003371       0.000185       0.000000
      0.003324       0.000000       0.000000
      0.005374       0.000000       0.000000
      0.005447       0.000322       0.000000
      0.005630       0.000880       0.000000
      0.005447       0.000322       0.000000
      0.007066       0.000381       0.000000
      0.007174       0.000869       0.000000
      0.005447       0.000322       0.000000
      0.005374       0.000000       0.000000
      0.007018       0.000000       0.000000
      0.007066       0.000381       0.000000
      0.007259       0.001418       0.000000
      0.007174       0.000869       0.000000
      0.008423       0.000796       0.000000
      0.008492       0.001209       0.000000
      0.008552       0.001535       0.000000
      0.008492       0.001209       0.000000
      0.009488       0.001033       0.000000
      0.009576       0.001279       0.000000
      0.008492       0.001209       0.000000
      0.008423       0.000796       0.000000
      0.009428       0.000706       0.000000
      0.009488       0.001033       0.000000
      0.007174       0.000869       0.000000
      0.007066       0.000381       0.000000
      0.008355       0.000381       0.000000
      0.008423       0.000796       0.000000
      0.007066       0.000381       0.000000
      0.007018       0.000000       0.000000
      0.008326       0.000000       0.000000
      0.008355       0.000381       0.000000
      0.008423       0.000796       0.000000
      0.008355       0.000381       0.000000
      0.009384       0.000351       0.000000