# vtk DataFile Version 2.0
time_10.vtk
ASCII
DATASET UNSTRUCTURED_GRID
POINTS  1680 float
      0.000000       0.000000       0.000000
      0.083333       0.000000       0.000000
      0.083333       0.083333       0.000000
      0.000000       0.083333       0.000000
      0.083333       0.000000       0.000000
      0.166667       0.000000       0.000000
      0.166667       0.083333       0.000000
      0.083333       0.083333       0.000000
      0.000000       0.083333       0.000000
      0.083333       0.083333       0.000000
      0.083333       0.166667       0.000000
      0.000000       0.166667       0.000000
      0.083333       0.083333       0.000000
      0.166667       0.083333       0.000000
      0.166667       0.166667       0.000000
      0.083333       0.166667       0.000000
      0.166667       0.000000       0.000000
      0.250000       0.000000       0.000000
      0.250000       0.083333       0.000000
      0.166667       0.083333       0.000000
      0.250000       0.000000       0.000000
      0.333333       0.000000       0.000000
      0.333333       0.083333       0.000000
      0.250000       0.083333       0.000000
      0.166667       0.083333       0.000000
      0.250000       0.083333       0.000000
      0.250000       0.166667       0.000000
      0.166667       0.166667       0.000000
      0.250000       0.083333       0.000000
      0.333333       0.083333       0.000000
      0.333333       0.166667       0.000000
      0.250000       0.166667       0.000000
      0.333333       0.000000       0.000000
      0.416667      -0.000000       0.000000
      0.416667       0.083333       0.000000
      0.333333       0.083333       0.000000
      0.416667      -0.000000       0.000000
      0.500000       0.000000       0.000000
      0.500000       0.083333       0.000000
      0.416667       0.083333       0.000000
      0.333333       0.083333       0.000000
      0.416667       0.083333       0.000000
      0.416667       0.166667       0.000000
      0.333333       0.166667       0.000000
      0.416667       0.083333       0.000000
      0.500000       0.083333       0.000000
      0.500000       0.166667       0.000000
      0.416667       0.166667       0.000000
      0.000000       0.166667       0.000000
      0.083333       0.166667       0.000000
      0.083333       0.250000       0.000000
      0.000000       0.250000       0.000000
      0.083333       0.166667       0.000000
      0.166667       0.166667       0.000000
      0.166667       0.250000       0.000000
      0.083333       0.250000       0.000000
      0.000000       0.250000       0.000000
      0.083333       0.250000       0.000000
      0.083333       0.333333       0.000000
      0.000000       0.333333       0.000000
      0.083333       0.250000       0.000000
      0.166667       0.250000       0.000000
      0.166667       0.333333       0.000000
      0.083333       0.333333       0.000000
      0.166667       0.166667       0.000000
      0.250000       0.166667       0.000000
      0.250000       0.250000       0.000000
      0.166667       0.250000       0.000000
      0.250000       0.166667       0.000000
      0.333333       0.166667       0.000000
      0.333333       0.250000       0.000000
      0.250000       0.250000       0.000000
      0.166667       0.250000       0.000000
      0.250000       0.250000       0.000000
      0.250000       0.333333       0.000000
      0.166667       0.333333       0.000000
      0.250000       0.250000       0.000000
      0.333333       0.250000       0.000000
      0.333333       0.333333       0.000000
      0.250000       0.333333       0.000000
      0.333333       0.166667       0.000000
      0.416667       0.166667       0.000000
      0.416667       0.250000       0.000000
      0.333333       0.250000       0.000000
      0.416667       0.166667       0.000000
      0.500000       0.166667       0.000000
      0.500000       0.250000       0.000000
      0.416667       0.250000       0.000000
      0.333333       0.250000       0.000000
      0.416667       0.250000       0.000000
      0.416667       0.333333       0.000000
      0.333333       0.333333       0.000000
      0.000000       0.333333       0.000000
      0.083333       0.333333       0.000000
      0.083333       0.416667       0.000000
     -0.000000       0.416667       0.000000
      0.083333       0.333333       0.000000
      0.166667       0.333333       0.000000
      0.166667       0.416667       0.000000
      0.083333       0.416667       0.000000
     -0.000000       0.416667       0.000000
      0.083333       0.416667       0.000000
      0.083333       0.500000       0.000000
      0.000000       0.500000       0.000000
      0.083333       0.416667       0.000000
      0.166667       0.416667       0.000000
      0.166667       0.500000       0.000000
      0.083333       0.500000       0.000000
      0.166667       0.333333       0.000000
      0.250000       0.333333       0.000000
      0.250000       0.416667       0.000000
      0.166667       0.416667       0.000000
      0.250000       0.333333       0.000000
      0.333333       0.333333       0.000000
      0.333333       0.416667       0.000000
      0.250000       0.416667       0.000000
      0.166667       0.416667       0.000000
      0.250000       0.416667       0.000000
      0.250000       0.500000       0.000000
      0.166667       0.500000       0.000000
      0.250000       0.416667       0.000000
      0.333333       0.416667       0.000000
      0.333333       0.500000       0.000000
      0.250000       0.500000       0.000000
      0.333333       0.333333       0.000000
      0.375000       0.333333       0.000000
      0.375000       0.375000       0.000000
      0.333333       0.375000       0.000000
      0.375000       0.333333       0.000000
      0.416667       0.333333       0.000000
      0.416667       0.375000       0.000000
      0.375000       0.375000       0.000000
      0.333333       0.375000       0.000000
      0.375000       0.375000       0.000000
      0.375000       0.416667       0.000000
      0.333333       0.416667       0.000000
      0.375000       0.375000       0.000000
      0.416667       0.375000       0.000000
      0.416667       0.416667       0.000000
      0.375000       0.416667       0.000000
      0.416667       0.333333       0.000000
      0.458333       0.333333       0.000000
      0.458333       0.375000       0.000000
      0.416667       0.375000       0.000000
      0.416667       0.375000       0.000000
      0.458333       0.375000       0.000000
      0.458333       0.416667       0.000000
      0.416667       0.416667       0.000000
      0.333333       0.416667       0.000000
      0.375000       0.416667       0.000000
      0.375000       0.458333       0.000000
      0.333333       0.458333       0.000000
      0.375000       0.416667       0.000000
      0.416667       0.416667       0.000000
      0.416667       0.458333       0.000000
      0.375000       0.458333       0.000000
      0.333333       0.458333       0.000000
      0.375000       0.458333       0.000000
      0.375000       0.500000       0.000000
      0.333333       0.500000       0.000000
      0.375000       0.458333       0.000000
      0.416667       0.458333       0.000000
      0.416667       0.500000       0.000000
      0.375000       0.500000       0.000000
      0.416667       0.416667       0.000000
      0.437500       0.416667       0.000000
      0.437500       0.437500       0.000000
      0.416667       0.437500       0.000000
      0.437500       0.416667       0.000000
      0.458333       0.416667       0.000000
      0.458333       0.437500       0.000000
      0.437500       0.437500       0.000000
      0.416667       0.437500       0.000000
      0.437500       0.437500       0.000000
      0.437500       0.458333       0.000000
      0.416667       0.458333       0.000000
      0.437500       0.437500       0.000000
      0.458333       0.437500       0.000000
      0.458333       0.458333       0.000000
      0.437500       0.458333       0.000000
      0.458333       0.416667       0.000000
      0.479167       0.416667       0.000000
      0.479167       0.437500       0.000000
      0.458333       0.437500       0.000000
      0.458333       0.437500       0.000000
      0.479167       0.437500       0.000000
      0.479167       0.458333       0.000000
      0.458333       0.458333       0.000000
      0.416667       0.458333       0.000000
      0.437500       0.458333       0.000000
      0.437500       0.479167       0.000000
      0.416667       0.479167       0.000000
      0.437500       0.458333       0.000000
      0.458333       0.458333       0.000000
      0.458333       0.479167       0.000000
      0.437500       0.479167       0.000000
      0.416667       0.479167       0.000000
      0.437500       0.479167       0.000000
      0.437500       0.500000       0.000000
      0.416667       0.500000       0.000000
      0.437500       0.479167       0.000000
      0.458333       0.479167       0.000000
      0.458333       0.500000       0.000000
      0.437500       0.500000       0.000000
      0.458333       0.458333       0.000000
      0.468750       0.458333       0.000000
      0.468750       0.468750       0.000000
      0.458333       0.468750       0.000000
      0.468750       0.458333       0.000000
      0.479167       0.458333       0.000000
      0.479167       0.468750       0.000000
      0.468750       0.468750       0.000000
      0.458333       0.468750       0.000000
      0.468750       0.468750       0.000000
      0.468750       0.479167       0.000000
      0.458333       0.479167       0.000000
      0.468750       0.468750       0.000000
      0.479167       0.468750       0.000000
      0.479167       0.479167       0.000000
      0.468750       0.479167       0.000000
[...]
POINT_DATA  1680
VECTORS U float 
      0.000000       0.000000       0.000000
      0.000000       0.000000       0.000000
      0.000321       0.000002       0.000000
      0.000312       0.000000       0.000000
      0.000000       0.000000       0.000000
      0.000000       0.000000       0.000000
      0.000348       0.000007       0.000000
      0.000321       0.000002       0.000000
      0.000312       0.000000       0.000000
      0.000321       0.000002       0.000000
      0.000588      -0.000007       0.000000
      0.000574       0.000000       0.000000
      0.000321       0.000002       0.000000
      0.000348       0.000007       0.000000
      0.000630      -0.000008       0.000000
      0.000588      -0.000007       0.000000
      0.000000       0.000000       0.000000
      0.000000       0.000000       0.000000
      0.000392       0.000019       0.000000
      0.000348       0.000007       0.000000
      0.000000       0.000000       0.000000
      0.000000       0.000000       0.000000
      0.000452       0.000044       0.000000
      0.000392       0.000019       0.000000
      0.000348       0.000007       0.000000
      0.000392       0.000019       0.000000
      0.000701       0.000003       0.000000
      0.000630      -0.000008       0.000000
      0.000392       0.000019       0.000000
      0.000452       0.000044       0.000000
      0.000803       0.000041       0.000000
      0.000701       0.000003       0.000000
      0.000000       0.000000       0.000000
      0.000000       0.000000       0.000000
      0.000517       0.000089       0.000000
      0.000452       0.000044       0.000000
      0.000000       0.000000       0.000000
      0.000000       0.000000       0.000000
      0.000565       0.000152       0.000000
      0.000517       0.000089       0.000000
      0.000452       0.000044       0.000000
      0.000517       0.000089       0.000000
      0.000933       0.000125       0.000000
      0.000803       0.000041       0.000000
      0.000517       0.000089       0.000000
      0.000565       0.000152       0.000000
      0.001067       0.000270       0.000000
      0.000933       0.000125       0.000000
      0.000574       0.000000       0.000000
      0.000588      -0.000007       0.000000
      0.000788      -0.000021       0.000000
      0.000773       0.000000       0.000000
      0.000588      -0.000007       0.000000
      0.000630      -0.000008       0.000000
      0.000832      -0.000035       0.000000
      0.000788      -0.000021       0.000000
      0.000773       0.000000       0.000000
      0.000788      -0.000021       0.000000
      0.000921      -0.000035       0.000000
      0.000909       0.000000       0.000000
      0.000788      -0.000021       0.000000
      0.000832      -0.000035       0.000000
      0.000956      -0.000063       0.000000
      0.000921      -0.000035       0.000000
      0.000630      -0.000008       0.000000
      0.000701       0.000003       0.000000
      0.000910      -0.000035       0.000000
      0.000832      -0.000035       0.000000
      0.000701       0.000003       0.000000
      0.000803       0.000041       0.000000
      0.001028      -0.000004       0.000000
      0.000910      -0.000035       0.000000
      0.000832      -0.000035       0.000000
      0.000910      -0.000035       0.000000
      0.001018      -0.000078       0.000000
      0.000956      -0.000063       0.000000
      0.000910      -0.000035       0.000000
      0.001028      -0.000004       0.000000
      0.001111      -0.000063       0.000000
      0.001018      -0.000078       0.000000
      0.000803       0.000041       0.000000
      0.000933       0.000125       0.000000
      0.001202       0.000086       0.000000
      0.001028      -0.000004       0.000000
      0.000933       0.000125       0.000000
      0.001067       0.000270       0.000000
      0.001455       0.000296       0.000000
      0.001202       0.000086       0.000000
      0.001028      -0.000004       0.000000
      0.001202       0.000086       0.000000
      0.001245       0.000003       0.000000
      0.001111      -0.000063       0.000000
      0.000909       0.000000       0.000000
      0.000921      -0.000035       0.000000
      0.001002      -0.000044       0.000000
      0.000996       0.000000       0.000000
      0.000921      -0.000035       0.000000
      0.000956      -0.000063       0.000000
      0.001022      -0.000082       0.000000
      0.001002      -0.000044       0.000000
      0.000996       0.000000       0.000000
      0.001002      -0.000044       0.000000
      0.001055      -0.000048       0.000000
      0.001053       0.000000       0.000000
      0.001002      -0.000044       0.000000
      0.001022      -0.000082       0.000000
      0.001059      -0.000089       0.000000
      0.001055      -0.000048       0.000000
      0.000956      -0.000063       0.000000
      0.001018      -0.000078       0.000000
      0.001053      -0.000106       0.000000
      0.001022      -0.000082       0.000000
      0.001018      -0.000078       0.000000
      0.001111      -0.000063       0.000000
      0.001095      -0.000098       0.000000
      0.001053      -0.000106       0.000000
      0.001022      -0.000082       0.000000
      0.001053      -0.000106       0.000000
      0.001061      -0.000114       0.000000
      0.001059      -0.000089       0.000000
      0.001053      -0.000106       0.000000
      0.001095      -0.000098       0.000000
      0.001054      -0.000105       0.000000
      0.001061      -0.000114       0.000000
      0.001111      -0.000063       0.000000
      0.001172      -0.000038       0.000000
      0.001152      -0.000062       0.000000
      0.001110      -0.000085       0.000000
      0.001172      -0.000038       0.000000
      0.001245       0.000003       0.000000
      0.001198      -0.000023       0.000000
      0.001152      -0.000062       0.000000
      0.001110      -0.000085       0.000000
      0.001152      -0.000062       0.000000
      0.001118      -0.000075       0.000000
      0.001095      -0.000098       0.000000
      0.001152      -0.000062       0.000000
      0.001198      -0.000023       0.000000
      0.001140      -0.000033       0.000000
      0.001118      -0.000075       0.000000
      0.001245       0.000003       0.000000
      0.001335       0.000069       0.000000
      0.001246       0.000039       0.000000
      0.001198      -0.000023       0.000000
      0.001198      -0.000023       0.000000
      0.001246       0.000039       0.000000
      0.001158       0.000032       0.000000
      0.001140      -0.000033       0.000000
      0.001095      -0.000098       0.000000
      0.001118      -0.000075       0.000000
      0.001081      -0.000080       0.000000
      0.001074      -0.000104       0.000000
      0.001118      -0.000075       0.000000
      0.001140      -0.000033       0.000000
      0.001087      -0.000035       0.000000
      0.001081      -0.000080       0.000000
      0.001074      -0.000104       0.000000
      0.001081      -0.000080       0.000000
      0.001045      -0.000079       0.000000
      0.001054      -0.000105       0.000000
      0.001081      -0.000080       0.000000
      0.001087      -0.000035       0.000000
      0.001035      -0.000034       0.000000
      0.001045      -0.000079       0.000000
      0.001140      -0.000033       0.000000
      0.001149      -0.000004       0.000000
      0.001118      -0.000005       0.000000
      0.001113      -0.000035       0.000000
      0.001149      -0.000004       0.000000
      0.001158       0.000032       0.000000
      0.001122       0.000031       0.000000
      0.001118      -0.000005       0.000000
      0.001113      -0.000035       0.000000
      0.001118      -0.000005       0.000000
      0.001089      -0.000005       0.000000
      0.001087      -0.000035       0.000000
      0.001118      -0.000005       0.000000
      0.001122       0.000031       0.000000
      0.001091       0.000030       0.000000
      0.001089      -0.000005       0.000000
      0.001158       0.000032       0.000000
      0.001165       0.000075       0.000000
      0.001126       0.000073       0.000000
      0.001122       0.000031       0.000000
      0.001122       0.000031       0.000000
      0.001126       0.000073       0.000000
      0.001094       0.000070       0.000000
      0.001091       0.000030       0.000000
      0.001087      -0.000035       0.000000
      0.001089      -0.000005       0.000000
      0.001061      -0.000005       0.000000
      0.001062      -0.000035       0.000000
      0.001089      -0.000005       0.000000
      0.001091       0.000030       0.000000
      0.001062       0.000030       0.000000
      0.001061      -0.000005       0.000000
      0.001062      -0.000035       0.000000
      0.001061      -0.000005       0.000000
      0.001032      -0.000004       0.000000
      0.001035      -0.000034       0.000000
      0.001061      -0.000005       0.000000
      0.001062       0.000030       0.000000
      0.001030       0.000030       0.000000
      0.001032      -0.000004       0.000000
      0.001091       0.000030       0.000000
      0.001092       0.000050       0.000000
      0.001077       0.000049       0.000000
      0.001076       0.000030       0.000000
      0.001092       0.000050       0.000000
      0.001094       0.000070       0.000000
      0.001079       0.000069       0.000000
      0.001077       0.000049       0.000000
      0.001076       0.000030       0.000000
      0.001077       0.000049       0.000000
      0.001063       0.000048       0.000000
      0.001062       0.000030       0.000000
      0.001077       0.000049       0.000000
      0.001079       0.000069       0.000000
      0.001064       0.000067       0.000000
      0.001063       0.000048       0.000000
      0.001094       0.000070       0.000000
      0.001097       0.000093       0.000000
      0.001082       0.000090       0.000000
      0.001079       0.000069       0.000000
      0.001097       0.000093       0.000000
      0.001102       0.000117       0.000000
      0.001089       0.000121       0.000000
      0.001082       0.000090       0.000000
      0.001079       0.000069       0.000000
      0.001082       0.000090       0.000000
      0.001068       0.000087       0.000000
      0.001064       0.000067       0.000000
      0.001082       0.000090       0.000000
      0.001089       0.000121       0.000000
      0.001063       0.000124       0.000000
      0.001068       0.000087       0.000000
      0.001062       0.000030       0.000000
      0.001063       0.000048       0.000000
      0.001048       0.000048       0.000000
      0.001047       0.000030       0.000000
      0.001063       0.000048       0.000000
      0.001064       0.000067       0.000000
      0.001050       0.000065       0.000000
      0.001048       0.000048       0.000000
      0.001047       0.000030       0.000000
      0.001048       0.000048       0.000000
      0.001032       0.000048       0.000000
      0.001030       0.000030       0.000000
      0.001048       0.000048       0.000000
      0.001050       0.000065       0.000000
      0.001039       0.000068       0.000000
      0.001032       0.000048       0.000000
      0.001064       0.000067       0.000000
      0.001068       0.000087       0.000000
      0.001052       0.000079       0.000000
      0.001050       0.000065       0.000000
      0.001068       0.000087       0.000000
      0.001063       0.000124       0.000000
      0.000768       0.000101       0.000000
      0.001052       0.000079       0.000000
      0.001050       0.000065       0.000000
      0.001052       0.000079       0.000000
      0.001091       0.000096       0.000000
      0.001039       0.000068       0.000000
      0.001052       0.000079       0.000000
      0.000768       0.000101       0.000000
      0.008348       0.000813       0.000000
      0.001091       0.000096       0.000000
      0.001126       0.000073       0.000000
      0.001129       0.000097       0.000000
      0.001112       0.000095       0.000000
      0.001109       0.000072       0.000000
      0.001129       0.000097       0.000000
      0.001132       0.000123       0.000000
      0.001116       0.000120       0.000000
      0.001112       0.000095       0.000000
      0.001109       0.000072       0.000000
      0.001112       0.000095       0.000000
      0.001097       0.000093       0.000000
      0.001094       0.000070       0.000000
      0.001112       0.000095       0.000000
      0.001116       0.000120       0.000000
      0.001102       0.000117       0.000000
      0.001097       0.000093       0.000000
      0.001246       0.000039       0.000000
      0.001270       0.000083       0.000000
      0.001213       0.000078       0.000000
      0.001199       0.000034       0.000000
      0.001270       0.000083       0.000000
      0.001293       0.000139       0.000000
      0.001225       0.000133       0.000000
      0.001213       0.000078       0.000000
      0.001199       0.000034       0.000000
      0.001213       0.000078       0.000000
      0.001165       0.000075       0.000000
      0.001158       0.000032       0.000000
      0.001165       0.000075       0.000000
      0.001168       0.000100       0.000000
      0.001147       0.000099       0.000000
      0.001145       0.000074       0.000000
      0.001168       0.000100       0.000000
      0.001172       0.000129       0.000000
      0.001151       0.000126       0.000000
      0.001147       0.000099       0.000000
      0.001145       0.000074       0.000000
      0.001147       0.000099       0.000000
      0.001129       0.000097       0.000000
      0.001126       0.000073       0.000000
      0.001147       0.000099       0.000000
      0.001151       0.000126       0.000000
      0.001132       0.000123       0.000000
      0.001129       0.000097       0.000000
      0.001213       0.000078       0.000000
      0.001219       0.000104       0.000000
      0.001192       0.000102       0.000000
      0.001188       0.000076       0.000000
      0.001219       0.000104       0.000000
      0.001225       0.000133       0.000000
      0.001197       0.000131       0.000000
      0.001192       0.000102       0.000000
      0.001188       0.000076       0.000000
      0.001192       0.000102       0.000000
      0.001168       0.000100       0.000000
      0.001165       0.000075       0.000000
      0.001192       0.000102       0.000000
      0.001197       0.000131       0.000000
      0.001172       0.000129       0.000000
      0.001168       0.000100       0.000000
      0.001202       0.000086       0.000000
      0.001317       0.000170       0.000000
      0.001370       0.000121       0.000000
      0.001252       0.000044       0.000000
      0.001317       0.000170       0.000000
      0.001455       0.000296       0.000000
      0.001529       0.000246       0.000000
      0.001370       0.000121       0.000000
      0.001252       0.000044       0.000000
      0.001370       0.000121       0.000000
      0.001335       0.000069       0.000000
      0.001245       0.000003       0.000000
      0.001335       0.000069       0.000000
      0.001389       0.000115       0.000000
      0.001332       0.000094       0.000000
      0.001293       0.000050       0.000000
      0.001389       0.000115       0.000000
      0.001453       0.000174       0.000000
      0.001374       0.000150       0.000000
      0.001332       0.000094       0.000000
      0.001293       0.000050       0.000000
      0.001332       0.000094       0.000000
      0.001270       0.000083       0.000000
      0.001246       0.000039       0.000000
      0.001332       0.000094       0.000000
      0.001374       0.000150       0.000000
      0.001293       0.000139       0.000000
      0.001270       0.000083       0.000000
      0.001370       0.000121       0.000000
      0.001443       0.000176       0.000000
      0.001430       0.000143       0.000000
      0.001363       0.000093       0.000000
      0.001443       0.000176       0.000000
      0.001529       0.000246       0.000000
      0.001510       0.000208       0.000000
      0.001430       0.000143       0.000000
      0.001363       0.000093       0.000000
      0.001430       0.000143       0.000000
      0.001389       0.000115       0.000000
      0.001335       0.000069       0.000000
      0.001430       0.000143       0.000000
      0.001510       0.000208       0.000000
      0.001453       0.000174       0.000000
      0.001389       0.000115       0.000000
      0.000000       0.000000       0.000000
      0.000000       0.000000       0.000000
      0.000578       0.000199       0.000000
      0.000565       0.000152       0.000000
      0.000000       0.000000       0.000000
      0.000000       0.000000       0.000000
      0.000575       0.000184       0.000000
      0.000578       0.000199       0.000000
      0.000565       0.000152       0.000000
      0.000578       0.000199       0.000000
      0.001151       0.000400       0.000000
      0.001067       0.000270       0.000000
      0.000578       0.000199       0.000000
      0.000575       0.000184       0.000000
      0.001208       0.000353       0.000000
      0.001151       0.000400       0.000000
      0.000000       0.000000       0.000000
      0.000000       0.000000       0.000000
      0.000595       0.000123       0.000000
      0.000575       0.000184       0.000000
      0.000000       0.000000       0.000000
      0.000000       0.000000       0.000000
      0.000635       0.000065       0.000000
      0.000595       0.000123       0.000000
      0.000575       0.000184       0.000000
      0.000595       0.000123       0.000000
      0.001307       0.000205       0.000000
      0.001208       0.000353       0.000000
      0.000595       0.000123       0.000000
      0.000635       0.000065       0.000000
      0.001412       0.000094       0.000000
      0.001307       0.000205       0.000000
      0.000000       0.000000       0.000000
      0.000000       0.000000       0.000000
      0.000669       0.000027       0.000000
      0.000635       0.000065       0.000000
      0.000000       0.000000       0.000000
      0.000000       0.000000       0.000000
      0.000683       0.000000       0.000000
      0.000669       0.000027       0.000000
      0.000635       0.000065       0.000000
      0.000669       0.000027       0.000000
      0.001484       0.000033       0.000000
      0.001412       0.000094       0.000000
      0.000669       0.000027       0.000000
      0.000683       0.000000       0.000000
      0.001509       0.000000       0.000000
      0.001484       0.000033       0.000000
      0.001067       0.000270       0.000000
      0.001151       0.000400       0.000000
      0.001726       0.000606       0.000000
      0.001455       0.000296       0.000000
      0.001151       0.000400       0.000000
      0.001208       0.000353       0.000000
      0.001957       0.000459       0.000000
      0.001726       0.000606       0.000000
      0.001208       0.000353       0.000000
      0.001307       0.000205       0.000000
      0.002215       0.000205       0.000000
      0.001957       0.000459       0.000000
      0.001307       0.000205       0.000000
      0.001412       0.000094       0.000000
      0.002393       0.000073       0.000000
      0.002215       0.000205       0.000000
      0.001957       0.000459       0.000000
      0.002215       0.000205       0.000000
      0.003515       0.000131       0.000000
      0.003259       0.000404       0.000000
      0.002215       0.000205       0.000000
      0.002393       0.000073       0.000000
      0.003647       0.000028       0.000000