# vtk DataFile Version 2.0
time_10.vtk
ASCII
DATASET UNSTRUCTURED_GRID
POINTS  1428 float
      0.000000       0.000000       0.000000
      0.083333       0.000000       0.000000
      0.083333       0.083333       0.000000
      0.000000       0.083333       0.000000
      0.083333       0.000000       0.000000
      0.166667       0.000000       0.000000
      0.166667       0.083333       0.000000
      0.083333       0.083333       0.000000
      0.000000       0.083333       0.000000
      0.083333       0.083333       0.000000
      0.083333       0.166667       0.000000
      0.000000       0.166667       0.000000
      0.083333       0.083333       0.000000
      0.166667       0.083333       0.000000
      0.166667       0.166667       0.000000
      0.083333       0.166667       0.000000
      0.166667       0.000000       0.000000
      0.250000       0.000000       0.000000
      0.250000       0.083333       0.000000
      0.166667       0.083333       0.000000
      0.250000       0.000000       0.000000
      0.333333       0.000000       0.000000
      0.333333       0.083333       0.000000
      0.250000       0.083333       0.000000
      0.166667       0.083333       0.000000
      0.250000       0.083333       0.000000
      0.250000       0.166667       0.000000
      0.166667       0.166667       0.000000
      0.250000       0.083333       0.000000
      0.333333       0.083333       0.000000
      0.333333       0.166667       0.000000
      0.250000       0.166667       0.000000
      0.333333       0.000000       0.000000
      0.416667      -0.000000       0.000000
      0.416667       0.083333       0.000000
      0.333333       0.083333       0.000000
      0.416667      -0.000000       0.000000
      0.500000       0.000000       0.000000
      0.500000       0.083333       0.000000
      0.416667       0.083333       0.000000
      0.333333       0.083333       0.000000
      0.416667       0.083333       0.000000
      0.416667       0.166667       0.000000
      0.333333       0.166667       0.000000
      0.416667       0.083333       0.000000
      0.500000       0.083333       0.000000
      0.500000       0.166667       0.000000
      0.416667       0.166667       0.000000
      0.000000       0.166667       0.000000
      0.083333       0.166667       0.000000
      0.083333       0.250000       0.000000
      0.000000       0.250000       0.000000
      0.083333       0.166667       0.000000
      0.166667       0.166667       0.000000
      0.166667       0.250000       0.000000
      0.083333       0.250000       0.000000
      0.000000       0.250000       0.000000
      0.083333       0.250000       0.000000
      0.083333       0.333333       0.000000
      0.000000       0.333333       0.000000
      0.083333       0.250000       0.000000
      0.166667       0.250000       0.000000
      0.166667       0.333333       0.000000
      0.083333       0.333333       0.000000
      0.166667       0.166667       0.000000
      0.250000       0.166667       0.000000
      0.250000       0.250000       0.000000
      0.166667       0.250000       0.000000
      0.250000       0.166667       0.000000
      0.333333       0.166667       0.000000
      0.333333       0.250000       0.000000
      0.250000       0.250000       0.000000
      0.166667       0.250000       0.000000
      0.250000       0.250000       0.000000
      0.250000       0.333333       0.000000
      0.166667       0.333333       0.000000
      0.250000       0.250000       0.000000
      0.333333       0.250000       0.000000
      0.333333       0.333333       0.000000
      0.250000       0.333333       0.000000
      0.333333       0.166667       0.000000
      0.416667       0.166667       0.000000
      0.416667       0.250000       0.000000
      0.333333       0.250000       0.000000
      0.416667       0.166667       0.000000
      0.500000       0.166667       0.000000
      0.500000       0.250000       0.000000
      0.416667       0.250000       0.000000
      0.333333       0.250000       0.000000
      0.416667       0.250000       0.000000
      0.416667       0.333333       0.000000
      0.333333       0.333333       0.000000
      0.000000       0.333333       0.000000
      0.083333       0.333333       0.000000
      0.083333       0.416667       0.000000
     -0.000000       0.416667       0.000000
      0.083333       0.333333       0.000000
      0.166667       0.333333       0.000000
      0.166667       0.416667       0.000000
      0.083333       0.416667       0.000000
     -0.000000       0.416667       0.000000
      0.083333       0.416667       0.000000
      0.083333       0.500000       0.000000
      0.000000       0.500000       0.000000
      0.083333       0.416667       0.000000
      0.166667       0.416667       0.000000
      0.166667       0.500000       0.000000
      0.083333       0.500000       0.000000
      0.166667       0.333333       0.000000
      0.250000       0.333333       0.000000
      0.250000       0.416667       0.000000
      0.166667       0.416667       0.000000
      0.250000       0.333333       0.000000
      0.333333       0.333333       0.000000
      0.333333       0.416667       0.000000
      0.250000       0.416667       0.000000
      0.166667       0.416667       0.000000
      0.250000       0.416667       0.000000
      0.250000       0.500000       0.000000
      0.166667       0.500000       0.000000
      0.250000       0.416667       0.000000
      0.333333       0.416667       0.000000
      0.333333       0.500000       0.000000
      0.250000       0.500000       0.000000
      0.333333       0.333333       0.000000
      0.375000       0.333333       0.000000
      0.375000       0.375000       0.000000
      0.333333       0.375000       0.000000
      0.375000       0.333333       0.000000
      0.416667       0.333333       0.000000
      0.416667       0.375000       0.000000
      0.375000       0.375000       0.000000
      0.333333       0.375000       0.000000
      0.375000       0.375000       0.000000
      0.375000       0.416667       0.000000
      0.333333       0.416667       0.000000
      0.375000       0.375000       0.000000
      0.416667       0.375000       0.000000
      0.416667       0.416667       0.000000
      0.375000       0.416667       0.000000
      0.416667       0.333333       0.000000
      0.458333       0.333333       0.000000
      0.458333       0.375000       0.000000
      0.416667       0.375000       0.000000
      0.416667       0.375000       0.000000
      0.458333       0.375000       0.000000
      0.458333       0.416667       0.000000
      0.416667       0.416667       0.000000
      0.333333       0.416667       0.000000
      0.375000       0.416667       0.000000
      0.375000       0.458333       0.000000
      0.333333       0.458333       0.000000
      0.375000       0.416667       0.000000
      0.416667       0.416667       0.000000
      0.416667       0.458333       0.000000
      0.375000       0.458333       0.000000
      0.333333       0.458333       0.000000
      0.375000       0.458333       0.000000
      0.375000       0.500000       0.000000
      0.333333       0.500000       0.000000
      0.375000       0.458333       0.000000
      0.416667       0.458333       0.000000
      0.416667       0.500000       0.000000
      0.375000       0.500000       0.000000
      0.416667       0.416667       0.000000
      0.437500       0.416667       0.000000
      0.437500       0.437500       0.000000
      0.416667       0.437500       0.000000
      0.437500       0.416667       0.000000
      0.458333       0.416667       0.000000
      0.458333       0.437500       0.000000
      0.437500       0.437500       0.000000
      0.416667       0.437500       0.000000
      0.437500       0.437500       0.000000
      0.437500       0.458333       0.000000
      0.416667       0.458333       0.000000
      0.437500       0.437500       0.000000
      0.458333       0.437500       0.000000
      0.458333       0.458333       0.000000
      0.437500       0.458333       0.000000
      0.458333       0.416667       0.000000
      0.479167       0.416667       0.000000
      0.479167       0.437500       0.000000
      0.458333       0.437500       0.000000
      0.458333       0.437500       0.000000
      0.479167       0.437500       0.000000
      0.479167       0.458333       0.000000
      0.458333       0.458333       0.000000
      0.416667       0.458333       0.000000
      0.437500       0.458333       0.000000
      0.437500       0.479167       0.000000
      0.416667       0.479167       0.000000
      0.437500       0.458333       0.000000
      0.458333       0.458333       0.000000
      0.458333       0.479167       0.000000
      0.437500       0.479167       0.000000
      0.416667       0.479167       0.000000
      0.437500       0.479167       0.000000
      0.437500       0.500000       0.000000
      0.416667       0.500000       0.000000
      0.437500       0.479167       0.000000
      0.458333       0.479167       0.000000
      0.458333       0.500000       0.000000
      0.437500       0.500000       0.000000
      0.458333       0.458333       0.000000
      0.468750       0.458333       0.000000
      0.468750       0.468750       0.000000
      0.458333       0.468750       0.000000
      0.468750       0.458333       0.000000
      0.479167       0.458333       0.000000
      0.479167       0.468750       0.000000
      0.468750       0.468750       0.000000
      0.458333       0.468750       0.000000
      0.468750       0.468750       0.000000
      0.468750       0.479167       0.000000
      0.458333       0.479167       0.000000
      0.468750       0.468750       0.000000
      0.479167       0.468750       0.000000
      0.479167       0.479167       0.000000
      0.468750       0.479167       0.000000
[...]
POINT_DATA  1428
VECTORS U float 
      0.000000       0.000000       0.000000
      0.000000       0.000000       0.000000
      0.000441       0.000010       0.000000
      0.000433       0.000000       0.000000
      0.000000       0.000000       0.000000
      0.000000       0.000000       0.000000
      0.000463       0.000023       0.000000
      0.000441       0.000010       0.000000
      0.000433       0.000000       0.000000
      0.000441       0.000010       0.000000
      0.000816       0.000009       0.000000
      0.000803       0.000000       0.000000
      0.000441       0.000010       0.000000
      0.000463       0.000023       0.000000
      0.000855       0.000026       0.000000
      0.000816       0.000009       0.000000
      0.000000       0.000000       0.000000
      0.000000       0.000000       0.000000
      0.000497       0.000043       0.000000
      0.000463       0.000023       0.000000
      0.000000       0.000000       0.000000
      0.000000       0.000000       0.000000
      0.000535       0.000074       0.000000
      0.000497       0.000043       0.000000
      0.000463       0.000023       0.000000
      0.000497       0.000043       0.000000
      0.000918       0.000058       0.000000
      0.000855       0.000026       0.000000
      0.000497       0.000043       0.000000
      0.000535       0.000074       0.000000
      0.000998       0.000117       0.000000
      0.000918       0.000058       0.000000
      0.000000       0.000000       0.000000
      0.000000       0.000000       0.000000
      0.000565       0.000114       0.000000
      0.000535       0.000074       0.000000
      0.000000       0.000000       0.000000
      0.000000       0.000000       0.000000
      0.000575       0.000148       0.000000
      0.000565       0.000114       0.000000
      0.000535       0.000074       0.000000
      0.000565       0.000114       0.000000
      0.001078       0.000205       0.000000
      0.000998       0.000117       0.000000
      0.000565       0.000114       0.000000
      0.000575       0.000148       0.000000
      0.001132       0.000293       0.000000
      0.001078       0.000205       0.000000
      0.000803       0.000000       0.000000
      0.000816       0.000009       0.000000
      0.001108       0.000000       0.000000
      0.001092       0.000000       0.000000
      0.000816       0.000009       0.000000
      0.000855       0.000026       0.000000
      0.001159       0.000010       0.000000
      0.001108       0.000000       0.000000
      0.001092       0.000000       0.000000
      0.001108       0.000000       0.000000
      0.001313      -0.000013       0.000000
      0.001296       0.000000       0.000000
      0.001108       0.000000       0.000000
      0.001159       0.000010       0.000000
      0.001364      -0.000018       0.000000
      0.001313      -0.000013       0.000000
      0.000855       0.000026       0.000000
      0.000918       0.000058       0.000000
      0.001245       0.000041       0.000000
      0.001159       0.000010       0.000000
      0.000918       0.000058       0.000000
      0.000998       0.000117       0.000000
      0.001369       0.000113       0.000000
      0.001245       0.000041       0.000000
      0.001159       0.000010       0.000000
      0.001245       0.000041       0.000000
      0.001455      -0.000003       0.000000
      0.001364      -0.000018       0.000000
      0.001245       0.000041       0.000000
      0.001369       0.000113       0.000000
      0.001599       0.000055       0.000000
      0.001455      -0.000003       0.000000
      0.000998       0.000117       0.000000
      0.001078       0.000205       0.000000
      0.001525       0.000246       0.000000
      0.001369       0.000113       0.000000
      0.001078       0.000205       0.000000
      0.001132       0.000293       0.000000
      0.001672       0.000420       0.000000
      0.001525       0.000246       0.000000
      0.001369       0.000113       0.000000
      0.001525       0.000246       0.000000
      0.001822       0.000194       0.000000
      0.001599       0.000055       0.000000
      0.001296       0.000000       0.000000
      0.001313      -0.000013       0.000000
      0.001436      -0.000027       0.000000
      0.001423       0.000000       0.000000
      0.001313      -0.000013       0.000000
      0.001364      -0.000018       0.000000
      0.001476      -0.000047       0.000000
      0.001436      -0.000027       0.000000
      0.001423       0.000000       0.000000
      0.001436      -0.000027       0.000000
      0.001495      -0.000037       0.000000
      0.001486       0.000000       0.000000
      0.001436      -0.000027       0.000000
      0.001476      -0.000047       0.000000
      0.001522      -0.000066       0.000000
      0.001495      -0.000037       0.000000
      0.001364      -0.000018       0.000000
      0.001455      -0.000003       0.000000
      0.001546      -0.000050       0.000000
      0.001476      -0.000047       0.000000
      0.001455      -0.000003       0.000000
      0.001599       0.000055       0.000000
      0.001653      -0.000021       0.000000
      0.001546      -0.000050       0.000000
      0.001476      -0.000047       0.000000
      0.001546      -0.000050       0.000000
      0.001562      -0.000079       0.000000
      0.001522      -0.000066       0.000000
      0.001546      -0.000050       0.000000
      0.001653      -0.000021       0.000000
      0.001604      -0.000058       0.000000
      0.001562      -0.000079       0.000000
      0.001599       0.000055       0.000000
      0.001699       0.000111       0.000000
      0.001739       0.000061       0.000000
      0.001646       0.000015       0.000000
      0.001699       0.000111       0.000000
      0.001822       0.000194       0.000000
      0.001859       0.000135       0.000000
      0.001739       0.000061       0.000000
      0.001646       0.000015       0.000000
      0.001739       0.000061       0.000000
      0.001723       0.000017       0.000000
      0.001653      -0.000021       0.000000
      0.001739       0.000061       0.000000
      0.001859       0.000135       0.000000
      0.001809       0.000079       0.000000
      0.001723       0.000017       0.000000
      0.001822       0.000194       0.000000
      0.001974       0.000321       0.000000
      0.002020       0.000252       0.000000
      0.001859       0.000135       0.000000
      0.001859       0.000135       0.000000
      0.002020       0.000252       0.000000
      0.001916       0.000179       0.000000
      0.001809       0.000079       0.000000
      0.001653      -0.000021       0.000000
      0.001723       0.000017       0.000000
      0.001673      -0.000012       0.000000
      0.001631      -0.000045       0.000000
      0.001723       0.000017       0.000000
      0.001809       0.000079       0.000000
      0.001715       0.000049       0.000000
      0.001673      -0.000012       0.000000
      0.001631      -0.000045       0.000000
      0.001673      -0.000012       0.000000
      0.001618      -0.000023       0.000000
      0.001604      -0.000058       0.000000
      0.001673      -0.000012       0.000000
      0.001715       0.000049       0.000000
      0.001623       0.000041       0.000000
      0.001618      -0.000023       0.000000
      0.001809       0.000079       0.000000
      0.001859       0.000123       0.000000
      0.001798       0.000104       0.000000
      0.001764       0.000060       0.000000
      0.001859       0.000123       0.000000
      0.001916       0.000179       0.000000
      0.001833       0.000160       0.000000
      0.001798       0.000104       0.000000
      0.001764       0.000060       0.000000
      0.001798       0.000104       0.000000
      0.001735       0.000094       0.000000
      0.001715       0.000049       0.000000
      0.001798       0.000104       0.000000
      0.001833       0.000160       0.000000
      0.001753       0.000151       0.000000
      0.001735       0.000094       0.000000
      0.001916       0.000179       0.000000
      0.001983       0.000251       0.000000
      0.001868       0.000232       0.000000
      0.001833       0.000160       0.000000
      0.001833       0.000160       0.000000
      0.001868       0.000232       0.000000
      0.001769       0.000225       0.000000
      0.001753       0.000151       0.000000
      0.001715       0.000049       0.000000
      0.001735       0.000094       0.000000
      0.001676       0.000089       0.000000
      0.001667       0.000043       0.000000
      0.001735       0.000094       0.000000
      0.001753       0.000151       0.000000
      0.001683       0.000149       0.000000
      0.001676       0.000089       0.000000
      0.001667       0.000043       0.000000
      0.001676       0.000089       0.000000
      0.001622       0.000088       0.000000
      0.001623       0.000041       0.000000
      0.001676       0.000089       0.000000
      0.001683       0.000149       0.000000
      0.001620       0.000148       0.000000
      0.001622       0.000088       0.000000
      0.001753       0.000151       0.000000
      0.001761       0.000186       0.000000
      0.001722       0.000184       0.000000
      0.001717       0.000150       0.000000
      0.001761       0.000186       0.000000
      0.001769       0.000225       0.000000
      0.001727       0.000223       0.000000
      0.001722       0.000184       0.000000
      0.001717       0.000150       0.000000
      0.001722       0.000184       0.000000
      0.001687       0.000183       0.000000
      0.001683       0.000149       0.000000
      0.001722       0.000184       0.000000
      0.001727       0.000223       0.000000
      0.001690       0.000221       0.000000
      0.001687       0.000183       0.000000
      0.001769       0.000225       0.000000
      0.001777       0.000270       0.000000
      0.001734       0.000266       0.000000
      0.001727       0.000223       0.000000
      0.001777       0.000270       0.000000
      0.001787       0.000321       0.000000
      0.001748       0.000322       0.000000
      0.001734       0.000266       0.000000
      0.001727       0.000223       0.000000
      0.001734       0.000266       0.000000
      0.001696       0.000262       0.000000
      0.001690       0.000221       0.000000
      0.001734       0.000266       0.000000
      0.001748       0.000322       0.000000
      0.001700       0.000323       0.000000
      0.001696       0.000262       0.000000
      0.001683       0.000149       0.000000
      0.001687       0.000183       0.000000
      0.001653       0.000182       0.000000
      0.001652       0.000148       0.000000
      0.001687       0.000183       0.000000
      0.001690       0.000221       0.000000
      0.001656       0.000218       0.000000
      0.001653       0.000182       0.000000
      0.001652       0.000148       0.000000
      0.001653       0.000182       0.000000
      0.001620       0.000182       0.000000
      0.001620       0.000148       0.000000
      0.001653       0.000182       0.000000
      0.001656       0.000218       0.000000
      0.001626       0.000220       0.000000
      0.001620       0.000182       0.000000
      0.001690       0.000221       0.000000
      0.001696       0.000262       0.000000
      0.001661       0.000253       0.000000
      0.001656       0.000218       0.000000
      0.001696       0.000262       0.000000
      0.001700       0.000323       0.000000
      0.001428       0.000260       0.000000
      0.001661       0.000253       0.000000
      0.001656       0.000218       0.000000
      0.001661       0.000253       0.000000
      0.001669       0.000266       0.000000
      0.001626       0.000220       0.000000
      0.001661       0.000253       0.000000
      0.001428       0.000260       0.000000
      0.007478       0.000670       0.000000
      0.001669       0.000266       0.000000
      0.001868       0.000232       0.000000
      0.001886       0.000276       0.000000
      0.001827       0.000273       0.000000
      0.001816       0.000228       0.000000
      0.001886       0.000276       0.000000
      0.001905       0.000329       0.000000
      0.001840       0.000326       0.000000
      0.001827       0.000273       0.000000
      0.001816       0.000228       0.000000
      0.001827       0.000273       0.000000
      0.001777       0.000270       0.000000
      0.001769       0.000225       0.000000
      0.001827       0.000273       0.000000
      0.001840       0.000326       0.000000
      0.001787       0.000321       0.000000
      0.001777       0.000270       0.000000
      0.002020       0.000252       0.000000
      0.002126       0.000339       0.000000
      0.002080       0.000291       0.000000
      0.001984       0.000212       0.000000
      0.002126       0.000339       0.000000
      0.002260       0.000455       0.000000
      0.002213       0.000401       0.000000
      0.002080       0.000291       0.000000
      0.001984       0.000212       0.000000
      0.002080       0.000291       0.000000
      0.001983       0.000251       0.000000
      0.001916       0.000179       0.000000
      0.001983       0.000251       0.000000
      0.002022       0.000296       0.000000
      0.001953       0.000283       0.000000
      0.001925       0.000239       0.000000
      0.002022       0.000296       0.000000
      0.002070       0.000348       0.000000
      0.001983       0.000335       0.000000
      0.001953       0.000283       0.000000
      0.001925       0.000239       0.000000
      0.001953       0.000283       0.000000
      0.001886       0.000276       0.000000
      0.001868       0.000232       0.000000
      0.001953       0.000283       0.000000
      0.001983       0.000335       0.000000
      0.001905       0.000329       0.000000
      0.001886       0.000276       0.000000
      0.002080       0.000291       0.000000
      0.002140       0.000341       0.000000
      0.002088       0.000315       0.000000
      0.002036       0.000269       0.000000
      0.002140       0.000341       0.000000
      0.002213       0.000401       0.000000
      0.002151       0.000372       0.000000
      0.002088       0.000315       0.000000
      0.002036       0.000269       0.000000
      0.002088       0.000315       0.000000
      0.002022       0.000296       0.000000
      0.001983       0.000251       0.000000
      0.002088       0.000315       0.000000
      0.002151       0.000372       0.000000
      0.002070       0.000348       0.000000
      0.002022       0.000296       0.000000
      0.001525       0.000246       0.000000
      0.001604       0.000335       0.000000
      0.001818       0.000346       0.000000
      0.001703       0.000234       0.000000
      0.001604       0.000335       0.000000
      0.001672       0.000420       0.000000
      0.001928       0.000469       0.000000
      0.001818       0.000346       0.000000
      0.001703       0.000234       0.000000
      0.001818       0.000346       0.000000
      0.001974       0.000321       0.000000
      0.001822       0.000194       0.000000
      0.001818       0.000346       0.000000
      0.001928       0.000469       0.000000
      0.002147       0.000492       0.000000
      0.001974       0.000321       0.000000
      0.001974       0.000321       0.000000
      0.002059       0.000401       0.000000
      0.002115       0.000378       0.000000
      0.002015       0.000291       0.000000
      0.002059       0.000401       0.000000
      0.002147       0.000492       0.000000
      0.002227       0.000484       0.000000
      0.002115       0.000378       0.000000
      0.002015       0.000291       0.000000
      0.002115       0.000378       0.000000
      0.002126       0.000339       0.000000
      0.002020       0.000252       0.000000
      0.002115       0.000378       0.000000
      0.002227       0.000484       0.000000
      0.002260       0.000455       0.000000
      0.002126       0.000339       0.000000
      0.000000       0.000000       0.000000
      0.000000       0.000000       0.000000
      0.000570       0.000156       0.000000
      0.000575       0.000148       0.000000
      0.000000       0.000000       0.000000
      0.000000       0.000000       0.000000
      0.000570       0.000128       0.000000
      0.000570       0.000156       0.000000
      0.000575       0.000148       0.000000
      0.000570       0.000156       0.000000
      0.001159       0.000313       0.000000
      0.001132       0.000293       0.000000
      0.000570       0.000156       0.000000
      0.000570       0.000128       0.000000
      0.001195       0.000242       0.000000
      0.001159       0.000313       0.000000
      0.000000       0.000000       0.000000
      0.000000       0.000000       0.000000
      0.000586       0.000085       0.000000
      0.000570       0.000128       0.000000
      0.000000       0.000000       0.000000
      0.000000       0.000000       0.000000
      0.000613       0.000048       0.000000
      0.000586       0.000085       0.000000
      0.000570       0.000128       0.000000
      0.000586       0.000085       0.000000
      0.001257       0.000145       0.000000
      0.001195       0.000242       0.000000
      0.000586       0.000085       0.000000
      0.000613       0.000048       0.000000
      0.001323       0.000072       0.000000
      0.001257       0.000145       0.000000
      0.000000       0.000000       0.000000
      0.000000       0.000000       0.000000
      0.000635       0.000020       0.000000
      0.000613       0.000048       0.000000
      0.000000       0.000000       0.000000
      0.000000       0.000000       0.000000
      0.000644       0.000000       0.000000
      0.000635       0.000020       0.000000
      0.000613       0.000048       0.000000
      0.000635       0.000020       0.000000
      0.001370       0.000028       0.000000
      0.001323       0.000072       0.000000
      0.000635       0.000020       0.000000
      0.000644       0.000000       0.000000
      0.001387       0.000000       0.000000
      0.001370       0.000028       0.000000
      0.001132       0.000293       0.000000
      0.001159       0.000313       0.000000
      0.001770       0.000464       0.000000
      0.001672       0.000420       0.000000
      0.001159       0.000313       0.000000
      0.001195       0.000242       0.000000
      0.001893       0.000314       0.000000
      0.001770       0.000464       0.000000
      0.001770       0.000464       0.000000
      0.001893       0.000314       0.000000
      0.002782       0.000289       0.000000
      0.002449       0.000600       0.000000
      0.001195       0.000242       0.000000
      0.001257       0.000145       0.000000
      0.002041       0.000157       0.000000
      0.001893       0.000314       0.000000
      0.001257       0.000145       0.000000
      0.001323       0.000072       0.000000
      0.002161       0.000063       0.000000
      0.002041       0.000157       0.000000
      0.001893       0.000314       0.000000
      0.002041       0.000157       0.000000
      0.003032       0.000101       0.000000
      0.002782       0.000289       0.000000
      0.002041       0.000157       0.000000
      0.002161       0.000063       0.000000
      0.003179       0.000022       0.000000
      0.003032       0.000101       0.000000
      0.001323       0.000072       0.000000
      0.001370       0.000028       0.000000
      0.002234       0.000019       0.000000
      0.002161       0.000063       0.000000
      0.001370       0.000028       0.000000
      0.001387       0.000000       0.000000
      0.002259       0.000000       0.000000