# vtk DataFile Version 2.0
time_10.vtk
ASCII
DATASET UNSTRUCTURED_GRID
POINTS  2448 float
      0.000000       0.000000       0.000000
      0.083333       0.000000       0.000000
      0.083333       0.083333       0.000000
      0.000000       0.083333       0.000000
      0.083333       0.000000       0.000000
      0.166667       0.000000       0.000000
      0.166667       0.083333       0.000000
      0.083333       0.083333       0.000000
      0.000000       0.083333       0.000000
      0.083333       0.083333       0.000000
      0.083333       0.166667       0.000000
      0.000000       0.166667       0.000000
      0.083333       0.083333       0.000000
      0.166667       0.083333       0.000000
      0.166667       0.166667       0.000000
      0.083333       0.166667       0.000000
      0.166667       0.000000       0.000000
      0.250000       0.000000       0.000000
      0.250000       0.083333       0.000000
      0.166667       0.083333       0.000000
      0.250000       0.000000       0.000000
      0.333333       0.000000       0.000000
      0.333333       0.083333       0.000000
      0.250000       0.083333       0.000000
      0.166667       0.083333       0.000000
      0.250000       0.083333       0.000000
      0.250000       0.166667       0.000000
      0.166667       0.166667       0.000000
      0.250000       0.083333       0.000000
      0.333333       0.083333       0.000000
      0.333333       0.166667       0.000000
      0.250000       0.166667       0.000000
      0.333333       0.000000       0.000000
      0.416667      -0.000000       0.000000
      0.416667       0.083333       0.000000
      0.333333       0.083333       0.000000
      0.416667      -0.000000       0.000000
      0.500000       0.000000       0.000000
      0.500000       0.083333       0.000000
      0.416667       0.083333       0.000000
      0.333333       0.083333       0.000000
      0.416667       0.083333       0.000000
      0.416667       0.166667       0.000000
      0.333333       0.166667       0.000000
      0.416667       0.083333       0.000000
      0.500000       0.083333       0.000000
      0.500000       0.166667       0.000000
      0.416667       0.166667       0.000000
      0.000000       0.166667       0.000000
      0.083333       0.166667       0.000000
      0.083333       0.250000       0.000000
      0.000000       0.250000       0.000000
      0.083333       0.166667       0.000000
      0.166667       0.166667       0.000000
      0.166667       0.250000       0.000000
      0.083333       0.250000       0.000000
      0.000000       0.250000       0.000000
      0.083333       0.250000       0.000000
      0.083333       0.333333       0.000000
      0.000000       0.333333       0.000000
      0.083333       0.250000       0.000000
      0.166667       0.250000       0.000000
      0.166667       0.333333       0.000000
      0.083333       0.333333       0.000000
      0.166667       0.166667       0.000000
      0.250000       0.166667       0.000000
      0.250000       0.250000       0.000000
      0.166667       0.250000       0.000000
      0.250000       0.166667       0.000000
      0.333333       0.166667       0.000000
      0.333333       0.250000       0.000000
      0.250000       0.250000       0.000000
      0.166667       0.250000       0.000000
      0.250000       0.250000       0.000000
      0.250000       0.333333       0.000000
      0.166667       0.333333       0.000000
      0.250000       0.250000       0.000000
      0.333333       0.250000       0.000000
      0.333333       0.333333       0.000000
      0.250000       0.333333       0.000000
      0.333333       0.166667       0.000000
      0.416667       0.166667       0.000000
      0.416667       0.250000       0.000000
      0.333333       0.250000       0.000000
      0.333333       0.250000       0.000000
      0.416667       0.250000       0.000000
      0.416667       0.333333       0.000000
      0.333333       0.333333       0.000000
      0.000000       0.333333       0.000000
      0.083333       0.333333       0.000000
      0.083333       0.416667       0.000000
     -0.000000       0.416667       0.000000
      0.083333       0.333333       0.000000
      0.166667       0.333333       0.000000
      0.166667       0.416667       0.000000
      0.083333       0.416667       0.000000
     -0.000000       0.416667       0.000000
      0.083333       0.416667       0.000000
      0.083333       0.500000       0.000000
      0.000000       0.500000       0.000000
      0.083333       0.416667       0.000000
      0.166667       0.416667       0.000000
      0.166667       0.500000       0.000000
      0.083333       0.500000       0.000000
      0.166667       0.333333       0.000000
      0.250000       0.333333       0.000000
      0.250000       0.416667       0.000000
      0.166667       0.416667       0.000000
      0.250000       0.333333       0.000000
      0.333333       0.333333       0.000000
      0.333333       0.416667       0.000000
      0.250000       0.416667       0.000000
      0.166667       0.416667       0.000000
      0.250000       0.416667       0.000000
      0.250000       0.500000       0.000000
      0.166667       0.500000       0.000000
      0.250000       0.416667       0.000000
      0.333333       0.416667       0.000000
      0.333333       0.500000       0.000000
      0.250000       0.500000       0.000000
      0.333333       0.333333       0.000000
      0.375000       0.333333       0.000000
      0.375000       0.375000       0.000000
      0.333333       0.375000       0.000000
      0.375000       0.333333       0.000000
      0.416667       0.333333       0.000000
      0.416667       0.375000       0.000000
      0.375000       0.375000       0.000000
      0.333333       0.375000       0.000000
      0.375000       0.375000       0.000000
      0.375000       0.416667       0.000000
      0.333333       0.416667       0.000000
      0.375000       0.375000       0.000000
      0.416667       0.375000       0.000000
      0.416667       0.416667       0.000000
      0.375000       0.416667       0.000000
      0.416667       0.333333       0.000000
      0.458333       0.333333       0.000000
      0.458333       0.375000       0.000000
      0.416667       0.375000       0.000000
      0.416667       0.375000       0.000000
      0.458333       0.375000       0.000000
      0.458333       0.416667       0.000000
      0.416667       0.416667       0.000000
      0.333333       0.416667       0.000000
      0.375000       0.416667       0.000000
      0.375000       0.458333       0.000000
      0.333333       0.458333       0.000000
      0.375000       0.416667       0.000000
      0.416667       0.416667       0.000000
      0.416667       0.458333       0.000000
      0.375000       0.458333       0.000000
      0.333333       0.458333       0.000000
      0.375000       0.458333       0.000000
      0.375000       0.500000       0.000000
      0.333333       0.500000       0.000000
      0.375000       0.458333       0.000000
      0.416667       0.458333       0.000000
      0.416667       0.500000       0.000000
      0.375000       0.500000       0.000000
      0.416667       0.416667       0.000000
      0.437500       0.416667       0.000000
      0.437500       0.437500       0.000000
      0.416667       0.437500       0.000000
      0.437500       0.416667       0.000000
      0.458333       0.416667       0.000000
      0.458333       0.437500       0.000000
      0.437500       0.437500       0.000000
      0.416667       0.437500       0.000000
      0.437500       0.437500       0.000000
      0.437500       0.458333       0.000000
      0.416667       0.458333       0.000000
      0.437500       0.437500       0.000000
      0.458333       0.437500       0.000000
      0.458333       0.458333       0.000000
      0.437500       0.458333       0.000000
      0.458333       0.416667       0.000000
      0.479167       0.416667       0.000000
      0.479167       0.437500       0.000000
      0.458333       0.437500       0.000000
      0.458333       0.437500       0.000000
      0.479167       0.437500       0.000000
      0.479167       0.458333       0.000000
      0.458333       0.458333       0.000000
      0.416667       0.458333       0.000000
      0.437500       0.458333       0.000000
      0.437500       0.479167       0.000000
      0.416667       0.479167       0.000000
      0.437500       0.458333       0.000000
      0.458333       0.458333       0.000000
      0.458333       0.479167       0.000000
      0.437500       0.479167       0.000000
      0.416667       0.479167       0.000000
      0.437500       0.479167       0.000000
      0.437500       0.500000       0.000000
      0.416667       0.500000       0.000000
      0.437500       0.479167       0.000000
      0.458333       0.479167       0.000000
      0.458333       0.500000       0.000000
      0.437500       0.500000       0.000000
      0.458333       0.458333       0.000000
      0.468750       0.458333       0.000000
      0.468750       0.468750       0.000000
      0.458333       0.468750       0.000000
      0.468750       0.458333       0.000000
      0.479167       0.458333       0.000000
      0.479167       0.468750       0.000000
      0.468750       0.468750       0.000000
      0.458333       0.468750       0.000000
      0.468750       0.468750       0.000000
      0.468750       0.479167       0.000000
      0.458333       0.479167       0.000000
      0.468750       0.468750       0.000000
      0.479167       0.468750       0.000000
      0.479167       0.479167       0.000000
      0.468750       0.479167       0.000000
      0.479167       0.458333       0.000000
      0.489583       0.458333       0.000000
      0.489583       0.468750       0.000000
      0.479167       0.468750       0.000000
[...]
POINT_DATA  2448
VECTORS U float 
      0.000000       0.000000       0.000000
      0.000000       0.000000       0.000000
      0.000112      -0.000002       0.000000
      0.000108       0.000000       0.000000
      0.000000       0.000000       0.000000
      0.000000       0.000000       0.000000
      0.000124      -0.000005       0.000000
      0.000112      -0.000002       0.000000
      0.000108       0.000000       0.000000
      0.000112      -0.000002       0.000000
      0.000209      -0.000009       0.000000
      0.000204       0.000000       0.000000
      0.000112      -0.000002       0.000000
      0.000124      -0.000005       0.000000
      0.000227      -0.000018       0.000000
      0.000209      -0.000009       0.000000
      0.000000       0.000000       0.000000
      0.000000       0.000000       0.000000
      0.000146      -0.000007       0.000000
      0.000124      -0.000005       0.000000
      0.000000       0.000000       0.000000
      0.000000       0.000000       0.000000
      0.000183      -0.000008       0.000000
      0.000146      -0.000007       0.000000
      0.000124      -0.000005       0.000000
      0.000146      -0.000007       0.000000
      0.000258      -0.000028       0.000000
      0.000227      -0.000018       0.000000
      0.000146      -0.000007       0.000000
      0.000183      -0.000008       0.000000
      0.000307      -0.000039       0.000000
      0.000258      -0.000028       0.000000
      0.000000       0.000000       0.000000
      0.000000       0.000000       0.000000
      0.000245      -0.000005       0.000000
      0.000183      -0.000008       0.000000
      0.000000       0.000000       0.000000
      0.000000       0.000000       0.000000
      0.000342       0.000013       0.000000
      0.000245      -0.000005       0.000000
      0.000183      -0.000008       0.000000
      0.000245      -0.000005       0.000000
      0.000382      -0.000046       0.000000
      0.000307      -0.000039       0.000000
      0.000245      -0.000005       0.000000
      0.000342       0.000013       0.000000
      0.000494      -0.000036       0.000000
      0.000382      -0.000046       0.000000
      0.000204       0.000000       0.000000
      0.000209      -0.000009       0.000000
      0.000286      -0.000016       0.000000
      0.000281       0.000000       0.000000
      0.000209      -0.000009       0.000000
      0.000227      -0.000018       0.000000
      0.000302      -0.000033       0.000000
      0.000286      -0.000016       0.000000
      0.000281       0.000000       0.000000
      0.000286      -0.000016       0.000000
      0.000342      -0.000022       0.000000
      0.000338       0.000000       0.000000
      0.000286      -0.000016       0.000000
      0.000302      -0.000033       0.000000
      0.000354      -0.000045       0.000000
      0.000342      -0.000022       0.000000
      0.000227      -0.000018       0.000000
      0.000258      -0.000028       0.000000
      0.000330      -0.000051       0.000000
      0.000302      -0.000033       0.000000
      0.000258      -0.000028       0.000000
      0.000307      -0.000039       0.000000
      0.000371      -0.000069       0.000000
      0.000330      -0.000051       0.000000
      0.000302      -0.000033       0.000000
      0.000330      -0.000051       0.000000
      0.000373      -0.000067       0.000000
      0.000354      -0.000045       0.000000
      0.000330      -0.000051       0.000000
      0.000371      -0.000069       0.000000
      0.000398      -0.000086       0.000000
      0.000373      -0.000067       0.000000
      0.000307      -0.000039       0.000000
      0.000382      -0.000046       0.000000
      0.000424      -0.000082       0.000000
      0.000371      -0.000069       0.000000
      0.000371      -0.000069       0.000000
      0.000424      -0.000082       0.000000
      0.000424      -0.000096       0.000000
      0.000398      -0.000086       0.000000
      0.000338       0.000000       0.000000
      0.000342      -0.000022       0.000000
      0.000383      -0.000026       0.000000
      0.000380       0.000000       0.000000
      0.000342      -0.000022       0.000000
      0.000354      -0.000045       0.000000
      0.000390      -0.000052       0.000000
      0.000383      -0.000026       0.000000
      0.000380       0.000000       0.000000
      0.000383      -0.000026       0.000000
      0.000414      -0.000028       0.000000
      0.000412       0.000000       0.000000
      0.000383      -0.000026       0.000000
      0.000390      -0.000052       0.000000
      0.000417      -0.000055       0.000000
      0.000414      -0.000028       0.000000
      0.000354      -0.000045       0.000000
      0.000373      -0.000067       0.000000
      0.000400      -0.000076       0.000000
      0.000390      -0.000052       0.000000
      0.000373      -0.000067       0.000000
      0.000398      -0.000086       0.000000
      0.000411      -0.000094       0.000000
      0.000400      -0.000076       0.000000
      0.000390      -0.000052       0.000000
      0.000400      -0.000076       0.000000
      0.000420      -0.000079       0.000000
      0.000417      -0.000055       0.000000
      0.000400      -0.000076       0.000000
      0.000411      -0.000094       0.000000
      0.000422      -0.000096       0.000000
      0.000420      -0.000079       0.000000
      0.000398      -0.000086       0.000000
      0.000411      -0.000093       0.000000
      0.000414      -0.000097       0.000000
      0.000405      -0.000091       0.000000
      0.000411      -0.000093       0.000000
      0.000424      -0.000096       0.000000
      0.000422      -0.000098       0.000000
      0.000414      -0.000097       0.000000
      0.000405      -0.000091       0.000000
      0.000414      -0.000097       0.000000
      0.000417      -0.000098       0.000000
      0.000411      -0.000094       0.000000
      0.000414      -0.000097       0.000000
      0.000422      -0.000098       0.000000
      0.000421      -0.000099       0.000000
      0.000417      -0.000098       0.000000
      0.000424      -0.000096       0.000000
      0.000435      -0.000094       0.000000
      0.000429      -0.000094       0.000000
      0.000422      -0.000098       0.000000
      0.000422      -0.000098       0.000000
      0.000429      -0.000094       0.000000
      0.000426      -0.000094       0.000000
      0.000421      -0.000099       0.000000
      0.000411      -0.000094       0.000000
      0.000417      -0.000098       0.000000
      0.000419      -0.000100       0.000000
      0.000416      -0.000095       0.000000
      0.000417      -0.000098       0.000000
      0.000421      -0.000099       0.000000
      0.000422      -0.000099       0.000000
      0.000419      -0.000100       0.000000
      0.000416      -0.000095       0.000000
      0.000419      -0.000100       0.000000
      0.000422      -0.000100       0.000000
      0.000422      -0.000096       0.000000
      0.000419      -0.000100       0.000000
      0.000422      -0.000099       0.000000
      0.000422      -0.000100       0.000000
      0.000422      -0.000100       0.000000
      0.000421      -0.000099       0.000000
      0.000424      -0.000097       0.000000
      0.000424      -0.000098       0.000000
      0.000422      -0.000099       0.000000
      0.000424      -0.000097       0.000000
      0.000426      -0.000094       0.000000
      0.000425      -0.000095       0.000000
      0.000424      -0.000098       0.000000
      0.000422      -0.000099       0.000000
      0.000424      -0.000098       0.000000
      0.000424      -0.000098       0.000000
      0.000422      -0.000099       0.000000
      0.000424      -0.000098       0.000000
      0.000425      -0.000095       0.000000
      0.000425      -0.000095       0.000000
      0.000424      -0.000098       0.000000
      0.000426      -0.000094       0.000000
      0.000428      -0.000090       0.000000
      0.000428      -0.000091       0.000000
      0.000425      -0.000095       0.000000
      0.000425      -0.000095       0.000000
      0.000428      -0.000091       0.000000
      0.000428      -0.000092       0.000000
      0.000425      -0.000095       0.000000
      0.000422      -0.000099       0.000000
      0.000424      -0.000098       0.000000
      0.000424      -0.000098       0.000000
      0.000422      -0.000100       0.000000
      0.000424      -0.000098       0.000000
      0.000425      -0.000095       0.000000
      0.000425      -0.000096       0.000000
      0.000424      -0.000098       0.000000
      0.000422      -0.000100       0.000000
      0.000424      -0.000098       0.000000
      0.000423      -0.000099       0.000000
      0.000422      -0.000100       0.000000
      0.000424      -0.000098       0.000000
      0.000425      -0.000096       0.000000
      0.000425      -0.000097       0.000000
      0.000423      -0.000099       0.000000
      0.000425      -0.000095       0.000000
      0.000427      -0.000094       0.000000
      0.000427      -0.000094       0.000000
      0.000425      -0.000096       0.000000
      0.000427      -0.000094       0.000000
      0.000428      -0.000092       0.000000
      0.000428      -0.000093       0.000000
      0.000427      -0.000094       0.000000
      0.000425      -0.000096       0.000000
      0.000427      -0.000094       0.000000
      0.000427      -0.000095       0.000000
      0.000425      -0.000096       0.000000
      0.000427      -0.000094       0.000000
      0.000428      -0.000093       0.000000
      0.000428      -0.000094       0.000000
      0.000427      -0.000095       0.000000
      0.000428      -0.000092       0.000000
      0.000430      -0.000089       0.000000
      0.000431      -0.000090       0.000000
      0.000428      -0.000093       0.000000
      0.000430      -0.000089       0.000000
      0.000434      -0.000086       0.000000
      0.000436      -0.000080       0.000000
      0.000431      -0.000090       0.000000
      0.000428      -0.000093       0.000000
      0.000431      -0.000090       0.000000
      0.000432      -0.000092       0.000000
      0.000428      -0.000094       0.000000
      0.000431      -0.000090       0.000000
      0.000436      -0.000080       0.000000
      0.000437      -0.000071       0.000000
      0.000432      -0.000092       0.000000
      0.000425      -0.000096       0.000000
      0.000427      -0.000095       0.000000
      0.000427      -0.000096       0.000000
      0.000425      -0.000097       0.000000
      0.000427      -0.000095       0.000000
      0.000428      -0.000094       0.000000
      0.000429      -0.000096       0.000000
      0.000427      -0.000096       0.000000
      0.000425      -0.000097       0.000000
      0.000427      -0.000096       0.000000
      0.000427      -0.000095       0.000000
      0.000425      -0.000097       0.000000
      0.000427      -0.000096       0.000000
      0.000429      -0.000096       0.000000
      0.000435      -0.000092       0.000000
      0.000427      -0.000095       0.000000
      0.000428      -0.000094       0.000000
      0.000432      -0.000092       0.000000
      0.000432      -0.000098       0.000000
      0.000429      -0.000096       0.000000
      0.000432      -0.000092       0.000000
      0.000437      -0.000071       0.000000
      0.000294       0.000029       0.000000
      0.000432      -0.000098       0.000000
      0.000429      -0.000096       0.000000
      0.000432      -0.000098       0.000000
      0.000501      -0.000079       0.000000
      0.000435      -0.000092       0.000000
      0.000432      -0.000098       0.000000
      0.000294       0.000029       0.000000
      0.009712       0.000923       0.000000
      0.000501      -0.000079       0.000000
      0.000428      -0.000091       0.000000
      0.000429      -0.000088       0.000000
      0.000429      -0.000089       0.000000
      0.000428      -0.000091       0.000000
      0.000429      -0.000088       0.000000
      0.000431      -0.000085       0.000000
      0.000431      -0.000086       0.000000
      0.000429      -0.000089       0.000000
      0.000428      -0.000091       0.000000
      0.000429      -0.000089       0.000000
      0.000430      -0.000089       0.000000
      0.000428      -0.000092       0.000000
      0.000429      -0.000089       0.000000
      0.000431      -0.000086       0.000000
      0.000434      -0.000086       0.000000
      0.000430      -0.000089       0.000000
      0.000429      -0.000094       0.000000
      0.000431      -0.000090       0.000000
      0.000429      -0.000090       0.000000
      0.000427      -0.000094       0.000000
      0.000431      -0.000090       0.000000
      0.000434      -0.000083       0.000000
      0.000431      -0.000083       0.000000
      0.000429      -0.000090       0.000000
      0.000427      -0.000094       0.000000
      0.000429      -0.000090       0.000000
      0.000428      -0.000090       0.000000
      0.000426      -0.000094       0.000000
      0.000428      -0.000090       0.000000
      0.000429      -0.000087       0.000000
      0.000429      -0.000088       0.000000
      0.000428      -0.000090       0.000000
      0.000429      -0.000087       0.000000
      0.000430      -0.000084       0.000000
      0.000430      -0.000085       0.000000
      0.000429      -0.000088       0.000000
      0.000428      -0.000090       0.000000
      0.000429      -0.000088       0.000000
      0.000429      -0.000088       0.000000
      0.000428      -0.000091       0.000000
      0.000429      -0.000088       0.000000
      0.000430      -0.000085       0.000000
      0.000431      -0.000085       0.000000
      0.000429      -0.000088       0.000000
      0.000429      -0.000090       0.000000
      0.000430      -0.000087       0.000000
      0.000429      -0.000087       0.000000
      0.000428      -0.000090       0.000000
      0.000430      -0.000087       0.000000
      0.000431      -0.000083       0.000000
      0.000431      -0.000084       0.000000
      0.000429      -0.000087       0.000000
      0.000428      -0.000090       0.000000
      0.000429      -0.000087       0.000000
      0.000429      -0.000087       0.000000
      0.000428      -0.000090       0.000000
      0.000429      -0.000087       0.000000
      0.000431      -0.000084       0.000000
      0.000430      -0.000084       0.000000
      0.000429      -0.000087       0.000000
      0.000424      -0.000082       0.000000
      0.000454      -0.000083       0.000000
      0.000445      -0.000091       0.000000
      0.000426      -0.000091       0.000000
      0.000454      -0.000083       0.000000
      0.000487      -0.000077       0.000000
      0.000463      -0.000082       0.000000
      0.000445      -0.000091       0.000000
      0.000426      -0.000091       0.000000
      0.000445      -0.000091       0.000000
      0.000435      -0.000094       0.000000
      0.000424      -0.000096       0.000000
      0.000435      -0.000094       0.000000
      0.000440      -0.000090       0.000000
      0.000435      -0.000090       0.000000
      0.000431      -0.000094       0.000000
      0.000440      -0.000090       0.000000
      0.000444      -0.000083       0.000000
      0.000438      -0.000083       0.000000
      0.000435      -0.000090       0.000000
      0.000431      -0.000094       0.000000
      0.000435      -0.000090       0.000000
      0.000431      -0.000090       0.000000
      0.000429      -0.000094       0.000000
      0.000435      -0.000090       0.000000
      0.000438      -0.000083       0.000000
      0.000434      -0.000083       0.000000
      0.000431      -0.000090       0.000000
      0.000445      -0.000091       0.000000
      0.000455      -0.000088       0.000000
      0.000447      -0.000089       0.000000
      0.000440      -0.000093       0.000000
      0.000455      -0.000088       0.000000
      0.000463      -0.000082       0.000000
      0.000453      -0.000083       0.000000
      0.000447      -0.000089       0.000000
      0.000440      -0.000093       0.000000
      0.000447      -0.000089       0.000000
      0.000440      -0.000090       0.000000
      0.000435      -0.000094       0.000000
      0.000447      -0.000089       0.000000
      0.000453      -0.000083       0.000000
      0.000444      -0.000083       0.000000
      0.000440      -0.000090       0.000000
      0.000382      -0.000046       0.000000
      0.000432      -0.000044       0.000000
      0.000454      -0.000067       0.000000
      0.000412      -0.000066       0.000000
      0.000432      -0.000044       0.000000
      0.000494      -0.000036       0.000000
      0.000503      -0.000061       0.000000
      0.000454      -0.000067       0.000000
      0.000412      -0.000066       0.000000
      0.000454      -0.000067       0.000000
      0.000454      -0.000083       0.000000
      0.000424      -0.000082       0.000000
      0.000454      -0.000067       0.000000
      0.000503      -0.000061       0.000000
      0.000487      -0.000077       0.000000
      0.000454      -0.000083       0.000000
      0.000000       0.000000       0.000000
      0.000000       0.000000       0.000000
      0.000482       0.000083       0.000000
      0.000342       0.000013       0.000000
      0.000000       0.000000       0.000000
      0.000000       0.000000       0.000000
      0.000617       0.000250       0.000000
      0.000482       0.000083       0.000000
      0.000342       0.000013       0.000000
      0.000482       0.000083       0.000000
      0.000674       0.000040       0.000000
      0.000494      -0.000036       0.000000
      0.000000       0.000000       0.000000
      0.000000       0.000000       0.000000
      0.000663       0.000301       0.000000
      0.000617       0.000250       0.000000
      0.000000       0.000000       0.000000
      0.000000       0.000000       0.000000
      0.000743       0.000150       0.000000
      0.000663       0.000301       0.000000
      0.000663       0.000301       0.000000
      0.000743       0.000150       0.000000
      0.001876       0.000190       0.000000
      0.001564       0.000528       0.000000
      0.000000       0.000000       0.000000
      0.000000       0.000000       0.000000
      0.000833       0.000049       0.000000
      0.000743       0.000150       0.000000
      0.000000       0.000000       0.000000
      0.000000       0.000000       0.000000
      0.000868       0.000000       0.000000
      0.000833       0.000049       0.000000
      0.000743       0.000150       0.000000
      0.000833       0.000049       0.000000
      0.002024       0.000053       0.000000
      0.001876       0.000190       0.000000
      0.000833       0.000049       0.000000
      0.000868       0.000000       0.000000
      0.002068       0.000000       0.000000
      0.002024       0.000053       0.000000
      0.003677       0.000673       0.000000
      0.003625       0.000212       0.000000
      0.005477       0.000322       0.000000
      0.005659       0.000806       0.000000
      0.001876       0.000190       0.000000
      0.002024       0.000053       0.000000
      0.003628       0.000061       0.000000
      0.003625       0.000212       0.000000
      0.002024       0.000053       0.000000
      0.002068       0.000000       0.000000
      0.003631       0.000000       0.000000
      0.003628       0.000061       0.000000
      0.003625       0.000212       0.000000
      0.003628       0.000061       0.000000
      0.005364       0.000110       0.000000
      0.005477       0.000322       0.000000
      0.003628       0.000061       0.000000
      0.003631       0.000000       0.000000
      0.005328       0.000000       0.000000