# vtk DataFile Version 2.0
time_10.vtk
ASCII
DATASET UNSTRUCTURED_GRID
POINTS  1464 float
      0.000000       0.000000       0.000000
      0.083333       0.000000       0.000000
      0.083333       0.083333       0.000000
      0.000000       0.083333       0.000000
      0.083333       0.000000       0.000000
      0.166667       0.000000       0.000000
      0.166667       0.083333       0.000000
      0.083333       0.083333       0.000000
      0.000000       0.083333       0.000000
      0.083333       0.083333       0.000000
      0.083333       0.166667       0.000000
      0.000000       0.166667       0.000000
      0.083333       0.083333       0.000000
      0.166667       0.083333       0.000000
      0.166667       0.166667       0.000000
      0.083333       0.166667       0.000000
      0.166667       0.000000       0.000000
      0.250000       0.000000       0.000000
      0.250000       0.083333       0.000000
      0.166667       0.083333       0.000000
      0.250000       0.000000       0.000000
      0.333333       0.000000       0.000000
      0.333333       0.083333       0.000000
      0.250000       0.083333       0.000000
      0.166667       0.083333       0.000000
      0.250000       0.083333       0.000000
      0.250000       0.166667       0.000000
      0.166667       0.166667       0.000000
      0.250000       0.083333       0.000000
      0.333333       0.083333       0.000000
      0.333333       0.166667       0.000000
      0.250000       0.166667       0.000000
      0.333333       0.000000       0.000000
      0.416667      -0.000000       0.000000
      0.416667       0.083333       0.000000
      0.333333       0.083333       0.000000
      0.416667      -0.000000       0.000000
      0.500000       0.000000       0.000000
      0.500000       0.083333       0.000000
      0.416667       0.083333       0.000000
      0.333333       0.083333       0.000000
      0.416667       0.083333       0.000000
      0.416667       0.166667       0.000000
      0.333333       0.166667       0.000000
      0.416667       0.083333       0.000000
      0.500000       0.083333       0.000000
      0.500000       0.166667       0.000000
      0.416667       0.166667       0.000000
      0.000000       0.166667       0.000000
      0.083333       0.166667       0.000000
      0.083333       0.250000       0.000000
      0.000000       0.250000       0.000000
      0.083333       0.166667       0.000000
      0.166667       0.166667       0.000000
      0.166667       0.250000       0.000000
      0.083333       0.250000       0.000000
      0.000000       0.250000       0.000000
      0.083333       0.250000       0.000000
      0.083333       0.333333       0.000000
      0.000000       0.333333       0.000000
      0.083333       0.250000       0.000000
      0.166667       0.250000       0.000000
      0.166667       0.333333       0.000000
      0.083333       0.333333       0.000000
      0.166667       0.166667       0.000000
      0.250000       0.166667       0.000000
      0.250000       0.250000       0.000000
      0.166667       0.250000       0.000000
      0.250000       0.166667       0.000000
      0.333333       0.166667       0.000000
      0.333333       0.250000       0.000000
      0.250000       0.250000       0.000000
      0.166667       0.250000       0.000000
      0.250000       0.250000       0.000000
      0.250000       0.333333       0.000000
      0.166667       0.333333       0.000000
      0.250000       0.250000       0.000000
      0.333333       0.250000       0.000000
      0.333333       0.333333       0.000000
      0.250000       0.333333       0.000000
      0.333333       0.166667       0.000000
      0.416667       0.166667       0.000000
      0.416667       0.250000       0.000000
      0.333333       0.250000       0.000000
      0.416667       0.166667       0.000000
      0.500000       0.166667       0.000000
      0.500000       0.250000       0.000000
      0.416667       0.250000       0.000000
      0.333333       0.250000       0.000000
      0.416667       0.250000       0.000000
      0.416667       0.333333       0.000000
      0.333333       0.333333       0.000000
      0.000000       0.333333       0.000000
      0.083333       0.333333       0.000000
      0.083333       0.416667       0.000000
     -0.000000       0.416667       0.000000
      0.083333       0.333333       0.000000
      0.166667       0.333333       0.000000
      0.166667       0.416667       0.000000
      0.083333       0.416667       0.000000
     -0.000000       0.416667       0.000000
      0.083333       0.416667       0.000000
      0.083333       0.500000       0.000000
      0.000000       0.500000       0.000000
      0.083333       0.416667       0.000000
      0.166667       0.416667       0.000000
      0.166667       0.500000       0.000000
      0.083333       0.500000       0.000000
      0.166667       0.333333       0.000000
      0.250000       0.333333       0.000000
      0.250000       0.416667       0.000000
      0.166667       0.416667       0.000000
      0.250000       0.333333       0.000000
      0.333333       0.333333       0.000000
      0.333333       0.416667       0.000000
      0.250000       0.416667       0.000000
      0.166667       0.416667       0.000000
      0.250000       0.416667       0.000000
      0.250000       0.500000       0.000000
      0.166667       0.500000       0.000000
      0.250000       0.416667       0.000000
      0.333333       0.416667       0.000000
      0.333333       0.500000       0.000000
      0.250000       0.500000       0.000000
      0.333333       0.333333       0.000000
      0.375000       0.333333       0.000000
      0.375000       0.375000       0.000000
      0.333333       0.375000       0.000000
      0.375000       0.333333       0.000000
      0.416667       0.333333       0.000000
      0.416667       0.375000       0.000000
      0.375000       0.375000       0.000000
      0.333333       0.375000       0.000000
      0.375000       0.375000       0.000000
      0.375000       0.416667       0.000000
      0.333333       0.416667       0.000000
      0.375000       0.375000       0.000000
      0.416667       0.375000       0.000000
      0.416667       0.416667       0.000000
      0.375000       0.416667       0.000000
      0.416667       0.333333       0.000000
      0.458333       0.333333       0.000000
      0.458333       0.375000       0.000000
      0.416667       0.375000       0.000000
      0.416667       0.375000       0.000000
      0.458333       0.375000       0.000000
      0.458333       0.416667       0.000000
      0.416667       0.416667       0.000000
      0.333333       0.416667       0.000000
      0.375000       0.416667       0.000000
      0.375000       0.458333       0.000000
      0.333333       0.458333       0.000000
      0.375000       0.416667       0.000000
      0.416667       0.416667       0.000000
      0.416667       0.458333       0.000000
      0.375000       0.458333       0.000000
      0.333333       0.458333       0.000000
      0.375000       0.458333       0.000000
      0.375000       0.500000       0.000000
      0.333333       0.500000       0.000000
      0.375000       0.458333       0.000000
      0.416667       0.458333       0.000000
      0.416667       0.500000       0.000000
      0.375000       0.500000       0.000000
      0.416667       0.416667       0.000000
      0.437500       0.416667       0.000000
      0.437500       0.437500       0.000000
      0.416667       0.437500       0.000000
      0.437500       0.416667       0.000000
      0.458333       0.416667       0.000000
      0.458333       0.437500       0.000000
      0.437500       0.437500       0.000000
      0.416667       0.437500       0.000000
      0.437500       0.437500       0.000000
      0.437500       0.458333       0.000000
      0.416667       0.458333       0.000000
      0.437500       0.437500       0.000000
      0.458333       0.437500       0.000000
      0.458333       0.458333       0.000000
      0.437500       0.458333       0.000000
      0.458333       0.416667       0.000000
      0.479167       0.416667       0.000000
      0.479167       0.437500       0.000000
      0.458333       0.437500       0.000000
      0.458333       0.437500       0.000000
      0.479167       0.437500       0.000000
      0.479167       0.458333       0.000000
      0.458333       0.458333       0.000000
      0.416667       0.458333       0.000000
      0.437500       0.458333       0.000000
      0.437500       0.479167       0.000000
      0.416667       0.479167       0.000000
      0.437500       0.458333       0.000000
      0.458333       0.458333       0.000000
      0.458333       0.479167       0.000000
      0.437500       0.479167       0.000000
      0.416667       0.479167       0.000000
      0.437500       0.479167       0.000000
      0.437500       0.500000       0.000000
      0.416667       0.500000       0.000000
      0.437500       0.479167       0.000000
      0.458333       0.479167       0.000000
      0.458333       0.500000       0.000000
      0.437500       0.500000       0.000000
      0.458333       0.458333       0.000000
      0.468750       0.458333       0.000000
      0.468750       0.468750       0.000000
      0.458333       0.468750       0.000000
      0.468750       0.458333       0.000000
      0.479167       0.458333       0.000000
      0.479167       0.468750       0.000000
      0.468750       0.468750       0.000000
      0.458333       0.468750       0.000000
      0.468750       0.468750       0.000000
      0.468750       0.479167       0.000000
      0.458333       0.479167       0.000000
      0.468750       0.468750       0.000000
      0.479167       0.468750       0.000000
      0.479167       0.479167       0.000000
      0.468750       0.479167       0.000000
[...]
POINT_DATA  1464
VECTORS U float 
      0.000000       0.000000       0.000000
      0.000000       0.000000       0.000000
      0.000415       0.000008       0.000000
      0.000407       0.000000       0.000000
      0.000000       0.000000       0.000000
      0.000000       0.000000       0.000000
      0.000439       0.000019       0.000000
      0.000415       0.000008       0.000000
      0.000407       0.000000       0.000000
      0.000415       0.000008       0.000000
      0.000766       0.000005       0.000000
      0.000753       0.000000       0.000000
      0.000415       0.000008       0.000000
      0.000439       0.000019       0.000000
      0.000807       0.000017       0.000000
      0.000766       0.000005       0.000000
      0.000000       0.000000       0.000000
      0.000000       0.000000       0.000000
      0.000476       0.000038       0.000000
      0.000439       0.000019       0.000000
      0.000000       0.000000       0.000000
      0.000000       0.000000       0.000000
      0.000519       0.000069       0.000000
      0.000476       0.000038       0.000000
      0.000439       0.000019       0.000000
      0.000476       0.000038       0.000000
      0.000874       0.000046       0.000000
      0.000807       0.000017       0.000000
      0.000476       0.000038       0.000000
      0.000519       0.000069       0.000000
      0.000960       0.000102       0.000000
      0.000874       0.000046       0.000000
      0.000000       0.000000       0.000000
      0.000000       0.000000       0.000000
      0.000555       0.000111       0.000000
      0.000519       0.000069       0.000000
      0.000000       0.000000       0.000000
      0.000000       0.000000       0.000000
      0.000571       0.000151       0.000000
      0.000555       0.000111       0.000000
      0.000519       0.000069       0.000000
      0.000555       0.000111       0.000000
      0.001051       0.000193       0.000000
      0.000960       0.000102       0.000000
      0.000555       0.000111       0.000000
      0.000571       0.000151       0.000000
      0.001119       0.000295       0.000000
      0.001051       0.000193       0.000000
      0.000753       0.000000       0.000000
      0.000766       0.000005       0.000000
      0.001038      -0.000005       0.000000
      0.001021       0.000000       0.000000
      0.000766       0.000005       0.000000
      0.000807       0.000017       0.000000
      0.001088      -0.000002       0.000000
      0.001038      -0.000005       0.000000
      0.001021       0.000000       0.000000
      0.001038      -0.000005       0.000000
      0.001225      -0.000020       0.000000
      0.001210       0.000000       0.000000
      0.001038      -0.000005       0.000000
      0.001088      -0.000002       0.000000
      0.001273      -0.000031       0.000000
      0.001225      -0.000020       0.000000
      0.000807       0.000017       0.000000
      0.000874       0.000046       0.000000
      0.001174       0.000023       0.000000
      0.001088      -0.000002       0.000000
      0.000874       0.000046       0.000000
      0.000960       0.000102       0.000000
      0.001301       0.000087       0.000000
      0.001174       0.000023       0.000000
      0.001088      -0.000002       0.000000
      0.001174       0.000023       0.000000
      0.001359      -0.000023       0.000000
      0.001273      -0.000031       0.000000
      0.001174       0.000023       0.000000
      0.001301       0.000087       0.000000
      0.001494       0.000025       0.000000
      0.001359      -0.000023       0.000000
      0.000960       0.000102       0.000000
      0.001051       0.000193       0.000000
      0.001468       0.000218       0.000000
      0.001301       0.000087       0.000000
      0.001051       0.000193       0.000000
      0.001119       0.000295       0.000000
      0.001640       0.000413       0.000000
      0.001468       0.000218       0.000000
      0.001301       0.000087       0.000000
      0.001468       0.000218       0.000000
      0.001706       0.000150       0.000000
      0.001494       0.000025       0.000000
      0.001210       0.000000       0.000000
      0.001225      -0.000020       0.000000
      0.001338      -0.000032       0.000000
      0.001326       0.000000       0.000000
      0.001225      -0.000020       0.000000
      0.001273      -0.000031       0.000000
      0.001373      -0.000058       0.000000
      0.001338      -0.000032       0.000000
      0.001326       0.000000       0.000000
      0.001338      -0.000032       0.000000
      0.001396      -0.000041       0.000000
      0.001388       0.000000       0.000000
      0.001338      -0.000032       0.000000
      0.001373      -0.000058       0.000000
      0.001416      -0.000074       0.000000
      0.001396      -0.000041       0.000000
      0.001273      -0.000031       0.000000
      0.001359      -0.000023       0.000000
      0.001433      -0.000067       0.000000
      0.001373      -0.000058       0.000000
      0.001359      -0.000023       0.000000
      0.001494       0.000025       0.000000
      0.001522      -0.000043       0.000000
      0.001433      -0.000067       0.000000
      0.001373      -0.000058       0.000000
      0.001433      -0.000067       0.000000
      0.001444      -0.000090       0.000000
      0.001416      -0.000074       0.000000
      0.001433      -0.000067       0.000000
      0.001522      -0.000043       0.000000
      0.001470      -0.000071       0.000000
      0.001444      -0.000090       0.000000
      0.001494       0.000025       0.000000
      0.001588       0.000074       0.000000
      0.001607       0.000028       0.000000
      0.001526      -0.000013       0.000000
      0.001588       0.000074       0.000000
      0.001706       0.000150       0.000000
      0.001711       0.000092       0.000000
      0.001607       0.000028       0.000000
      0.001526      -0.000013       0.000000
      0.001607       0.000028       0.000000
      0.001580      -0.000009       0.000000
      0.001522      -0.000043       0.000000
      0.001607       0.000028       0.000000
      0.001711       0.000092       0.000000
      0.001647       0.000048       0.000000
      0.001580      -0.000009       0.000000
      0.001706       0.000150       0.000000
      0.001857       0.000266       0.000000
      0.001848       0.000194       0.000000
      0.001711       0.000092       0.000000
      0.001711       0.000092       0.000000
      0.001848       0.000194       0.000000
      0.001722       0.000140       0.000000
      0.001647       0.000048       0.000000
      0.001522      -0.000043       0.000000
      0.001580      -0.000009       0.000000
      0.001528      -0.000030       0.000000
      0.001498      -0.000063       0.000000
      0.001580      -0.000009       0.000000
      0.001647       0.000048       0.000000
      0.001557       0.000029       0.000000
      0.001528      -0.000030       0.000000
      0.001498      -0.000063       0.000000
      0.001528      -0.000030       0.000000
      0.001475      -0.000037       0.000000
      0.001470      -0.000071       0.000000
      0.001528      -0.000030       0.000000
      0.001557       0.000029       0.000000
      0.001473       0.000025       0.000000
      0.001475      -0.000037       0.000000
      0.001647       0.000048       0.000000
      0.001683       0.000089       0.000000
      0.001626       0.000077       0.000000
      0.001602       0.000036       0.000000
      0.001683       0.000089       0.000000
      0.001722       0.000140       0.000000
      0.001648       0.000129       0.000000
      0.001626       0.000077       0.000000
      0.001602       0.000036       0.000000
      0.001626       0.000077       0.000000
      0.001570       0.000072       0.000000
      0.001557       0.000029       0.000000
      0.001626       0.000077       0.000000
      0.001648       0.000129       0.000000
      0.001581       0.000125       0.000000
      0.001570       0.000072       0.000000
      0.001722       0.000140       0.000000
      0.001763       0.000205       0.000000
      0.001668       0.000196       0.000000
      0.001648       0.000129       0.000000
      0.001648       0.000129       0.000000
      0.001668       0.000196       0.000000
      0.001591       0.000192       0.000000
      0.001581       0.000125       0.000000
      0.001557       0.000029       0.000000
      0.001570       0.000072       0.000000
      0.001519       0.000069       0.000000
      0.001514       0.000025       0.000000
      0.001570       0.000072       0.000000
      0.001581       0.000125       0.000000
      0.001523       0.000124       0.000000
      0.001519       0.000069       0.000000
      0.001514       0.000025       0.000000
      0.001519       0.000069       0.000000
      0.001470       0.000069       0.000000
      0.001473       0.000025       0.000000
      0.001519       0.000069       0.000000
      0.001523       0.000124       0.000000
      0.001468       0.000123       0.000000
      0.001470       0.000069       0.000000
      0.001581       0.000125       0.000000
      0.001586       0.000157       0.000000
      0.001555       0.000156       0.000000
      0.001551       0.000124       0.000000
      0.001586       0.000157       0.000000
      0.001591       0.000192       0.000000
      0.001558       0.000190       0.000000
      0.001555       0.000156       0.000000
      0.001551       0.000124       0.000000
      0.001555       0.000156       0.000000
      0.001525       0.000155       0.000000
      0.001523       0.000124       0.000000
      0.001555       0.000156       0.000000
      0.001558       0.000190       0.000000
      0.001528       0.000187       0.000000
      0.001525       0.000155       0.000000
      0.001591       0.000192       0.000000
      0.001596       0.000231       0.000000
      0.001563       0.000227       0.000000
      0.001558       0.000190       0.000000
      0.001596       0.000231       0.000000
      0.001604       0.000274       0.000000
      0.001576       0.000276       0.000000
      0.001563       0.000227       0.000000
      0.001558       0.000190       0.000000
      0.001563       0.000227       0.000000
      0.001533       0.000223       0.000000
      0.001528       0.000187       0.000000
      0.001563       0.000227       0.000000
      0.001576       0.000276       0.000000
      0.001535       0.000278       0.000000
      0.001533       0.000223       0.000000
      0.001523       0.000124       0.000000
      0.001525       0.000155       0.000000
      0.001497       0.000154       0.000000
      0.001496       0.000123       0.000000
      0.001525       0.000155       0.000000
      0.001528       0.000187       0.000000
      0.001500       0.000185       0.000000
      0.001497       0.000154       0.000000
      0.001496       0.000123       0.000000
      0.001497       0.000154       0.000000
      0.001469       0.000154       0.000000
      0.001468       0.000123       0.000000
      0.001497       0.000154       0.000000
      0.001500       0.000185       0.000000
      0.001475       0.000187       0.000000
      0.001469       0.000154       0.000000
      0.001528       0.000187       0.000000
      0.001533       0.000223       0.000000
      0.001504       0.000214       0.000000
      0.001500       0.000185       0.000000
      0.001533       0.000223       0.000000
      0.001535       0.000278       0.000000
      0.001257       0.000223       0.000000
      0.001504       0.000214       0.000000
      0.001500       0.000185       0.000000
      0.001504       0.000214       0.000000
      0.001520       0.000228       0.000000
      0.001475       0.000187       0.000000
      0.001504       0.000214       0.000000
      0.001257       0.000223       0.000000
      0.007618       0.000703       0.000000
      0.001520       0.000228       0.000000
      0.001668       0.000196       0.000000
      0.001678       0.000236       0.000000
      0.001634       0.000233       0.000000
      0.001627       0.000193       0.000000
      0.001678       0.000236       0.000000
      0.001688       0.000282       0.000000
      0.001643       0.000280       0.000000
      0.001634       0.000233       0.000000
      0.001627       0.000193       0.000000
      0.001634       0.000233       0.000000
      0.001596       0.000231       0.000000
      0.001591       0.000192       0.000000
      0.001634       0.000233       0.000000
      0.001643       0.000280       0.000000
      0.001604       0.000274       0.000000
      0.001596       0.000231       0.000000
      0.001848       0.000194       0.000000
      0.001938       0.000267       0.000000
      0.001863       0.000228       0.000000
      0.001794       0.000161       0.000000
      0.001938       0.000267       0.000000
      0.002057       0.000367       0.000000
      0.001950       0.000316       0.000000
      0.001863       0.000228       0.000000
      0.001794       0.000161       0.000000
      0.001863       0.000228       0.000000
      0.001763       0.000205       0.000000
      0.001722       0.000140       0.000000
      0.001763       0.000205       0.000000
      0.001785       0.000244       0.000000
      0.001728       0.000239       0.000000
      0.001714       0.000199       0.000000
      0.001785       0.000244       0.000000
      0.001807       0.000290       0.000000
      0.001743       0.000286       0.000000
      0.001728       0.000239       0.000000
      0.001714       0.000199       0.000000
      0.001728       0.000239       0.000000
      0.001678       0.000236       0.000000
      0.001668       0.000196       0.000000
      0.001728       0.000239       0.000000
      0.001743       0.000286       0.000000
      0.001688       0.000282       0.000000
      0.001678       0.000236       0.000000
      0.001863       0.000228       0.000000
      0.001903       0.000269       0.000000
      0.001845       0.000254       0.000000
      0.001814       0.000214       0.000000
      0.001903       0.000269       0.000000
      0.001950       0.000316       0.000000
      0.001879       0.000300       0.000000
      0.001845       0.000254       0.000000
      0.001814       0.000214       0.000000
      0.001845       0.000254       0.000000
      0.001785       0.000244       0.000000
      0.001763       0.000205       0.000000
      0.001845       0.000254       0.000000
      0.001879       0.000300       0.000000
      0.001807       0.000290       0.000000
      0.001785       0.000244       0.000000
      0.001468       0.000218       0.000000
      0.001558       0.000313       0.000000
      0.001744       0.000308       0.000000
      0.001619       0.000196       0.000000
      0.001558       0.000313       0.000000
      0.001640       0.000413       0.000000
      0.001873       0.000449       0.000000
      0.001744       0.000308       0.000000
      0.001619       0.000196       0.000000
      0.001744       0.000308       0.000000
      0.001857       0.000266       0.000000
      0.001706       0.000150       0.000000
      0.001744       0.000308       0.000000
      0.001873       0.000449       0.000000
      0.002049       0.000444       0.000000
      0.001857       0.000266       0.000000
      0.001857       0.000266       0.000000
      0.001948       0.000346       0.000000
      0.001967       0.000311       0.000000
      0.001870       0.000231       0.000000
      0.001948       0.000346       0.000000
      0.002049       0.000444       0.000000
      0.002086       0.000415       0.000000
      0.001967       0.000311       0.000000
      0.001870       0.000231       0.000000
      0.001967       0.000311       0.000000
      0.001938       0.000267       0.000000
      0.001848       0.000194       0.000000
      0.001967       0.000311       0.000000
      0.002086       0.000415       0.000000
      0.002057       0.000367       0.000000
      0.001938       0.000267       0.000000
      0.000000       0.000000       0.000000
      0.000000       0.000000       0.000000
      0.000568       0.000164       0.000000
      0.000571       0.000151       0.000000
      0.000000       0.000000       0.000000
      0.000000       0.000000       0.000000
      0.000567       0.000137       0.000000
      0.000568       0.000164       0.000000
      0.000571       0.000151       0.000000
      0.000568       0.000164       0.000000
      0.001151       0.000330       0.000000
      0.001119       0.000295       0.000000
      0.000568       0.000164       0.000000
      0.000567       0.000137       0.000000
      0.001190       0.000260       0.000000
      0.001151       0.000330       0.000000
      0.000000       0.000000       0.000000
      0.000000       0.000000       0.000000
      0.000584       0.000092       0.000000
      0.000567       0.000137       0.000000
      0.000000       0.000000       0.000000
      0.000000       0.000000       0.000000
      0.000612       0.000051       0.000000
      0.000584       0.000092       0.000000
      0.000567       0.000137       0.000000
      0.000584       0.000092       0.000000
      0.001257       0.000155       0.000000
      0.001190       0.000260       0.000000
      0.000584       0.000092       0.000000
      0.000612       0.000051       0.000000
      0.001330       0.000076       0.000000
      0.001257       0.000155       0.000000
      0.000000       0.000000       0.000000
      0.000000       0.000000       0.000000
      0.000637       0.000022       0.000000
      0.000612       0.000051       0.000000
      0.000000       0.000000       0.000000
      0.000000       0.000000       0.000000
      0.000646       0.000000       0.000000
      0.000637       0.000022       0.000000
      0.000612       0.000051       0.000000
      0.000637       0.000022       0.000000
      0.001381       0.000029       0.000000
      0.001330       0.000076       0.000000
      0.000637       0.000022       0.000000
      0.000646       0.000000       0.000000
      0.001399       0.000000       0.000000
      0.001381       0.000029       0.000000
      0.001119       0.000295       0.000000
      0.001151       0.000330       0.000000
      0.001756       0.000494       0.000000
      0.001640       0.000413       0.000000
      0.001151       0.000330       0.000000
      0.001190       0.000260       0.000000
      0.001892       0.000338       0.000000
      0.001756       0.000494       0.000000
      0.001756       0.000494       0.000000
      0.001892       0.000338       0.000000
      0.002821       0.000304       0.000000
      0.002435       0.000649       0.000000
      0.001190       0.000260       0.000000
      0.001257       0.000155       0.000000
      0.002056       0.000165       0.000000
      0.001892       0.000338       0.000000
      0.001257       0.000155       0.000000
      0.001330       0.000076       0.000000
      0.002186       0.000065       0.000000
      0.002056       0.000165       0.000000
      0.001892       0.000338       0.000000
      0.002056       0.000165       0.000000
      0.003088       0.000104       0.000000
      0.002821       0.000304       0.000000
      0.002056       0.000165       0.000000
      0.002186       0.000065       0.000000
      0.003238       0.000022       0.000000
      0.003088       0.000104       0.000000
      0.001330       0.000076       0.000000
      0.001381       0.000029       0.000000
      0.002264       0.000019       0.000000
      0.002186       0.000065       0.000000
      0.001381       0.000029       0.000000
      0.001399       0.000000       0.000000
      0.002290       0.000000       0.000000