# vtk DataFile Version 2.0
time_10.vtk
ASCII
DATASET UNSTRUCTURED_GRID
POINTS  1812 float
      0.000000       0.000000       0.000000
      0.083333       0.000000       0.000000
      0.083333       0.083333       0.000000
      0.000000       0.083333       0.000000
      0.083333       0.000000       0.000000
      0.166667       0.000000       0.000000
      0.166667       0.083333       0.000000
      0.083333       0.083333       0.000000
      0.000000       0.083333       0.000000
      0.083333       0.083333       0.000000
      0.083333       0.166667       0.000000
      0.000000       0.166667       0.000000
      0.083333       0.083333       0.000000
      0.166667       0.083333       0.000000
      0.166667       0.166667       0.000000
      0.083333       0.166667       0.000000
      0.166667       0.000000       0.000000
      0.250000       0.000000       0.000000
      0.250000       0.083333       0.000000
      0.166667       0.083333       0.000000
      0.250000       0.000000       0.000000
      0.333333       0.000000       0.000000
      0.333333       0.083333       0.000000
      0.250000       0.083333       0.000000
      0.166667       0.083333       0.000000
      0.250000       0.083333       0.000000
      0.250000       0.166667       0.000000
      0.166667       0.166667       0.000000
      0.250000       0.083333       0.000000
      0.333333       0.083333       0.000000
      0.333333       0.166667       0.000000
      0.250000       0.166667       0.000000
      0.333333       0.000000       0.000000
      0.416667      -0.000000       0.000000
      0.416667       0.083333       0.000000
      0.333333       0.083333       0.000000
      0.416667      -0.000000       0.000000
      0.500000       0.000000       0.000000
      0.500000       0.083333       0.000000
      0.416667       0.083333       0.000000
      0.333333       0.083333       0.000000
      0.416667       0.083333       0.000000
      0.416667       0.166667       0.000000
      0.333333       0.166667       0.000000
      0.416667       0.083333       0.000000
      0.500000       0.083333       0.000000
      0.500000       0.166667       0.000000
      0.416667       0.166667       0.000000
      0.000000       0.166667       0.000000
      0.083333       0.166667       0.000000
      0.083333       0.250000       0.000000
      0.000000       0.250000       0.000000
      0.083333       0.166667       0.000000
      0.166667       0.166667       0.000000
      0.166667       0.250000       0.000000
      0.083333       0.250000       0.000000
      0.000000       0.250000       0.000000
      0.083333       0.250000       0.000000
      0.083333       0.333333       0.000000
      0.000000       0.333333       0.000000
      0.083333       0.250000       0.000000
      0.166667       0.250000       0.000000
      0.166667       0.333333       0.000000
      0.083333       0.333333       0.000000
      0.166667       0.166667       0.000000
      0.250000       0.166667       0.000000
      0.250000       0.250000       0.000000
      0.166667       0.250000       0.000000
      0.250000       0.166667       0.000000
      0.333333       0.166667       0.000000
      0.333333       0.250000       0.000000
      0.250000       0.250000       0.000000
      0.166667       0.250000       0.000000
      0.250000       0.250000       0.000000
      0.250000       0.333333       0.000000
      0.166667       0.333333       0.000000
      0.250000       0.250000       0.000000
      0.333333       0.250000       0.000000
      0.333333       0.333333       0.000000
      0.250000       0.333333       0.000000
      0.333333       0.166667       0.000000
      0.416667       0.166667       0.000000
      0.416667       0.250000       0.000000
      0.333333       0.250000       0.000000
      0.333333       0.250000       0.000000
      0.416667       0.250000       0.000000
      0.416667       0.333333       0.000000
      0.333333       0.333333       0.000000
      0.000000       0.333333       0.000000
      0.083333       0.333333       0.000000
      0.083333       0.416667       0.000000
     -0.000000       0.416667       0.000000
      0.083333       0.333333       0.000000
      0.166667       0.333333       0.000000
      0.166667       0.416667       0.000000
      0.083333       0.416667       0.000000
     -0.000000       0.416667       0.000000
      0.083333       0.416667       0.000000
      0.083333       0.500000       0.000000
      0.000000       0.500000       0.000000
      0.083333       0.416667       0.000000
      0.166667       0.416667       0.000000
      0.166667       0.500000       0.000000
      0.083333       0.500000       0.000000
      0.166667       0.333333       0.000000
      0.250000       0.333333       0.000000
      0.250000       0.416667       0.000000
      0.166667       0.416667       0.000000
      0.250000       0.333333       0.000000
      0.333333       0.333333       0.000000
      0.333333       0.416667       0.000000
      0.250000       0.416667       0.000000
      0.166667       0.416667       0.000000
      0.250000       0.416667       0.000000
      0.250000       0.500000       0.000000
      0.166667       0.500000       0.000000
      0.250000       0.416667       0.000000
      0.333333       0.416667       0.000000
      0.333333       0.500000       0.000000
      0.250000       0.500000       0.000000
      0.333333       0.333333       0.000000
      0.375000       0.333333       0.000000
      0.375000       0.375000       0.000000
      0.333333       0.375000       0.000000
      0.375000       0.333333       0.000000
      0.416667       0.333333       0.000000
      0.416667       0.375000       0.000000
      0.375000       0.375000       0.000000
      0.333333       0.375000       0.000000
      0.375000       0.375000       0.000000
      0.375000       0.416667       0.000000
      0.333333       0.416667       0.000000
      0.375000       0.375000       0.000000
      0.416667       0.375000       0.000000
      0.416667       0.416667       0.000000
      0.375000       0.416667       0.000000
      0.416667       0.333333       0.000000
      0.458333       0.333333       0.000000
      0.458333       0.375000       0.000000
      0.416667       0.375000       0.000000
      0.416667       0.375000       0.000000
      0.458333       0.375000       0.000000
      0.458333       0.416667       0.000000
      0.416667       0.416667       0.000000
      0.333333       0.416667       0.000000
      0.375000       0.416667       0.000000
      0.375000       0.458333       0.000000
      0.333333       0.458333       0.000000
      0.375000       0.416667       0.000000
      0.416667       0.416667       0.000000
      0.416667       0.458333       0.000000
      0.375000       0.458333       0.000000
      0.333333       0.458333       0.000000
      0.375000       0.458333       0.000000
      0.375000       0.500000       0.000000
      0.333333       0.500000       0.000000
      0.375000       0.458333       0.000000
      0.416667       0.458333       0.000000
      0.416667       0.500000       0.000000
      0.375000       0.500000       0.000000
      0.416667       0.416667       0.000000
      0.437500       0.416667       0.000000
      0.437500       0.437500       0.000000
      0.416667       0.437500       0.000000
      0.437500       0.416667       0.000000
      0.458333       0.416667       0.000000
      0.458333       0.437500       0.000000
      0.437500       0.437500       0.000000
      0.416667       0.437500       0.000000
      0.437500       0.437500       0.000000
      0.437500       0.458333       0.000000
      0.416667       0.458333       0.000000
      0.437500       0.437500       0.000000
      0.458333       0.437500       0.000000
      0.458333       0.458333       0.000000
      0.437500       0.458333       0.000000
      0.458333       0.416667       0.000000
      0.479167       0.416667       0.000000
      0.479167       0.437500       0.000000
      0.458333       0.437500       0.000000
      0.458333       0.437500       0.000000
      0.479167       0.437500       0.000000
      0.479167       0.458333       0.000000
      0.458333       0.458333       0.000000
      0.416667       0.458333       0.000000
      0.437500       0.458333       0.000000
      0.437500       0.479167       0.000000
      0.416667       0.479167       0.000000
      0.437500       0.458333       0.000000
      0.458333       0.458333       0.000000
      0.458333       0.479167       0.000000
      0.437500       0.479167       0.000000
      0.416667       0.479167       0.000000
      0.437500       0.479167       0.000000
      0.437500       0.500000       0.000000
      0.416667       0.500000       0.000000
      0.437500       0.479167       0.000000
      0.458333       0.479167       0.000000
      0.458333       0.500000       0.000000
      0.437500       0.500000       0.000000
      0.458333       0.458333       0.000000
      0.468750       0.458333       0.000000
      0.468750       0.468750       0.000000
      0.458333       0.468750       0.000000
      0.468750       0.458333       0.000000
      0.479167       0.458333       0.000000
      0.479167       0.468750       0.000000
      0.468750       0.468750       0.000000
      0.458333       0.468750       0.000000
      0.468750       0.468750       0.000000
      0.468750       0.479167       0.000000
      0.458333       0.479167       0.000000
      0.468750       0.468750       0.000000
      0.479167       0.468750       0.000000
      0.479167       0.479167       0.000000
      0.468750       0.479167       0.000000
      0.479167       0.458333       0.000000
      0.489583       0.458333       0.000000
      0.489583       0.468750       0.000000
      0.479167       0.468750       0.000000
[...]
POINT_DATA  1812
VECTORS U float 
      0.000000       0.000000       0.000000
      0.000000       0.000000       0.000000
      0.000303       0.000001       0.000000
      0.000294       0.000000       0.000000
      0.000000       0.000000       0.000000
      0.000000       0.000000       0.000000
      0.000330       0.000005       0.000000
      0.000303       0.000001       0.000000
      0.000294       0.000000       0.000000
      0.000303       0.000001       0.000000
      0.000555      -0.000008       0.000000
      0.000541       0.000000       0.000000
      0.000303       0.000001       0.000000
      0.000330       0.000005       0.000000
      0.000596      -0.000012       0.000000
      0.000555      -0.000008       0.000000
      0.000000       0.000000       0.000000
      0.000000       0.000000       0.000000
      0.000375       0.000015       0.000000
      0.000330       0.000005       0.000000
      0.000000       0.000000       0.000000
      0.000000       0.000000       0.000000
      0.000437       0.000038       0.000000
      0.000375       0.000015       0.000000
      0.000330       0.000005       0.000000
      0.000375       0.000015       0.000000
      0.000666      -0.000004       0.000000
      0.000596      -0.000012       0.000000
      0.000375       0.000015       0.000000
      0.000437       0.000038       0.000000
      0.000769       0.000028       0.000000
      0.000666      -0.000004       0.000000
      0.000000       0.000000       0.000000
      0.000000       0.000000       0.000000
      0.000507       0.000083       0.000000
      0.000437       0.000038       0.000000
      0.000000       0.000000       0.000000
      0.000000       0.000000       0.000000
      0.000564       0.000150       0.000000
      0.000507       0.000083       0.000000
      0.000437       0.000038       0.000000
      0.000507       0.000083       0.000000
      0.000904       0.000107       0.000000
      0.000769       0.000028       0.000000
      0.000507       0.000083       0.000000
      0.000564       0.000150       0.000000
      0.001053       0.000256       0.000000
      0.000904       0.000107       0.000000
      0.000541       0.000000       0.000000
      0.000555      -0.000008       0.000000
      0.000742      -0.000022       0.000000
      0.000728       0.000000       0.000000
      0.000555      -0.000008       0.000000
      0.000596      -0.000012       0.000000
      0.000784      -0.000040       0.000000
      0.000742      -0.000022       0.000000
      0.000728       0.000000       0.000000
      0.000742      -0.000022       0.000000
      0.000866      -0.000036       0.000000
      0.000855       0.000000       0.000000
      0.000742      -0.000022       0.000000
      0.000784      -0.000040       0.000000
      0.000899      -0.000067       0.000000
      0.000866      -0.000036       0.000000
      0.000596      -0.000012       0.000000
      0.000666      -0.000004       0.000000
      0.000859      -0.000043       0.000000
      0.000784      -0.000040       0.000000
      0.000666      -0.000004       0.000000
      0.000769       0.000028       0.000000
      0.000973      -0.000019       0.000000
      0.000859      -0.000043       0.000000
      0.000784      -0.000040       0.000000
      0.000859      -0.000043       0.000000
      0.000956      -0.000084       0.000000
      0.000899      -0.000067       0.000000
      0.000859      -0.000043       0.000000
      0.000973      -0.000019       0.000000
      0.001041      -0.000074       0.000000
      0.000956      -0.000084       0.000000
      0.000769       0.000028       0.000000
      0.000904       0.000107       0.000000
      0.001141       0.000060       0.000000
      0.000973      -0.000019       0.000000
      0.000973      -0.000019       0.000000
      0.001141       0.000060       0.000000
      0.001158      -0.000017       0.000000
      0.001041      -0.000074       0.000000
      0.000855       0.000000       0.000000
      0.000866      -0.000036       0.000000
      0.000943      -0.000045       0.000000
      0.000937       0.000000       0.000000
      0.000866      -0.000036       0.000000
      0.000899      -0.000067       0.000000
      0.000960      -0.000084       0.000000
      0.000943      -0.000045       0.000000
      0.000937       0.000000       0.000000
      0.000943      -0.000045       0.000000
      0.000994      -0.000048       0.000000
      0.000993       0.000000       0.000000
      0.000943      -0.000045       0.000000
      0.000960      -0.000084       0.000000
      0.000997      -0.000090       0.000000
      0.000994      -0.000048       0.000000
      0.000899      -0.000067       0.000000
      0.000956      -0.000084       0.000000
      0.000987      -0.000109       0.000000
      0.000960      -0.000084       0.000000
      0.000956      -0.000084       0.000000
      0.001041      -0.000074       0.000000
      0.001023      -0.000104       0.000000
      0.000987      -0.000109       0.000000
      0.000960      -0.000084       0.000000
      0.000987      -0.000109       0.000000
      0.000996      -0.000116       0.000000
      0.000997      -0.000090       0.000000
      0.000987      -0.000109       0.000000
      0.001023      -0.000104       0.000000
      0.000986      -0.000108       0.000000
      0.000996      -0.000116       0.000000
      0.001041      -0.000074       0.000000
      0.001095      -0.000054       0.000000
      0.001073      -0.000073       0.000000
      0.001038      -0.000093       0.000000
      0.001095      -0.000054       0.000000
      0.001158      -0.000017       0.000000
      0.001111      -0.000038       0.000000
      0.001073      -0.000073       0.000000
      0.001038      -0.000093       0.000000
      0.001073      -0.000073       0.000000
      0.001042      -0.000083       0.000000
      0.001023      -0.000104       0.000000
      0.001073      -0.000073       0.000000
      0.001111      -0.000038       0.000000
      0.001059      -0.000045       0.000000
      0.001042      -0.000083       0.000000
      0.001158      -0.000017       0.000000
      0.001234       0.000041       0.000000
      0.001148       0.000019       0.000000
      0.001111      -0.000038       0.000000
      0.001111      -0.000038       0.000000
      0.001148       0.000019       0.000000
      0.001072       0.000015       0.000000
      0.001059      -0.000045       0.000000
      0.001023      -0.000104       0.000000
      0.001042      -0.000083       0.000000
      0.001008      -0.000086       0.000000
      0.001004      -0.000109       0.000000
      0.001042      -0.000083       0.000000
      0.001059      -0.000045       0.000000
      0.001012      -0.000045       0.000000
      0.001008      -0.000086       0.000000
      0.001004      -0.000109       0.000000
      0.001008      -0.000086       0.000000
      0.000976      -0.000085       0.000000
      0.000986      -0.000108       0.000000
      0.001008      -0.000086       0.000000
      0.001012      -0.000045       0.000000
      0.000966      -0.000044       0.000000
      0.000976      -0.000085       0.000000
      0.001059      -0.000045       0.000000
      0.001066      -0.000018       0.000000
      0.001038      -0.000018       0.000000
      0.001035      -0.000046       0.000000
      0.001066      -0.000018       0.000000
      0.001072       0.000015       0.000000
      0.001042       0.000014       0.000000
      0.001038      -0.000018       0.000000
      0.001035      -0.000046       0.000000
      0.001038      -0.000018       0.000000
      0.001013      -0.000018       0.000000
      0.001012      -0.000045       0.000000
      0.001038      -0.000018       0.000000
      0.001042       0.000014       0.000000
      0.001015       0.000014       0.000000
      0.001013      -0.000018       0.000000
      0.001072       0.000015       0.000000
      0.001077       0.000054       0.000000
      0.001045       0.000053       0.000000
      0.001042       0.000014       0.000000
      0.001042       0.000014       0.000000
      0.001045       0.000053       0.000000
      0.001017       0.000050       0.000000
      0.001015       0.000014       0.000000
      0.001012      -0.000045       0.000000
      0.001013      -0.000018       0.000000
      0.000989      -0.000017       0.000000
      0.000990      -0.000045       0.000000
      0.001013      -0.000018       0.000000
      0.001015       0.000014       0.000000
      0.000989       0.000014       0.000000
      0.000989      -0.000017       0.000000
      0.000990      -0.000045       0.000000
      0.000989      -0.000017       0.000000
      0.000963      -0.000017       0.000000
      0.000966      -0.000044       0.000000
      0.000989      -0.000017       0.000000
      0.000989       0.000014       0.000000
      0.000962       0.000014       0.000000
      0.000963      -0.000017       0.000000
      0.001015       0.000014       0.000000
      0.001016       0.000032       0.000000
      0.001003       0.000031       0.000000
      0.001002       0.000014       0.000000
      0.001016       0.000032       0.000000
      0.001017       0.000050       0.000000
      0.001004       0.000049       0.000000
      0.001003       0.000031       0.000000
      0.001002       0.000014       0.000000
      0.001003       0.000031       0.000000
      0.000990       0.000030       0.000000
      0.000989       0.000014       0.000000
      0.001003       0.000031       0.000000
      0.001004       0.000049       0.000000
      0.000992       0.000047       0.000000
      0.000990       0.000030       0.000000
      0.001017       0.000050       0.000000
      0.001020       0.000070       0.000000
      0.001007       0.000068       0.000000
      0.001004       0.000049       0.000000
      0.001020       0.000070       0.000000
      0.001025       0.000092       0.000000
      0.001013       0.000096       0.000000
      0.001007       0.000068       0.000000
      0.001004       0.000049       0.000000
      0.001007       0.000068       0.000000
      0.000995       0.000065       0.000000
      0.000992       0.000047       0.000000
      0.001007       0.000068       0.000000
      0.001013       0.000096       0.000000
      0.000990       0.000100       0.000000
      0.000995       0.000065       0.000000
      0.000989       0.000014       0.000000
      0.000990       0.000030       0.000000
      0.000977       0.000030       0.000000
      0.000976       0.000013       0.000000
      0.000990       0.000030       0.000000
      0.000992       0.000047       0.000000
      0.000979       0.000045       0.000000
      0.000977       0.000030       0.000000
      0.000976       0.000013       0.000000
      0.000977       0.000030       0.000000
      0.000963       0.000030       0.000000
      0.000962       0.000014       0.000000
      0.000977       0.000030       0.000000
      0.000979       0.000045       0.000000
      0.000970       0.000048       0.000000
      0.000963       0.000030       0.000000
      0.000992       0.000047       0.000000
      0.000995       0.000065       0.000000
      0.000981       0.000057       0.000000
      0.000979       0.000045       0.000000
      0.000995       0.000065       0.000000
      0.000990       0.000100       0.000000
      0.000695       0.000085       0.000000
      0.000981       0.000057       0.000000
      0.000979       0.000045       0.000000
      0.000981       0.000057       0.000000
      0.001024       0.000074       0.000000
      0.000970       0.000048       0.000000
      0.000981       0.000057       0.000000
      0.000695       0.000085       0.000000
      0.008541       0.000832       0.000000
      0.001024       0.000074       0.000000
      0.001045       0.000053       0.000000
      0.001047       0.000074       0.000000
      0.001033       0.000072       0.000000
      0.001031       0.000051       0.000000
      0.001047       0.000074       0.000000
      0.001050       0.000097       0.000000
      0.001036       0.000094       0.000000
      0.001033       0.000072       0.000000
      0.001031       0.000051       0.000000
      0.001033       0.000072       0.000000
      0.001020       0.000070       0.000000
      0.001017       0.000050       0.000000
      0.001033       0.000072       0.000000
      0.001036       0.000094       0.000000
      0.001025       0.000092       0.000000
      0.001020       0.000070       0.000000
      0.001148       0.000019       0.000000
      0.001166       0.000059       0.000000
      0.001117       0.000056       0.000000
      0.001108       0.000016       0.000000
      0.001166       0.000059       0.000000
      0.001182       0.000111       0.000000
      0.001126       0.000106       0.000000
      0.001117       0.000056       0.000000
      0.001108       0.000016       0.000000
      0.001117       0.000056       0.000000
      0.001077       0.000054       0.000000
      0.001072       0.000015       0.000000
      0.001077       0.000054       0.000000
      0.001080       0.000077       0.000000
      0.001063       0.000076       0.000000
      0.001060       0.000054       0.000000
      0.001080       0.000077       0.000000
      0.001083       0.000102       0.000000
      0.001065       0.000099       0.000000
      0.001063       0.000076       0.000000
      0.001060       0.000054       0.000000
      0.001063       0.000076       0.000000
      0.001047       0.000074       0.000000
      0.001045       0.000053       0.000000
      0.001063       0.000076       0.000000
      0.001065       0.000099       0.000000
      0.001050       0.000097       0.000000
      0.001047       0.000074       0.000000
      0.001117       0.000056       0.000000
      0.001122       0.000080       0.000000
      0.001100       0.000079       0.000000
      0.001096       0.000055       0.000000
      0.001122       0.000080       0.000000
      0.001126       0.000106       0.000000
      0.001103       0.000104       0.000000
      0.001100       0.000079       0.000000
      0.001096       0.000055       0.000000
      0.001100       0.000079       0.000000
      0.001080       0.000077       0.000000
      0.001077       0.000054       0.000000
      0.001100       0.000079       0.000000
      0.001103       0.000104       0.000000
      0.001083       0.000102       0.000000
      0.001080       0.000077       0.000000
      0.001141       0.000060       0.000000
      0.001255       0.000136       0.000000
      0.001283       0.000086       0.000000
      0.001175       0.000018       0.000000
      0.001255       0.000136       0.000000
      0.001397       0.000256       0.000000
      0.001429       0.000196       0.000000
      0.001283       0.000086       0.000000
      0.001175       0.000018       0.000000
      0.001283       0.000086       0.000000
      0.001234       0.000041       0.000000
      0.001158      -0.000017       0.000000
      0.001234       0.000041       0.000000
      0.001277       0.000082       0.000000
      0.001221       0.000067       0.000000
      0.001192       0.000027       0.000000
      0.001277       0.000082       0.000000
      0.001327       0.000134       0.000000
      0.001252       0.000118       0.000000
      0.001221       0.000067       0.000000
      0.001192       0.000027       0.000000
      0.001221       0.000067       0.000000
      0.001166       0.000059       0.000000
      0.001148       0.000019       0.000000
      0.001221       0.000067       0.000000
      0.001252       0.000118       0.000000
      0.001182       0.000111       0.000000
      0.001166       0.000059       0.000000
      0.001283       0.000086       0.000000
      0.001350       0.000134       0.000000
      0.001324       0.000105       0.000000
      0.001266       0.000061       0.000000
      0.001350       0.000134       0.000000
      0.001429       0.000196       0.000000
      0.001392       0.000161       0.000000
      0.001324       0.000105       0.000000
      0.001266       0.000061       0.000000
      0.001324       0.000105       0.000000
      0.001277       0.000082       0.000000
      0.001234       0.000041       0.000000
      0.001324       0.000105       0.000000
      0.001392       0.000161       0.000000
      0.001327       0.000134       0.000000
      0.001277       0.000082       0.000000
      0.000904       0.000107       0.000000
      0.000980       0.000173       0.000000
      0.001147       0.000168       0.000000
      0.001048       0.000092       0.000000
      0.000980       0.000173       0.000000
      0.001053       0.000256       0.000000
      0.001255       0.000275       0.000000
      0.001147       0.000168       0.000000
      0.001048       0.000092       0.000000
      0.001147       0.000168       0.000000
      0.001255       0.000136       0.000000
      0.001141       0.000060       0.000000
      0.001147       0.000168       0.000000
      0.001255       0.000275       0.000000
      0.001397       0.000256       0.000000
      0.001255       0.000136       0.000000
      0.000000       0.000000       0.000000
      0.000000       0.000000       0.000000
      0.000583       0.000206       0.000000
      0.000564       0.000150       0.000000
      0.000000       0.000000       0.000000
      0.000000       0.000000       0.000000
      0.000581       0.000195       0.000000
      0.000583       0.000206       0.000000
      0.000564       0.000150       0.000000
      0.000583       0.000206       0.000000
      0.001155       0.000412       0.000000
      0.001053       0.000256       0.000000
      0.000583       0.000206       0.000000
      0.000581       0.000195       0.000000
      0.001220       0.000377       0.000000
      0.001155       0.000412       0.000000
      0.000000       0.000000       0.000000
      0.000000       0.000000       0.000000
      0.000602       0.000131       0.000000
      0.000581       0.000195       0.000000
      0.000000       0.000000       0.000000
      0.000000       0.000000       0.000000
      0.000644       0.000069       0.000000
      0.000602       0.000131       0.000000
      0.000581       0.000195       0.000000
      0.000602       0.000131       0.000000
      0.001327       0.000218       0.000000
      0.001220       0.000377       0.000000
      0.000602       0.000131       0.000000
      0.000644       0.000069       0.000000
      0.001441       0.000098       0.000000
      0.001327       0.000218       0.000000
      0.000000       0.000000       0.000000
      0.000000       0.000000       0.000000
      0.000682       0.000028       0.000000
      0.000644       0.000069       0.000000
      0.000000       0.000000       0.000000
      0.000000       0.000000       0.000000
      0.000696       0.000000       0.000000
      0.000682       0.000028       0.000000
      0.000644       0.000069       0.000000
      0.000682       0.000028       0.000000
      0.001519       0.000034       0.000000
      0.001441       0.000098       0.000000
      0.000682       0.000028       0.000000
      0.000696       0.000000       0.000000
      0.001546       0.000000       0.000000
      0.001519       0.000034       0.000000
      0.001220       0.000377       0.000000
      0.001327       0.000218       0.000000
      0.002273       0.000215       0.000000
      0.001990       0.000492       0.000000
      0.001327       0.000218       0.000000
      0.001441       0.000098       0.000000
      0.002460       0.000075       0.000000
      0.002273       0.000215       0.000000
      0.002273       0.000215       0.000000
      0.002460       0.000075       0.000000
      0.003772       0.000032       0.000000