# vtk DataFile Version 2.0
time_10.vtk
ASCII
DATASET UNSTRUCTURED_GRID
POINTS  1152 float
      0.000000       0.000000       0.000000
      0.083333       0.000000       0.000000
      0.083333       0.083333       0.000000
      0.000000       0.083333       0.000000
      0.083333       0.000000       0.000000
      0.166667       0.000000       0.000000
      0.166667       0.083333       0.000000
      0.083333       0.083333       0.000000
      0.000000       0.083333       0.000000
      0.083333       0.083333       0.000000
      0.083333       0.166667       0.000000
      0.000000       0.166667       0.000000
      0.083333       0.083333       0.000000
      0.166667       0.083333       0.000000
      0.166667       0.166667       0.000000
      0.083333       0.166667       0.000000
      0.166667       0.000000       0.000000
      0.250000       0.000000       0.000000
      0.250000       0.083333       0.000000
      0.166667       0.083333       0.000000
      0.250000       0.000000       0.000000
      0.333333       0.000000       0.000000
      0.333333       0.083333       0.000000
      0.250000       0.083333       0.000000
      0.166667       0.083333       0.000000
      0.250000       0.083333       0.000000
      0.250000       0.166667       0.000000
      0.166667       0.166667       0.000000
      0.250000       0.083333       0.000000
      0.333333       0.083333       0.000000
      0.333333       0.166667       0.000000
      0.250000       0.166667       0.000000
      0.333333       0.000000       0.000000
      0.416667      -0.000000       0.000000
      0.416667       0.083333       0.000000
      0.333333       0.083333       0.000000
      0.416667      -0.000000       0.000000
      0.500000       0.000000       0.000000
      0.500000       0.083333       0.000000
      0.416667       0.083333       0.000000
      0.333333       0.083333       0.000000
      0.416667       0.083333       0.000000
      0.416667       0.166667       0.000000
      0.333333       0.166667       0.000000
      0.416667       0.083333       0.000000
      0.500000       0.083333       0.000000
      0.500000       0.166667       0.000000
      0.416667       0.166667       0.000000
      0.000000       0.166667       0.000000
      0.083333       0.166667       0.000000
      0.083333       0.250000       0.000000
      0.000000       0.250000       0.000000
      0.083333       0.166667       0.000000
      0.166667       0.166667       0.000000
      0.166667       0.250000       0.000000
      0.083333       0.250000       0.000000
      0.000000       0.250000       0.000000
      0.083333       0.250000       0.000000
      0.083333       0.333333       0.000000
      0.000000       0.333333       0.000000
      0.083333       0.250000       0.000000
      0.166667       0.250000       0.000000
      0.166667       0.333333       0.000000
      0.083333       0.333333       0.000000
      0.166667       0.166667       0.000000
      0.250000       0.166667       0.000000
      0.250000       0.250000       0.000000
      0.166667       0.250000       0.000000
      0.250000       0.166667       0.000000
      0.333333       0.166667       0.000000
      0.333333       0.250000       0.000000
      0.250000       0.250000       0.000000
      0.166667       0.250000       0.000000
      0.250000       0.250000       0.000000
      0.250000       0.333333       0.000000
      0.166667       0.333333       0.000000
      0.250000       0.250000       0.000000
      0.333333       0.250000       0.000000
      0.333333       0.333333       0.000000
      0.250000       0.333333       0.000000
      0.333333       0.166667       0.000000
      0.416667       0.166667       0.000000
      0.416667       0.250000       0.000000
      0.333333       0.250000       0.000000
      0.416667       0.166667       0.000000
      0.500000       0.166667       0.000000
      0.500000       0.250000       0.000000
      0.416667       0.250000       0.000000
      0.333333       0.250000       0.000000
      0.416667       0.250000       0.000000
      0.416667       0.333333       0.000000
      0.333333       0.333333       0.000000
      0.416667       0.250000       0.000000
      0.500000       0.250000       0.000000
      0.500000       0.333333       0.000000
      0.416667       0.333333       0.000000
      0.000000       0.333333       0.000000
      0.083333       0.333333       0.000000
      0.083333       0.416667       0.000000
     -0.000000       0.416667       0.000000
      0.083333       0.333333       0.000000
      0.166667       0.333333       0.000000
      0.166667       0.416667       0.000000
      0.083333       0.416667       0.000000
     -0.000000       0.416667       0.000000
      0.083333       0.416667       0.000000
      0.083333       0.500000       0.000000
      0.000000       0.500000       0.000000
      0.083333       0.416667       0.000000
      0.166667       0.416667       0.000000
      0.166667       0.500000       0.000000
      0.083333       0.500000       0.000000
      0.166667       0.333333       0.000000
      0.250000       0.333333       0.000000
      0.250000       0.416667       0.000000
      0.166667       0.416667       0.000000
      0.250000       0.333333       0.000000
      0.333333       0.333333       0.000000
      0.333333       0.416667       0.000000
      0.250000       0.416667       0.000000
      0.166667       0.416667       0.000000
      0.250000       0.416667       0.000000
      0.250000       0.500000       0.000000
      0.166667       0.500000       0.000000
      0.250000       0.416667       0.000000
      0.333333       0.416667       0.000000
      0.333333       0.500000       0.000000
      0.250000       0.500000       0.000000
      0.333333       0.333333       0.000000
      0.375000       0.333333       0.000000
      0.375000       0.375000       0.000000
      0.333333       0.375000       0.000000
      0.375000       0.333333       0.000000
      0.416667       0.333333       0.000000
      0.416667       0.375000       0.000000
      0.375000       0.375000       0.000000
      0.333333       0.375000       0.000000
      0.375000       0.375000       0.000000
      0.375000       0.416667       0.000000
      0.333333       0.416667       0.000000
      0.375000       0.375000       0.000000
      0.416667       0.375000       0.000000
      0.416667       0.416667       0.000000
      0.375000       0.416667       0.000000
      0.416667       0.333333       0.000000
      0.458333       0.333333       0.000000
      0.458333       0.375000       0.000000
      0.416667       0.375000       0.000000
      0.458333       0.333333       0.000000
      0.500000       0.333333       0.000000
      0.500000       0.375000       0.000000
      0.458333       0.375000       0.000000
      0.416667       0.375000       0.000000
      0.458333       0.375000       0.000000
      0.458333       0.416667       0.000000
      0.416667       0.416667       0.000000
      0.458333       0.375000       0.000000
      0.500000       0.375000       0.000000
      0.500000       0.416667       0.000000
      0.458333       0.416667       0.000000
      0.333333       0.416667       0.000000
      0.375000       0.416667       0.000000
      0.375000       0.458333       0.000000
      0.333333       0.458333       0.000000
      0.375000       0.416667       0.000000
      0.416667       0.416667       0.000000
      0.416667       0.458333       0.000000
      0.375000       0.458333       0.000000
      0.333333       0.458333       0.000000
      0.375000       0.458333       0.000000
      0.375000       0.500000       0.000000
      0.333333       0.500000       0.000000
      0.375000       0.458333       0.000000
      0.416667       0.458333       0.000000
      0.416667       0.500000       0.000000
      0.375000       0.500000       0.000000
      0.416667       0.416667       0.000000
      0.437500       0.416667       0.000000
      0.437500       0.437500       0.000000
      0.416667       0.437500       0.000000
      0.437500       0.416667       0.000000
      0.458333       0.416667       0.000000
      0.458333       0.437500       0.000000
      0.437500       0.437500       0.000000
      0.416667       0.437500       0.000000
      0.437500       0.437500       0.000000
      0.437500       0.458333       0.000000
      0.416667       0.458333       0.000000
      0.437500       0.437500       0.000000
      0.458333       0.437500       0.000000
      0.458333       0.458333       0.000000
      0.437500       0.458333       0.000000
      0.458333       0.416667       0.000000
      0.479167       0.416667       0.000000
      0.479167       0.437500       0.000000
      0.458333       0.437500       0.000000
      0.479167       0.416667       0.000000
      0.500000       0.416667       0.000000
      0.500000       0.437500       0.000000
      0.479167       0.437500       0.000000
      0.458333       0.437500       0.000000
      0.479167       0.437500       0.000000
      0.479167       0.458333       0.000000
      0.458333       0.458333       0.000000
      0.479167       0.437500       0.000000
      0.500000       0.437500       0.000000
      0.500000       0.458333       0.000000
      0.479167       0.458333       0.000000
      0.416667       0.458333       0.000000
      0.437500       0.458333       0.000000
      0.437500       0.479167       0.000000
      0.416667       0.479167       0.000000
      0.437500       0.458333       0.000000
      0.458333       0.458333       0.000000
      0.458333       0.479167       0.000000
      0.437500       0.479167       0.000000
      0.416667       0.479167       0.000000
      0.437500       0.479167       0.000000
      0.437500       0.500000       0.000000
      0.416667       0.500000       0.000000
[...]
POINT_DATA  1152
VECTORS U float 
      0.000000       0.000000       0.000000
      0.000000       0.000000       0.000000
      0.000508       0.000019       0.000000
      0.000505       0.000000       0.000000
      0.000000       0.000000       0.000000
      0.000000       0.000000       0.000000
      0.000517       0.000039       0.000000
      0.000508       0.000019       0.000000
      0.000505       0.000000       0.000000
      0.000508       0.000019       0.000000
      0.000952       0.000032       0.000000
      0.000944       0.000000       0.000000
      0.000508       0.000019       0.000000
      0.000517       0.000039       0.000000
      0.000973       0.000068       0.000000
      0.000952       0.000032       0.000000
      0.000000       0.000000       0.000000
      0.000000       0.000000       0.000000
      0.000528       0.000061       0.000000
      0.000517       0.000039       0.000000
      0.000000       0.000000       0.000000
      0.000000       0.000000       0.000000
      0.000537       0.000084       0.000000
      0.000528       0.000061       0.000000
      0.000517       0.000039       0.000000
      0.000528       0.000061       0.000000
      0.001004       0.000111       0.000000
      0.000973       0.000068       0.000000
      0.000528       0.000061       0.000000
      0.000537       0.000084       0.000000
      0.001036       0.000160       0.000000
      0.001004       0.000111       0.000000
      0.000000       0.000000       0.000000
      0.000000       0.000000       0.000000
      0.000539       0.000103       0.000000
      0.000537       0.000084       0.000000
      0.000000       0.000000       0.000000
      0.000000       0.000000       0.000000
      0.000535       0.000109       0.000000
      0.000539       0.000103       0.000000
      0.000537       0.000084       0.000000
      0.000539       0.000103       0.000000
      0.001060       0.000203       0.000000
      0.001036       0.000160       0.000000
      0.000539       0.000103       0.000000
      0.000535       0.000109       0.000000
      0.001074       0.000219       0.000000
      0.001060       0.000203       0.000000
      0.000944       0.000000       0.000000
      0.000952       0.000032       0.000000
      0.001318       0.000037       0.000000
      0.001305       0.000000       0.000000
      0.000952       0.000032       0.000000
      0.000973       0.000068       0.000000
      0.001356       0.000081       0.000000
      0.001318       0.000037       0.000000
      0.001305       0.000000       0.000000
      0.001318       0.000037       0.000000
      0.001590       0.000032       0.000000
      0.001571       0.000000       0.000000
      0.001318       0.000037       0.000000
      0.001356       0.000081       0.000000
      0.001646       0.000073       0.000000
      0.001590       0.000032       0.000000
      0.000973       0.000068       0.000000
      0.001004       0.000111       0.000000
      0.001416       0.000139       0.000000
      0.001356       0.000081       0.000000
      0.001004       0.000111       0.000000
      0.001036       0.000160       0.000000
      0.001490       0.000211       0.000000
      0.001416       0.000139       0.000000
      0.001356       0.000081       0.000000
      0.001416       0.000139       0.000000
      0.001740       0.000132       0.000000
      0.001646       0.000073       0.000000
      0.001416       0.000139       0.000000
      0.001490       0.000211       0.000000
      0.001873       0.000219       0.000000
      0.001740       0.000132       0.000000
      0.001036       0.000160       0.000000
      0.001060       0.000203       0.000000
      0.001563       0.000288       0.000000
      0.001490       0.000211       0.000000
      0.001060       0.000203       0.000000
      0.001074       0.000219       0.000000
      0.001619       0.000324       0.000000
      0.001563       0.000288       0.000000
      0.001490       0.000211       0.000000
      0.001563       0.000288       0.000000
      0.002033       0.000335       0.000000
      0.001873       0.000219       0.000000
      0.001563       0.000288       0.000000
      0.001619       0.000324       0.000000
      0.002174       0.000420       0.000000
      0.002033       0.000335       0.000000
      0.001571       0.000000       0.000000
      0.001590       0.000032       0.000000
      0.001755       0.000018       0.000000
      0.001733       0.000000       0.000000
      0.001590       0.000032       0.000000
      0.001646       0.000073       0.000000
      0.001822       0.000045       0.000000
      0.001755       0.000018       0.000000
      0.001733       0.000000       0.000000
      0.001755       0.000018       0.000000
      0.001807       0.000000       0.000000
      0.001787       0.000000       0.000000
      0.001755       0.000018       0.000000
      0.001822       0.000045       0.000000
      0.001872       0.000007       0.000000
      0.001807       0.000000       0.000000
      0.001646       0.000073       0.000000
      0.001740       0.000132       0.000000
      0.001940       0.000090       0.000000
      0.001822       0.000045       0.000000
      0.001740       0.000132       0.000000
      0.001873       0.000219       0.000000
      0.002122       0.000164       0.000000
      0.001940       0.000090       0.000000
      0.001822       0.000045       0.000000
      0.001940       0.000090       0.000000
      0.001989       0.000028       0.000000
      0.001872       0.000007       0.000000
      0.001940       0.000090       0.000000
      0.002122       0.000164       0.000000
      0.002170       0.000070       0.000000
      0.001989       0.000028       0.000000
      0.001873       0.000219       0.000000
      0.001951       0.000274       0.000000
      0.002121       0.000257       0.000000
      0.002019       0.000199       0.000000
      0.001951       0.000274       0.000000
      0.002033       0.000335       0.000000
      0.002237       0.000330       0.000000
      0.002121       0.000257       0.000000
      0.002019       0.000199       0.000000
      0.002121       0.000257       0.000000
      0.002243       0.000217       0.000000
      0.002122       0.000164       0.000000
      0.002121       0.000257       0.000000
      0.002237       0.000330       0.000000
      0.002392       0.000291       0.000000
      0.002243       0.000217       0.000000
      0.002033       0.000335       0.000000
      0.002109       0.000392       0.000000
      0.002356       0.000411       0.000000
      0.002237       0.000330       0.000000
      0.002109       0.000392       0.000000
      0.002174       0.000420       0.000000
      0.002460       0.000464       0.000000
      0.002356       0.000411       0.000000
      0.002237       0.000330       0.000000
      0.002356       0.000411       0.000000
      0.002572       0.000398       0.000000
      0.002392       0.000291       0.000000
      0.002356       0.000411       0.000000
      0.002460       0.000464       0.000000
      0.002753       0.000504       0.000000
      0.002572       0.000398       0.000000
      0.002122       0.000164       0.000000
      0.002243       0.000217       0.000000
      0.002300       0.000161       0.000000
      0.002172       0.000118       0.000000
      0.002243       0.000217       0.000000
      0.002392       0.000291       0.000000
      0.002461       0.000219       0.000000
      0.002300       0.000161       0.000000
      0.002172       0.000118       0.000000
      0.002300       0.000161       0.000000
      0.002292       0.000102       0.000000
      0.002170       0.000070       0.000000
      0.002300       0.000161       0.000000
      0.002461       0.000219       0.000000
      0.002438       0.000144       0.000000
      0.002292       0.000102       0.000000
      0.002392       0.000291       0.000000
      0.002479       0.000340       0.000000
      0.002537       0.000305       0.000000
      0.002439       0.000258       0.000000
      0.002479       0.000340       0.000000
      0.002572       0.000398       0.000000
      0.002650       0.000368       0.000000
      0.002537       0.000305       0.000000
      0.002439       0.000258       0.000000
      0.002537       0.000305       0.000000
      0.002561       0.000259       0.000000
      0.002461       0.000219       0.000000
      0.002537       0.000305       0.000000
      0.002650       0.000368       0.000000
      0.002685       0.000318       0.000000
      0.002561       0.000259       0.000000
      0.002572       0.000398       0.000000
      0.002666       0.000460       0.000000
      0.002777       0.000450       0.000000
      0.002650       0.000368       0.000000
      0.002666       0.000460       0.000000
      0.002753       0.000504       0.000000
      0.002903       0.000521       0.000000
      0.002777       0.000450       0.000000
      0.002650       0.000368       0.000000
      0.002777       0.000450       0.000000
      0.002850       0.000413       0.000000
      0.002685       0.000318       0.000000
      0.002777       0.000450       0.000000
      0.002903       0.000521       0.000000
      0.003055       0.000533       0.000000
      0.002850       0.000413       0.000000
      0.002461       0.000219       0.000000
      0.002561       0.000259       0.000000
      0.002550       0.000212       0.000000
      0.002457       0.000180       0.000000
      0.002561       0.000259       0.000000
      0.002685       0.000318       0.000000
      0.002661       0.000255       0.000000
      0.002550       0.000212       0.000000
      0.002457       0.000180       0.000000
      0.002550       0.000212       0.000000
      0.002520       0.000172       0.000000
      0.002438       0.000144       0.000000
      0.002550       0.000212       0.000000
      0.002661       0.000255       0.000000
      0.002611       0.000207       0.000000
      0.002520       0.000172       0.000000
      0.002685       0.000318       0.000000
      0.002762       0.000360       0.000000
      0.002758       0.000324       0.000000
      0.002680       0.000286       0.000000
      0.002762       0.000360       0.000000
      0.002850       0.000413       0.000000
      0.002856       0.000378       0.000000
      0.002758       0.000324       0.000000
      0.002680       0.000286       0.000000
      0.002758       0.000324       0.000000
      0.002733       0.000286       0.000000
      0.002661       0.000255       0.000000
      0.002758       0.000324       0.000000
      0.002856       0.000378       0.000000
      0.002829       0.000332       0.000000
      0.002733       0.000286       0.000000
      0.002850       0.000413       0.000000
      0.002950       0.000477       0.000000
      0.002982       0.000454       0.000000
      0.002856       0.000378       0.000000
      0.002950       0.000477       0.000000
      0.003055       0.000533       0.000000
      0.003133       0.000534       0.000000
      0.002982       0.000454       0.000000
      0.002856       0.000378       0.000000
      0.002982       0.000454       0.000000
      0.002976       0.000409       0.000000
      0.002829       0.000332       0.000000
      0.002982       0.000454       0.000000
      0.003133       0.000534       0.000000
      0.003217       0.000525       0.000000
      0.002976       0.000409       0.000000
      0.002661       0.000255       0.000000
      0.002733       0.000286       0.000000
      0.002693       0.000253       0.000000
      0.002635       0.000228       0.000000
      0.002733       0.000286       0.000000
      0.002829       0.000332       0.000000
      0.002768       0.000284       0.000000
      0.002693       0.000253       0.000000
      0.002635       0.000228       0.000000
      0.002693       0.000253       0.000000
      0.002661       0.000228       0.000000
      0.002611       0.000207       0.000000
      0.002693       0.000253       0.000000
      0.002768       0.000284       0.000000
      0.002717       0.000255       0.000000
      0.002661       0.000228       0.000000
      0.002829       0.000332       0.000000
      0.002976       0.000409       0.000000
      0.002895       0.000337       0.000000
      0.002768       0.000284       0.000000
      0.002976       0.000409       0.000000
      0.003217       0.000525       0.000000
      0.003342       0.000484       0.000000
      0.002895       0.000337       0.000000
      0.002768       0.000284       0.000000
      0.002895       0.000337       0.000000
      0.002805       0.000293       0.000000
      0.002717       0.000255       0.000000
      0.002895       0.000337       0.000000
      0.003342       0.000484       0.000000
      0.005597       0.000390       0.000000
      0.002805       0.000293       0.000000
      0.000000       0.000000       0.000000
      0.000000       0.000000       0.000000
      0.000531       0.000098       0.000000
      0.000535       0.000109       0.000000
      0.000000       0.000000       0.000000
      0.000000       0.000000       0.000000
      0.000536       0.000075       0.000000
      0.000531       0.000098       0.000000
      0.000535       0.000109       0.000000
      0.000531       0.000098       0.000000
      0.001088       0.000193       0.000000
      0.001074       0.000219       0.000000
      0.000531       0.000098       0.000000
      0.000536       0.000075       0.000000
      0.001115       0.000138       0.000000
      0.001088       0.000193       0.000000
      0.000000       0.000000       0.000000
      0.000000       0.000000       0.000000
      0.000550       0.000049       0.000000
      0.000536       0.000075       0.000000
      0.000000       0.000000       0.000000
      0.000000       0.000000       0.000000
      0.000568       0.000028       0.000000
      0.000550       0.000049       0.000000
      0.000536       0.000075       0.000000
      0.000550       0.000049       0.000000
      0.001155       0.000082       0.000000
      0.001115       0.000138       0.000000
      0.000550       0.000049       0.000000
      0.000568       0.000028       0.000000
      0.001194       0.000042       0.000000
      0.001155       0.000082       0.000000
      0.000000       0.000000       0.000000
      0.000000       0.000000       0.000000
      0.000581       0.000012       0.000000
      0.000568       0.000028       0.000000
      0.000000       0.000000       0.000000
      0.000000       0.000000       0.000000
      0.000586       0.000000       0.000000
      0.000581       0.000012       0.000000
      0.000568       0.000028       0.000000
      0.000581       0.000012       0.000000
      0.001222       0.000017       0.000000
      0.001194       0.000042       0.000000
      0.000581       0.000012       0.000000
      0.000586       0.000000       0.000000
      0.001232       0.000000       0.000000
      0.001222       0.000017       0.000000
      0.001074       0.000219       0.000000
      0.001088       0.000193       0.000000
      0.001670       0.000275       0.000000
      0.001619       0.000324       0.000000
      0.001088       0.000193       0.000000
      0.001115       0.000138       0.000000
      0.001743       0.000176       0.000000
      0.001670       0.000275       0.000000
      0.001619       0.000324       0.000000
      0.001670       0.000275       0.000000
      0.002302       0.000328       0.000000
      0.002174       0.000420       0.000000
      0.001670       0.000275       0.000000
      0.001743       0.000176       0.000000
      0.002459       0.000166       0.000000
      0.002302       0.000328       0.000000
      0.001115       0.000138       0.000000
      0.001155       0.000082       0.000000
      0.001825       0.000090       0.000000
      0.001743       0.000176       0.000000
      0.001155       0.000082       0.000000
      0.001194       0.000042       0.000000
      0.001893       0.000037       0.000000
      0.001825       0.000090       0.000000
      0.001743       0.000176       0.000000
      0.001825       0.000090       0.000000
      0.002596       0.000061       0.000000
      0.002459       0.000166       0.000000
      0.001825       0.000090       0.000000
      0.001893       0.000037       0.000000
      0.002688       0.000013       0.000000
      0.002596       0.000061       0.000000
      0.001194       0.000042       0.000000
      0.001222       0.000017       0.000000
      0.001936       0.000012       0.000000
      0.001893       0.000037       0.000000
      0.001222       0.000017       0.000000
      0.001232       0.000000       0.000000
      0.001951       0.000000       0.000000
      0.001936       0.000012       0.000000
      0.001893       0.000037       0.000000
      0.001936       0.000012       0.000000
      0.002738      -0.000001       0.000000
      0.002688       0.000013       0.000000
      0.001936       0.000012       0.000000
      0.001951       0.000000       0.000000
      0.002755       0.000000       0.000000
      0.002738      -0.000001       0.000000
      0.002459       0.000166       0.000000
      0.002596       0.000061       0.000000
      0.003519       0.000003       0.000000
      0.003375       0.000087       0.000000
      0.002596       0.000061       0.000000
      0.002688       0.000013       0.000000
      0.003594      -0.000021       0.000000
      0.003519       0.000003       0.000000
      0.003375       0.000087       0.000000
      0.003519       0.000003       0.000000
      0.004591      -0.000026       0.000000
      0.004607       0.000025       0.000000
      0.003519       0.000003       0.000000
      0.003594      -0.000021       0.000000
      0.004584      -0.000036       0.000000
      0.004591      -0.000026       0.000000
      0.002688       0.000013       0.000000
      0.002738      -0.000001       0.000000
      0.003630      -0.000017       0.000000
      0.003594      -0.000021       0.000000
      0.002738      -0.000001       0.000000
      0.002755       0.000000       0.000000
      0.003641       0.000000       0.000000
      0.003630      -0.000017       0.000000
      0.003594      -0.000021       0.000000
      0.003630      -0.000017       0.000000
      0.004581      -0.000023       0.000000
      0.004584      -0.000036       0.000000
      0.003630      -0.000017       0.000000
      0.003641       0.000000       0.000000
      0.004580       0.000000       0.000000
      0.004581      -0.000023       0.000000
      0.002174       0.000420       0.000000
      0.002235       0.000396       0.000000
      0.002554       0.000432       0.000000
      0.002460       0.000464       0.000000
      0.002235       0.000396       0.000000
      0.002302       0.000328       0.000000
      0.002662       0.000331       0.000000
      0.002554       0.000432       0.000000
      0.002460       0.000464       0.000000
      0.002554       0.000432       0.000000
      0.002919       0.000454       0.000000
      0.002753       0.000504       0.000000
      0.002554       0.000432       0.000000
      0.002662       0.000331       0.000000
      0.003100       0.000299       0.000000
      0.002919       0.000454       0.000000
      0.002302       0.000328       0.000000
      0.002380       0.000244       0.000000
      0.002776       0.000222       0.000000
      0.002662       0.000331       0.000000
      0.002380       0.000244       0.000000
      0.002459       0.000166       0.000000
      0.002881       0.000134       0.000000
      0.002776       0.000222       0.000000
      0.002662       0.000331       0.000000
      0.002776       0.000222       0.000000
      0.003258       0.000171       0.000000