# vtk DataFile Version 2.0
time_10.vtk
ASCII
DATASET UNSTRUCTURED_GRID
POINTS  1152 float
      0.000000       0.000000       0.000000
      0.083333       0.000000       0.000000
      0.083333       0.083333       0.000000
      0.000000       0.083333       0.000000
      0.083333       0.000000       0.000000
      0.166667       0.000000       0.000000
      0.166667       0.083333       0.000000
      0.083333       0.083333       0.000000
      0.000000       0.083333       0.000000
      0.083333       0.083333       0.000000
      0.083333       0.166667       0.000000
      0.000000       0.166667       0.000000
      0.083333       0.083333       0.000000
      0.166667       0.083333       0.000000
      0.166667       0.166667       0.000000
      0.083333       0.166667       0.000000
      0.166667       0.000000       0.000000
      0.250000       0.000000       0.000000
      0.250000       0.083333       0.000000
      0.166667       0.083333       0.000000
      0.250000       0.000000       0.000000
      0.333333       0.000000       0.000000
      0.333333       0.083333       0.000000
      0.250000       0.083333       0.000000
      0.166667       0.083333       0.000000
      0.250000       0.083333       0.000000
      0.250000       0.166667       0.000000
      0.166667       0.166667       0.000000
      0.250000       0.083333       0.000000
      0.333333       0.083333       0.000000
      0.333333       0.166667       0.000000
      0.250000       0.166667       0.000000
      0.333333       0.000000       0.000000
      0.416667      -0.000000       0.000000
      0.416667       0.083333       0.000000
      0.333333       0.083333       0.000000
      0.416667      -0.000000       0.000000
      0.500000       0.000000       0.000000
      0.500000       0.083333       0.000000
      0.416667       0.083333       0.000000
      0.333333       0.083333       0.000000
      0.416667       0.083333       0.000000
      0.416667       0.166667       0.000000
      0.333333       0.166667       0.000000
      0.416667       0.083333       0.000000
      0.500000       0.083333       0.000000
      0.500000       0.166667       0.000000
      0.416667       0.166667       0.000000
      0.000000       0.166667       0.000000
      0.083333       0.166667       0.000000
      0.083333       0.250000       0.000000
      0.000000       0.250000       0.000000
      0.083333       0.166667       0.000000
      0.166667       0.166667       0.000000
      0.166667       0.250000       0.000000
      0.083333       0.250000       0.000000
      0.000000       0.250000       0.000000
      0.083333       0.250000       0.000000
      0.083333       0.333333       0.000000
      0.000000       0.333333       0.000000
      0.083333       0.250000       0.000000
      0.166667       0.250000       0.000000
      0.166667       0.333333       0.000000
      0.083333       0.333333       0.000000
      0.166667       0.166667       0.000000
      0.250000       0.166667       0.000000
      0.250000       0.250000       0.000000
      0.166667       0.250000       0.000000
      0.250000       0.166667       0.000000
      0.333333       0.166667       0.000000
      0.333333       0.250000       0.000000
      0.250000       0.250000       0.000000
      0.166667       0.250000       0.000000
      0.250000       0.250000       0.000000
      0.250000       0.333333       0.000000
      0.166667       0.333333       0.000000
      0.250000       0.250000       0.000000
      0.333333       0.250000       0.000000
      0.333333       0.333333       0.000000
      0.250000       0.333333       0.000000
      0.333333       0.166667       0.000000
      0.416667       0.166667       0.000000
      0.416667       0.250000       0.000000
      0.333333       0.250000       0.000000
      0.416667       0.166667       0.000000
      0.500000       0.166667       0.000000
      0.500000       0.250000       0.000000
      0.416667       0.250000       0.000000
      0.333333       0.250000       0.000000
      0.416667       0.250000       0.000000
      0.416667       0.333333       0.000000
      0.333333       0.333333       0.000000
      0.416667       0.250000       0.000000
      0.500000       0.250000       0.000000
      0.500000       0.333333       0.000000
      0.416667       0.333333       0.000000
      0.000000       0.333333       0.000000
      0.083333       0.333333       0.000000
      0.083333       0.416667       0.000000
     -0.000000       0.416667       0.000000
      0.083333       0.333333       0.000000
      0.166667       0.333333       0.000000
      0.166667       0.416667       0.000000
      0.083333       0.416667       0.000000
     -0.000000       0.416667       0.000000
      0.083333       0.416667       0.000000
      0.083333       0.500000       0.000000
      0.000000       0.500000       0.000000
      0.083333       0.416667       0.000000
      0.166667       0.416667       0.000000
      0.166667       0.500000       0.000000
      0.083333       0.500000       0.000000
      0.166667       0.333333       0.000000
      0.250000       0.333333       0.000000
      0.250000       0.416667       0.000000
      0.166667       0.416667       0.000000
      0.250000       0.333333       0.000000
      0.333333       0.333333       0.000000
      0.333333       0.416667       0.000000
      0.250000       0.416667       0.000000
      0.166667       0.416667       0.000000
      0.250000       0.416667       0.000000
      0.250000       0.500000       0.000000
      0.166667       0.500000       0.000000
      0.250000       0.416667       0.000000
      0.333333       0.416667       0.000000
      0.333333       0.500000       0.000000
      0.250000       0.500000       0.000000
      0.333333       0.333333       0.000000
      0.375000       0.333333       0.000000
      0.375000       0.375000       0.000000
      0.333333       0.375000       0.000000
      0.375000       0.333333       0.000000
      0.416667       0.333333       0.000000
      0.416667       0.375000       0.000000
      0.375000       0.375000       0.000000
      0.333333       0.375000       0.000000
      0.375000       0.375000       0.000000
      0.375000       0.416667       0.000000
      0.333333       0.416667       0.000000
      0.375000       0.375000       0.000000
      0.416667       0.375000       0.000000
      0.416667       0.416667       0.000000
      0.375000       0.416667       0.000000
      0.416667       0.333333       0.000000
      0.458333       0.333333       0.000000
      0.458333       0.375000       0.000000
      0.416667       0.375000       0.000000
      0.458333       0.333333       0.000000
      0.500000       0.333333       0.000000
      0.500000       0.375000       0.000000
      0.458333       0.375000       0.000000
      0.416667       0.375000       0.000000
      0.458333       0.375000       0.000000
      0.458333       0.416667       0.000000
      0.416667       0.416667       0.000000
      0.458333       0.375000       0.000000
      0.500000       0.375000       0.000000
      0.500000       0.416667       0.000000
      0.458333       0.416667       0.000000
      0.333333       0.416667       0.000000
      0.375000       0.416667       0.000000
      0.375000       0.458333       0.000000
      0.333333       0.458333       0.000000
      0.375000       0.416667       0.000000
      0.416667       0.416667       0.000000
      0.416667       0.458333       0.000000
      0.375000       0.458333       0.000000
      0.333333       0.458333       0.000000
      0.375000       0.458333       0.000000
      0.375000       0.500000       0.000000
      0.333333       0.500000       0.000000
      0.375000       0.458333       0.000000
      0.416667       0.458333       0.000000
      0.416667       0.500000       0.000000
      0.375000       0.500000       0.000000
      0.416667       0.416667       0.000000
      0.437500       0.416667       0.000000
      0.437500       0.437500       0.000000
      0.416667       0.437500       0.000000
      0.437500       0.416667       0.000000
      0.458333       0.416667       0.000000
      0.458333       0.437500       0.000000
      0.437500       0.437500       0.000000
      0.416667       0.437500       0.000000
      0.437500       0.437500       0.000000
      0.437500       0.458333       0.000000
      0.416667       0.458333       0.000000
      0.437500       0.437500       0.000000
      0.458333       0.437500       0.000000
      0.458333       0.458333       0.000000
      0.437500       0.458333       0.000000
      0.458333       0.416667       0.000000
      0.479167       0.416667       0.000000
      0.479167       0.437500       0.000000
      0.458333       0.437500       0.000000
      0.479167       0.416667       0.000000
      0.500000       0.416667       0.000000
      0.500000       0.437500       0.000000
      0.479167       0.437500       0.000000
      0.458333       0.437500       0.000000
      0.479167       0.437500       0.000000
      0.479167       0.458333       0.000000
      0.458333       0.458333       0.000000
      0.479167       0.437500       0.000000
      0.500000       0.437500       0.000000
      0.500000       0.458333       0.000000
      0.479167       0.458333       0.000000
      0.416667       0.458333       0.000000
      0.437500       0.458333       0.000000
      0.437500       0.479167       0.000000
      0.416667       0.479167       0.000000
      0.437500       0.458333       0.000000
      0.458333       0.458333       0.000000
      0.458333       0.479167       0.000000
      0.437500       0.479167       0.000000
      0.416667       0.479167       0.000000
      0.437500       0.479167       0.000000
      0.437500       0.500000       0.000000
      0.416667       0.500000       0.000000
[...]
POINT_DATA  1152
VECTORS U float 
      0.000000       0.000000       0.000000
      0.000000       0.000000       0.000000
      0.000515       0.000020       0.000000
      0.000513       0.000000       0.000000
      0.000000       0.000000       0.000000
      0.000000       0.000000       0.000000
      0.000521       0.000042       0.000000
      0.000515       0.000020       0.000000
      0.000513       0.000000       0.000000
      0.000515       0.000020       0.000000
      0.000966       0.000036       0.000000
      0.000960       0.000000       0.000000
      0.000515       0.000020       0.000000
      0.000521       0.000042       0.000000
      0.000984       0.000076       0.000000
      0.000966       0.000036       0.000000
      0.000000       0.000000       0.000000
      0.000000       0.000000       0.000000
      0.000527       0.000064       0.000000
      0.000521       0.000042       0.000000
      0.000000       0.000000       0.000000
      0.000000       0.000000       0.000000
      0.000531       0.000084       0.000000
      0.000527       0.000064       0.000000
      0.000521       0.000042       0.000000
      0.000527       0.000064       0.000000
      0.001007       0.000120       0.000000
      0.000984       0.000076       0.000000
      0.000527       0.000064       0.000000
      0.000531       0.000084       0.000000
      0.001030       0.000163       0.000000
      0.001007       0.000120       0.000000
      0.000000       0.000000       0.000000
      0.000000       0.000000       0.000000
      0.000529       0.000098       0.000000
      0.000531       0.000084       0.000000
      0.000000       0.000000       0.000000
      0.000000       0.000000       0.000000
      0.000523       0.000098       0.000000
      0.000529       0.000098       0.000000
      0.000531       0.000084       0.000000
      0.000529       0.000098       0.000000
      0.001045       0.000195       0.000000
      0.001030       0.000163       0.000000
      0.000529       0.000098       0.000000
      0.000523       0.000098       0.000000
      0.001055       0.000197       0.000000
      0.001045       0.000195       0.000000
      0.000960       0.000000       0.000000
      0.000966       0.000036       0.000000
      0.001342       0.000044       0.000000
      0.001330       0.000000       0.000000
      0.000966       0.000036       0.000000
      0.000984       0.000076       0.000000
      0.001377       0.000095       0.000000
      0.001342       0.000044       0.000000
      0.001330       0.000000       0.000000
      0.001342       0.000044       0.000000
      0.001625       0.000042       0.000000
      0.001606       0.000000       0.000000
      0.001342       0.000044       0.000000
      0.001377       0.000095       0.000000
      0.001681       0.000092       0.000000
      0.001625       0.000042       0.000000
      0.000984       0.000076       0.000000
      0.001007       0.000120       0.000000
      0.001430       0.000156       0.000000
      0.001377       0.000095       0.000000
      0.001007       0.000120       0.000000
      0.001030       0.000163       0.000000
      0.001493       0.000225       0.000000
      0.001430       0.000156       0.000000
      0.001377       0.000095       0.000000
      0.001430       0.000156       0.000000
      0.001773       0.000159       0.000000
      0.001681       0.000092       0.000000
      0.001430       0.000156       0.000000
      0.001493       0.000225       0.000000
      0.001898       0.000248       0.000000
      0.001773       0.000159       0.000000
      0.001030       0.000163       0.000000
      0.001045       0.000195       0.000000
      0.001550       0.000282       0.000000
      0.001493       0.000225       0.000000
      0.001045       0.000195       0.000000
      0.001055       0.000197       0.000000
      0.001596       0.000290       0.000000
      0.001550       0.000282       0.000000
      0.001493       0.000225       0.000000
      0.001550       0.000282       0.000000
      0.002036       0.000343       0.000000
      0.001898       0.000248       0.000000
      0.001550       0.000282       0.000000
      0.001596       0.000290       0.000000
      0.002154       0.000372       0.000000
      0.002036       0.000343       0.000000
      0.001606       0.000000       0.000000
      0.001625       0.000042       0.000000
      0.001797       0.000028       0.000000
      0.001773       0.000000       0.000000
      0.001625       0.000042       0.000000
      0.001681       0.000092       0.000000
      0.001869       0.000065       0.000000
      0.001797       0.000028       0.000000
      0.001773       0.000000       0.000000
      0.001797       0.000028       0.000000
      0.001847       0.000008       0.000000
      0.001824       0.000000       0.000000
      0.001797       0.000028       0.000000
      0.001869       0.000065       0.000000
      0.001919       0.000024       0.000000
      0.001847       0.000008       0.000000
      0.001681       0.000092       0.000000
      0.001773       0.000159       0.000000
      0.001995       0.000121       0.000000
      0.001869       0.000065       0.000000
      0.001773       0.000159       0.000000
      0.001898       0.000248       0.000000
      0.002188       0.000206       0.000000
      0.001995       0.000121       0.000000
      0.001869       0.000065       0.000000
      0.001995       0.000121       0.000000
      0.002050       0.000053       0.000000
      0.001919       0.000024       0.000000
      0.001995       0.000121       0.000000
      0.002188       0.000206       0.000000
      0.002263       0.000102       0.000000
      0.002050       0.000053       0.000000
      0.001898       0.000248       0.000000
      0.001967       0.000297       0.000000
      0.002160       0.000292       0.000000
      0.002063       0.000236       0.000000
      0.001967       0.000297       0.000000
      0.002036       0.000343       0.000000
      0.002263       0.000352       0.000000
      0.002160       0.000292       0.000000
      0.002063       0.000236       0.000000
      0.002160       0.000292       0.000000
      0.002314       0.000263       0.000000
      0.002188       0.000206       0.000000
      0.002160       0.000292       0.000000
      0.002263       0.000352       0.000000
      0.002461       0.000333       0.000000
      0.002314       0.000263       0.000000
      0.002036       0.000343       0.000000
      0.002099       0.000374       0.000000
      0.002362       0.000402       0.000000
      0.002263       0.000352       0.000000
      0.002099       0.000374       0.000000
      0.002154       0.000372       0.000000
      0.002448       0.000407       0.000000
      0.002362       0.000402       0.000000
      0.002263       0.000352       0.000000
      0.002362       0.000402       0.000000
      0.002619       0.000410       0.000000
      0.002461       0.000333       0.000000
      0.002362       0.000402       0.000000
      0.002448       0.000407       0.000000
      0.002764       0.000438       0.000000
      0.002619       0.000410       0.000000
      0.002188       0.000206       0.000000
      0.002314       0.000263       0.000000
      0.002406       0.000208       0.000000
      0.002259       0.000158       0.000000
      0.002314       0.000263       0.000000
      0.002461       0.000333       0.000000
      0.002593       0.000273       0.000000
      0.002406       0.000208       0.000000
      0.002259       0.000158       0.000000
      0.002406       0.000208       0.000000
      0.002414       0.000137       0.000000
      0.002263       0.000102       0.000000
      0.002406       0.000208       0.000000
      0.002593       0.000273       0.000000
      0.002611       0.000179       0.000000
      0.002414       0.000137       0.000000
      0.002461       0.000333       0.000000
      0.002540       0.000372       0.000000
      0.002635       0.000351       0.000000
      0.002538       0.000308       0.000000
      0.002540       0.000372       0.000000
      0.002619       0.000410       0.000000
      0.002739       0.000399       0.000000
      0.002635       0.000351       0.000000
      0.002538       0.000308       0.000000
      0.002635       0.000351       0.000000
      0.002707       0.000315       0.000000
      0.002593       0.000273       0.000000
      0.002635       0.000351       0.000000
      0.002739       0.000399       0.000000
      0.002839       0.000368       0.000000
      0.002707       0.000315       0.000000
      0.002619       0.000410       0.000000
      0.002695       0.000437       0.000000
      0.002842       0.000441       0.000000
      0.002739       0.000399       0.000000
      0.002695       0.000437       0.000000
      0.002764       0.000438       0.000000
      0.002939       0.000451       0.000000
      0.002842       0.000441       0.000000
      0.002739       0.000399       0.000000
      0.002842       0.000441       0.000000
      0.002989       0.000432       0.000000
      0.002839       0.000368       0.000000
      0.002842       0.000441       0.000000
      0.002939       0.000451       0.000000
      0.003137       0.000461       0.000000
      0.002989       0.000432       0.000000
      0.002593       0.000273       0.000000
      0.002707       0.000315       0.000000
      0.002743       0.000263       0.000000
      0.002618       0.000228       0.000000
      0.002707       0.000315       0.000000
      0.002839       0.000368       0.000000
      0.002899       0.000310       0.000000
      0.002743       0.000263       0.000000
      0.002618       0.000228       0.000000
      0.002743       0.000263       0.000000
      0.002737       0.000204       0.000000
      0.002611       0.000179       0.000000
      0.002743       0.000263       0.000000
      0.002899       0.000310       0.000000
      0.002899       0.000231       0.000000
      0.002737       0.000204       0.000000
      0.002839       0.000368       0.000000
      0.002913       0.000400       0.000000
      0.002962       0.000376       0.000000
      0.002876       0.000342       0.000000
      0.002913       0.000400       0.000000
      0.002989       0.000432       0.000000
      0.003057       0.000416       0.000000
      0.002962       0.000376       0.000000
      0.002876       0.000342       0.000000
      0.002962       0.000376       0.000000
      0.002997       0.000342       0.000000
      0.002899       0.000310       0.000000
      0.002962       0.000376       0.000000
      0.003057       0.000416       0.000000
      0.003117       0.000386       0.000000
      0.002997       0.000342       0.000000
      0.002989       0.000432       0.000000
      0.003064       0.000456       0.000000
      0.003157       0.000453       0.000000
      0.003057       0.000416       0.000000
      0.003064       0.000456       0.000000
      0.003137       0.000461       0.000000
      0.003255       0.000463       0.000000
      0.003157       0.000453       0.000000
      0.003057       0.000416       0.000000
      0.003157       0.000453       0.000000
      0.003257       0.000441       0.000000
      0.003117       0.000386       0.000000
      0.003157       0.000453       0.000000
      0.003255       0.000463       0.000000
      0.003404       0.000463       0.000000
      0.003257       0.000441       0.000000
      0.002899       0.000310       0.000000
      0.002997       0.000342       0.000000
      0.003012       0.000297       0.000000
      0.002906       0.000272       0.000000
      0.002997       0.000342       0.000000
      0.003117       0.000386       0.000000
      0.003153       0.000333       0.000000
      0.003012       0.000297       0.000000
      0.002906       0.000272       0.000000
      0.003012       0.000297       0.000000
      0.003007       0.000245       0.000000
      0.002899       0.000231       0.000000
      0.003012       0.000297       0.000000
      0.003153       0.000333       0.000000
      0.003154       0.000258       0.000000
      0.003007       0.000245       0.000000
      0.003117       0.000386       0.000000
      0.003257       0.000441       0.000000
      0.003364       0.000403       0.000000
      0.003153       0.000333       0.000000
      0.003257       0.000441       0.000000
      0.003404       0.000463       0.000000
      0.003641       0.000452       0.000000
      0.003364       0.000403       0.000000
      0.003153       0.000333       0.000000
      0.003364       0.000403       0.000000
      0.003413       0.000270       0.000000
      0.003154       0.000258       0.000000
      0.003364       0.000403       0.000000
      0.003641       0.000452       0.000000
      0.004505       0.000353       0.000000
      0.003413       0.000270       0.000000
      0.000000       0.000000       0.000000
      0.000000       0.000000       0.000000
      0.000522       0.000084       0.000000
      0.000523       0.000098       0.000000
      0.000000       0.000000       0.000000
      0.000000       0.000000       0.000000
      0.000530       0.000062       0.000000
      0.000522       0.000084       0.000000
      0.000523       0.000098       0.000000
      0.000522       0.000084       0.000000
      0.001070       0.000163       0.000000
      0.001055       0.000197       0.000000
      0.000522       0.000084       0.000000
      0.000530       0.000062       0.000000
      0.001100       0.000111       0.000000
      0.001070       0.000163       0.000000
      0.000000       0.000000       0.000000
      0.000000       0.000000       0.000000
      0.000545       0.000039       0.000000
      0.000530       0.000062       0.000000
      0.000000       0.000000       0.000000
      0.000000       0.000000       0.000000
      0.000562       0.000022       0.000000
      0.000545       0.000039       0.000000
      0.000530       0.000062       0.000000
      0.000545       0.000039       0.000000
      0.001138       0.000064       0.000000
      0.001100       0.000111       0.000000
      0.000545       0.000039       0.000000
      0.000562       0.000022       0.000000
      0.001174       0.000031       0.000000
      0.001138       0.000064       0.000000
      0.000000       0.000000       0.000000
      0.000000       0.000000       0.000000
      0.000575       0.000009       0.000000
      0.000562       0.000022       0.000000
      0.000000       0.000000       0.000000
      0.000000       0.000000       0.000000
      0.000579       0.000000       0.000000
      0.000575       0.000009       0.000000
      0.000562       0.000022       0.000000
      0.000575       0.000009       0.000000
      0.001199       0.000012       0.000000
      0.001174       0.000031       0.000000
      0.000575       0.000009       0.000000
      0.000579       0.000000       0.000000
      0.001208       0.000000       0.000000
      0.001199       0.000012       0.000000
      0.001055       0.000197       0.000000
      0.001070       0.000163       0.000000
      0.001647       0.000227       0.000000
      0.001596       0.000290       0.000000
      0.001070       0.000163       0.000000
      0.001100       0.000111       0.000000
      0.001717       0.000137       0.000000
      0.001647       0.000227       0.000000
      0.001596       0.000290       0.000000
      0.001647       0.000227       0.000000
      0.002274       0.000259       0.000000
      0.002154       0.000372       0.000000
      0.001647       0.000227       0.000000
      0.001717       0.000137       0.000000
      0.002413       0.000122       0.000000
      0.002274       0.000259       0.000000
      0.001100       0.000111       0.000000
      0.001138       0.000064       0.000000
      0.001790       0.000066       0.000000
      0.001717       0.000137       0.000000
      0.001138       0.000064       0.000000
      0.001174       0.000031       0.000000
      0.001849       0.000026       0.000000
      0.001790       0.000066       0.000000
      0.001717       0.000137       0.000000
      0.001790       0.000066       0.000000
      0.002528       0.000039       0.000000
      0.002413       0.000122       0.000000
      0.001790       0.000066       0.000000
      0.001849       0.000026       0.000000
      0.002604       0.000004       0.000000
      0.002528       0.000039       0.000000
      0.001174       0.000031       0.000000
      0.001199       0.000012       0.000000
      0.001886       0.000007       0.000000
      0.001849       0.000026       0.000000
      0.001199       0.000012       0.000000
      0.001208       0.000000       0.000000
      0.001899       0.000000       0.000000
      0.001886       0.000007       0.000000
      0.001849       0.000026       0.000000
      0.001886       0.000007       0.000000
      0.002647      -0.000004       0.000000
      0.002604       0.000004       0.000000
      0.001886       0.000007       0.000000
      0.001899       0.000000       0.000000
      0.002660       0.000000       0.000000
      0.002647      -0.000004       0.000000
      0.002413       0.000122       0.000000
      0.002528       0.000039       0.000000
      0.003388      -0.000009       0.000000
      0.003271       0.000054       0.000000
      0.002528       0.000039       0.000000
      0.002604       0.000004       0.000000
      0.003450      -0.000025       0.000000
      0.003388      -0.000009       0.000000
      0.003271       0.000054       0.000000
      0.003388      -0.000009       0.000000
      0.004365      -0.000035       0.000000
      0.004369      -0.000000       0.000000
      0.003388      -0.000009       0.000000
      0.003450      -0.000025       0.000000
      0.004363      -0.000038       0.000000
      0.004365      -0.000035       0.000000
      0.002604       0.000004       0.000000
      0.002647      -0.000004       0.000000
      0.003480      -0.000017       0.000000
      0.003450      -0.000025       0.000000
      0.002647      -0.000004       0.000000
      0.002660       0.000000       0.000000
      0.003489       0.000000       0.000000
      0.003480      -0.000017       0.000000
      0.003450      -0.000025       0.000000
      0.003480      -0.000017       0.000000
      0.004361      -0.000023       0.000000
      0.004363      -0.000038       0.000000
      0.003480      -0.000017       0.000000
      0.003489       0.000000       0.000000
      0.004361       0.000000       0.000000
      0.004361      -0.000023       0.000000
      0.002154       0.000372       0.000000
      0.002211       0.000329       0.000000
      0.002534       0.000348       0.000000
      0.002448       0.000407       0.000000
      0.002211       0.000329       0.000000
      0.002274       0.000259       0.000000
      0.002630       0.000252       0.000000
      0.002534       0.000348       0.000000
      0.002448       0.000407       0.000000
      0.002534       0.000348       0.000000
      0.002905       0.000347       0.000000
      0.002764       0.000438       0.000000
      0.002534       0.000348       0.000000
      0.002630       0.000252       0.000000
      0.003053       0.000217       0.000000
      0.002905       0.000347       0.000000
      0.002274       0.000259       0.000000
      0.002344       0.000185       0.000000
      0.002728       0.000162       0.000000
      0.002630       0.000252       0.000000
      0.002344       0.000185       0.000000
      0.002413       0.000122       0.000000
      0.002814       0.000093       0.000000
      0.002728       0.000162       0.000000
      0.002630       0.000252       0.000000
      0.002728       0.000162       0.000000
      0.003178       0.000118       0.000000