# vtk DataFile Version 2.0
time_10.vtk
ASCII
DATASET UNSTRUCTURED_GRID
POINTS  1152 float
      0.000000       0.000000       0.000000
      0.083333       0.000000       0.000000
      0.083333       0.083333       0.000000
      0.000000       0.083333       0.000000
      0.083333       0.000000       0.000000
      0.166667       0.000000       0.000000
      0.166667       0.083333       0.000000
      0.083333       0.083333       0.000000
      0.000000       0.083333       0.000000
      0.083333       0.083333       0.000000
      0.083333       0.166667       0.000000
      0.000000       0.166667       0.000000
      0.083333       0.083333       0.000000
      0.166667       0.083333       0.000000
      0.166667       0.166667       0.000000
      0.083333       0.166667       0.000000
      0.166667       0.000000       0.000000
      0.250000       0.000000       0.000000
      0.250000       0.083333       0.000000
      0.166667       0.083333       0.000000
      0.250000       0.000000       0.000000
      0.333333       0.000000       0.000000
      0.333333       0.083333       0.000000
      0.250000       0.083333       0.000000
      0.166667       0.083333       0.000000
      0.250000       0.083333       0.000000
      0.250000       0.166667       0.000000
      0.166667       0.166667       0.000000
      0.250000       0.083333       0.000000
      0.333333       0.083333       0.000000
      0.333333       0.166667       0.000000
      0.250000       0.166667       0.000000
      0.333333       0.000000       0.000000
      0.416667      -0.000000       0.000000
      0.416667       0.083333       0.000000
      0.333333       0.083333       0.000000
      0.416667      -0.000000       0.000000
      0.500000       0.000000       0.000000
      0.500000       0.083333       0.000000
      0.416667       0.083333       0.000000
      0.333333       0.083333       0.000000
      0.416667       0.083333       0.000000
      0.416667       0.166667       0.000000
      0.333333       0.166667       0.000000
      0.416667       0.083333       0.000000
      0.500000       0.083333       0.000000
      0.500000       0.166667       0.000000
      0.416667       0.166667       0.000000
      0.000000       0.166667       0.000000
      0.083333       0.166667       0.000000
      0.083333       0.250000       0.000000
      0.000000       0.250000       0.000000
      0.083333       0.166667       0.000000
      0.166667       0.166667       0.000000
      0.166667       0.250000       0.000000
      0.083333       0.250000       0.000000
      0.000000       0.250000       0.000000
      0.083333       0.250000       0.000000
      0.083333       0.333333       0.000000
      0.000000       0.333333       0.000000
      0.083333       0.250000       0.000000
      0.166667       0.250000       0.000000
      0.166667       0.333333       0.000000
      0.083333       0.333333       0.000000
      0.166667       0.166667       0.000000
      0.250000       0.166667       0.000000
      0.250000       0.250000       0.000000
      0.166667       0.250000       0.000000
      0.250000       0.166667       0.000000
      0.333333       0.166667       0.000000
      0.333333       0.250000       0.000000
      0.250000       0.250000       0.000000
      0.166667       0.250000       0.000000
      0.250000       0.250000       0.000000
      0.250000       0.333333       0.000000
      0.166667       0.333333       0.000000
      0.250000       0.250000       0.000000
      0.333333       0.250000       0.000000
      0.333333       0.333333       0.000000
      0.250000       0.333333       0.000000
      0.333333       0.166667       0.000000
      0.416667       0.166667       0.000000
      0.416667       0.250000       0.000000
      0.333333       0.250000       0.000000
      0.416667       0.166667       0.000000
      0.500000       0.166667       0.000000
      0.500000       0.250000       0.000000
      0.416667       0.250000       0.000000
      0.333333       0.250000       0.000000
      0.416667       0.250000       0.000000
      0.416667       0.333333       0.000000
      0.333333       0.333333       0.000000
      0.416667       0.250000       0.000000
      0.500000       0.250000       0.000000
      0.500000       0.333333       0.000000
      0.416667       0.333333       0.000000
      0.000000       0.333333       0.000000
      0.083333       0.333333       0.000000
      0.083333       0.416667       0.000000
     -0.000000       0.416667       0.000000
      0.083333       0.333333       0.000000
      0.166667       0.333333       0.000000
      0.166667       0.416667       0.000000
      0.083333       0.416667       0.000000
     -0.000000       0.416667       0.000000
      0.083333       0.416667       0.000000
      0.083333       0.500000       0.000000
      0.000000       0.500000       0.000000
      0.083333       0.416667       0.000000
      0.166667       0.416667       0.000000
      0.166667       0.500000       0.000000
      0.083333       0.500000       0.000000
      0.166667       0.333333       0.000000
      0.250000       0.333333       0.000000
      0.250000       0.416667       0.000000
      0.166667       0.416667       0.000000
      0.250000       0.333333       0.000000
      0.333333       0.333333       0.000000
      0.333333       0.416667       0.000000
      0.250000       0.416667       0.000000
      0.166667       0.416667       0.000000
      0.250000       0.416667       0.000000
      0.250000       0.500000       0.000000
      0.166667       0.500000       0.000000
      0.250000       0.416667       0.000000
      0.333333       0.416667       0.000000
      0.333333       0.500000       0.000000
      0.250000       0.500000       0.000000
      0.333333       0.333333       0.000000
      0.375000       0.333333       0.000000
      0.375000       0.375000       0.000000
      0.333333       0.375000       0.000000
      0.375000       0.333333       0.000000
      0.416667       0.333333       0.000000
      0.416667       0.375000       0.000000
      0.375000       0.375000       0.000000
      0.333333       0.375000       0.000000
      0.375000       0.375000       0.000000
      0.375000       0.416667       0.000000
      0.333333       0.416667       0.000000
      0.375000       0.375000       0.000000
      0.416667       0.375000       0.000000
      0.416667       0.416667       0.000000
      0.375000       0.416667       0.000000
      0.416667       0.333333       0.000000
      0.458333       0.333333       0.000000
      0.458333       0.375000       0.000000
      0.416667       0.375000       0.000000
      0.458333       0.333333       0.000000
      0.500000       0.333333       0.000000
      0.500000       0.375000       0.000000
      0.458333       0.375000       0.000000
      0.416667       0.375000       0.000000
      0.458333       0.375000       0.000000
      0.458333       0.416667       0.000000
      0.416667       0.416667       0.000000
      0.458333       0.375000       0.000000
      0.500000       0.375000       0.000000
      0.500000       0.416667       0.000000
      0.458333       0.416667       0.000000
      0.333333       0.416667       0.000000
      0.375000       0.416667       0.000000
      0.375000       0.458333       0.000000
      0.333333       0.458333       0.000000
      0.375000       0.416667       0.000000
      0.416667       0.416667       0.000000
      0.416667       0.458333       0.000000
      0.375000       0.458333       0.000000
      0.333333       0.458333       0.000000
      0.375000       0.458333       0.000000
      0.375000       0.500000       0.000000
      0.333333       0.500000       0.000000
      0.375000       0.458333       0.000000
      0.416667       0.458333       0.000000
      0.416667       0.500000       0.000000
      0.375000       0.500000       0.000000
      0.416667       0.416667       0.000000
      0.437500       0.416667       0.000000
      0.437500       0.437500       0.000000
      0.416667       0.437500       0.000000
      0.437500       0.416667       0.000000
      0.458333       0.416667       0.000000
      0.458333       0.437500       0.000000
      0.437500       0.437500       0.000000
      0.416667       0.437500       0.000000
      0.437500       0.437500       0.000000
      0.437500       0.458333       0.000000
      0.416667       0.458333       0.000000
      0.437500       0.437500       0.000000
      0.458333       0.437500       0.000000
      0.458333       0.458333       0.000000
      0.437500       0.458333       0.000000
      0.458333       0.416667       0.000000
      0.479167       0.416667       0.000000
      0.479167       0.437500       0.000000
      0.458333       0.437500       0.000000
      0.479167       0.416667       0.000000
      0.500000       0.416667       0.000000
      0.500000       0.437500       0.000000
      0.479167       0.437500       0.000000
      0.458333       0.437500       0.000000
      0.479167       0.437500       0.000000
      0.479167       0.458333       0.000000
      0.458333       0.458333       0.000000
      0.479167       0.437500       0.000000
      0.500000       0.437500       0.000000
      0.500000       0.458333       0.000000
      0.479167       0.458333       0.000000
      0.416667       0.458333       0.000000
      0.437500       0.458333       0.000000
      0.437500       0.479167       0.000000
      0.416667       0.479167       0.000000
      0.437500       0.458333       0.000000
      0.458333       0.458333       0.000000
      0.458333       0.479167       0.000000
      0.437500       0.479167       0.000000
      0.416667       0.479167       0.000000
      0.437500       0.479167       0.000000
      0.437500       0.500000       0.000000
      0.416667       0.500000       0.000000
[...]
POINT_DATA  1152
VECTORS U float 
      0.000000       0.000000       0.000000
      0.000000       0.000000       0.000000
      0.000507       0.000019       0.000000
      0.000504       0.000000       0.000000
      0.000000       0.000000       0.000000
      0.000000       0.000000       0.000000
      0.000515       0.000039       0.000000
      0.000507       0.000019       0.000000
      0.000504       0.000000       0.000000
      0.000507       0.000019       0.000000
      0.000949       0.000033       0.000000
      0.000942       0.000000       0.000000
      0.000507       0.000019       0.000000
      0.000515       0.000039       0.000000
      0.000969       0.000069       0.000000
      0.000949       0.000033       0.000000
      0.000000       0.000000       0.000000
      0.000000       0.000000       0.000000
      0.000525       0.000061       0.000000
      0.000515       0.000039       0.000000
      0.000000       0.000000       0.000000
      0.000000       0.000000       0.000000
      0.000532       0.000084       0.000000
      0.000525       0.000061       0.000000
      0.000515       0.000039       0.000000
      0.000525       0.000061       0.000000
      0.000998       0.000112       0.000000
      0.000969       0.000069       0.000000
      0.000525       0.000061       0.000000
      0.000532       0.000084       0.000000
      0.001028       0.000159       0.000000
      0.000998       0.000112       0.000000
      0.000000       0.000000       0.000000
      0.000000       0.000000       0.000000
      0.000534       0.000101       0.000000
      0.000532       0.000084       0.000000
      0.000000       0.000000       0.000000
      0.000000       0.000000       0.000000
      0.000529       0.000106       0.000000
      0.000534       0.000101       0.000000
      0.000532       0.000084       0.000000
      0.000534       0.000101       0.000000
      0.001051       0.000200       0.000000
      0.001028       0.000159       0.000000
      0.000534       0.000101       0.000000
      0.000529       0.000106       0.000000
      0.001063       0.000213       0.000000
      0.001051       0.000200       0.000000
      0.000942       0.000000       0.000000
      0.000949       0.000033       0.000000
      0.001314       0.000038       0.000000
      0.001301       0.000000       0.000000
      0.000949       0.000033       0.000000
      0.000969       0.000069       0.000000
      0.001352       0.000084       0.000000
      0.001314       0.000038       0.000000
      0.001301       0.000000       0.000000
      0.001314       0.000038       0.000000
      0.001587       0.000034       0.000000
      0.001569       0.000000       0.000000
      0.001314       0.000038       0.000000
      0.001352       0.000084       0.000000
      0.001643       0.000077       0.000000
      0.001587       0.000034       0.000000
      0.000969       0.000069       0.000000
      0.000998       0.000112       0.000000
      0.001410       0.000141       0.000000
      0.001352       0.000084       0.000000
      0.000998       0.000112       0.000000
      0.001028       0.000159       0.000000
      0.001482       0.000213       0.000000
      0.001410       0.000141       0.000000
      0.001352       0.000084       0.000000
      0.001410       0.000141       0.000000
      0.001736       0.000137       0.000000
      0.001643       0.000077       0.000000
      0.001410       0.000141       0.000000
      0.001482       0.000213       0.000000
      0.001866       0.000223       0.000000
      0.001736       0.000137       0.000000
      0.001028       0.000159       0.000000
      0.001051       0.000200       0.000000
      0.001551       0.000285       0.000000
      0.001482       0.000213       0.000000
      0.001051       0.000200       0.000000
      0.001063       0.000213       0.000000
      0.001603       0.000315       0.000000
      0.001551       0.000285       0.000000
      0.001482       0.000213       0.000000
      0.001551       0.000285       0.000000
      0.002021       0.000335       0.000000
      0.001866       0.000223       0.000000
      0.001551       0.000285       0.000000
      0.001603       0.000315       0.000000
      0.002156       0.000408       0.000000
      0.002021       0.000335       0.000000
      0.001569       0.000000       0.000000
      0.001587       0.000034       0.000000
      0.001752       0.000020       0.000000
      0.001730       0.000000       0.000000
      0.001587       0.000034       0.000000
      0.001643       0.000077       0.000000
      0.001820       0.000049       0.000000
      0.001752       0.000020       0.000000
      0.001730       0.000000       0.000000
      0.001752       0.000020       0.000000
      0.001804       0.000002       0.000000
      0.001783       0.000000       0.000000
      0.001752       0.000020       0.000000
      0.001820       0.000049       0.000000
      0.001870       0.000011       0.000000
      0.001804       0.000002       0.000000
      0.001643       0.000077       0.000000
      0.001736       0.000137       0.000000
      0.001939       0.000096       0.000000
      0.001820       0.000049       0.000000
      0.001736       0.000137       0.000000
      0.001866       0.000223       0.000000
      0.002122       0.000171       0.000000
      0.001939       0.000096       0.000000
      0.001820       0.000049       0.000000
      0.001939       0.000096       0.000000
      0.001988       0.000033       0.000000
      0.001870       0.000011       0.000000
      0.001939       0.000096       0.000000
      0.002122       0.000171       0.000000
      0.002175       0.000076       0.000000
      0.001988       0.000033       0.000000
      0.001866       0.000223       0.000000
      0.001942       0.000277       0.000000
      0.002116       0.000263       0.000000
      0.002015       0.000205       0.000000
      0.001942       0.000277       0.000000
      0.002021       0.000335       0.000000
      0.002228       0.000333       0.000000
      0.002116       0.000263       0.000000
      0.002015       0.000205       0.000000
      0.002116       0.000263       0.000000
      0.002243       0.000225       0.000000
      0.002122       0.000171       0.000000
      0.002116       0.000263       0.000000
      0.002228       0.000333       0.000000
      0.002391       0.000298       0.000000
      0.002243       0.000225       0.000000
      0.002021       0.000335       0.000000
      0.002094       0.000386       0.000000
      0.002342       0.000407       0.000000
      0.002228       0.000333       0.000000
      0.002094       0.000386       0.000000
      0.002156       0.000408       0.000000
      0.002442       0.000451       0.000000
      0.002342       0.000407       0.000000
      0.002228       0.000333       0.000000
      0.002342       0.000407       0.000000
      0.002566       0.000399       0.000000
      0.002391       0.000298       0.000000
      0.002342       0.000407       0.000000
      0.002442       0.000451       0.000000
      0.002738       0.000490       0.000000
      0.002566       0.000399       0.000000
      0.002122       0.000171       0.000000
      0.002243       0.000225       0.000000
      0.002307       0.000169       0.000000
      0.002176       0.000126       0.000000
      0.002243       0.000225       0.000000
      0.002391       0.000298       0.000000
      0.002471       0.000228       0.000000
      0.002307       0.000169       0.000000
      0.002176       0.000126       0.000000
      0.002307       0.000169       0.000000
      0.002302       0.000108       0.000000
      0.002175       0.000076       0.000000
      0.002307       0.000169       0.000000
      0.002471       0.000228       0.000000
      0.002456       0.000150       0.000000
      0.002302       0.000108       0.000000
      0.002391       0.000298       0.000000
      0.002476       0.000344       0.000000
      0.002541       0.000312       0.000000
      0.002444       0.000266       0.000000
      0.002476       0.000344       0.000000
      0.002566       0.000399       0.000000
      0.002652       0.000373       0.000000
      0.002541       0.000312       0.000000
      0.002444       0.000266       0.000000
      0.002541       0.000312       0.000000
      0.002574       0.000268       0.000000
      0.002471       0.000228       0.000000
      0.002541       0.000312       0.000000
      0.002652       0.000373       0.000000
      0.002700       0.000326       0.000000
      0.002574       0.000268       0.000000
      0.002566       0.000399       0.000000
      0.002656       0.000454       0.000000
      0.002774       0.000447       0.000000
      0.002652       0.000373       0.000000
      0.002656       0.000454       0.000000
      0.002738       0.000490       0.000000
      0.002892       0.000507       0.000000
      0.002774       0.000447       0.000000
      0.002652       0.000373       0.000000
      0.002774       0.000447       0.000000
      0.002862       0.000416       0.000000
      0.002700       0.000326       0.000000
      0.002774       0.000447       0.000000
      0.002892       0.000507       0.000000
      0.003053       0.000520       0.000000
      0.002862       0.000416       0.000000
      0.002471       0.000228       0.000000
      0.002574       0.000268       0.000000
      0.002571       0.000220       0.000000
      0.002473       0.000188       0.000000
      0.002574       0.000268       0.000000
      0.002700       0.000326       0.000000
      0.002690       0.000263       0.000000
      0.002571       0.000220       0.000000
      0.002473       0.000188       0.000000
      0.002571       0.000220       0.000000
      0.002547       0.000177       0.000000
      0.002456       0.000150       0.000000
      0.002571       0.000220       0.000000
      0.002690       0.000263       0.000000
      0.002649       0.000209       0.000000
      0.002547       0.000177       0.000000
      0.002700       0.000326       0.000000
      0.002776       0.000366       0.000000
      0.002782       0.000332       0.000000
      0.002702       0.000295       0.000000
      0.002776       0.000366       0.000000
      0.002862       0.000416       0.000000
      0.002881       0.000384       0.000000
      0.002782       0.000332       0.000000
      0.002702       0.000295       0.000000
      0.002782       0.000332       0.000000
      0.002767       0.000293       0.000000
      0.002690       0.000263       0.000000
      0.002782       0.000332       0.000000
      0.002881       0.000384       0.000000
      0.002868       0.000339       0.000000
      0.002767       0.000293       0.000000
      0.002862       0.000416       0.000000
      0.002957       0.000474       0.000000
      0.003002       0.000455       0.000000
      0.002881       0.000384       0.000000
      0.002957       0.000474       0.000000
      0.003053       0.000520       0.000000
      0.003141       0.000523       0.000000
      0.003002       0.000455       0.000000
      0.002881       0.000384       0.000000
      0.003002       0.000455       0.000000
      0.003019       0.000417       0.000000
      0.002868       0.000339       0.000000
      0.003002       0.000455       0.000000
      0.003141       0.000523       0.000000
      0.003241       0.000521       0.000000
      0.003019       0.000417       0.000000
      0.002690       0.000263       0.000000
      0.002767       0.000293       0.000000
      0.002735       0.000257       0.000000
      0.002669       0.000234       0.000000
      0.002767       0.000293       0.000000
      0.002868       0.000339       0.000000
      0.002820       0.000288       0.000000
      0.002735       0.000257       0.000000
      0.002669       0.000234       0.000000
      0.002735       0.000257       0.000000
      0.002707       0.000229       0.000000
      0.002649       0.000209       0.000000
      0.002735       0.000257       0.000000
      0.002820       0.000288       0.000000
      0.002776       0.000251       0.000000
      0.002707       0.000229       0.000000
      0.002868       0.000339       0.000000
      0.003019       0.000417       0.000000
      0.002968       0.000343       0.000000
      0.002820       0.000288       0.000000
      0.003019       0.000417       0.000000
      0.003241       0.000521       0.000000
      0.003404       0.000500       0.000000
      0.002968       0.000343       0.000000
      0.002820       0.000288       0.000000
      0.002968       0.000343       0.000000
      0.002886       0.000281       0.000000
      0.002776       0.000251       0.000000
      0.002968       0.000343       0.000000
      0.003404       0.000500       0.000000
      0.005361       0.000378       0.000000
      0.002886       0.000281       0.000000
      0.000000       0.000000       0.000000
      0.000000       0.000000       0.000000
      0.000526       0.000095       0.000000
      0.000529       0.000106       0.000000
      0.000000       0.000000       0.000000
      0.000000       0.000000       0.000000
      0.000531       0.000072       0.000000
      0.000526       0.000095       0.000000
      0.000529       0.000106       0.000000
      0.000526       0.000095       0.000000
      0.001077       0.000186       0.000000
      0.001063       0.000213       0.000000
      0.000526       0.000095       0.000000
      0.000531       0.000072       0.000000
      0.001104       0.000132       0.000000
      0.001077       0.000186       0.000000
      0.000000       0.000000       0.000000
      0.000000       0.000000       0.000000
      0.000545       0.000047       0.000000
      0.000531       0.000072       0.000000
      0.000000       0.000000       0.000000
      0.000000       0.000000       0.000000
      0.000563       0.000026       0.000000
      0.000545       0.000047       0.000000
      0.000531       0.000072       0.000000
      0.000545       0.000047       0.000000
      0.001143       0.000078       0.000000
      0.001104       0.000132       0.000000
      0.000545       0.000047       0.000000
      0.000563       0.000026       0.000000
      0.001182       0.000039       0.000000
      0.001143       0.000078       0.000000
      0.000000       0.000000       0.000000
      0.000000       0.000000       0.000000
      0.000576       0.000011       0.000000
      0.000563       0.000026       0.000000
      0.000000       0.000000       0.000000
      0.000000       0.000000       0.000000
      0.000581       0.000000       0.000000
      0.000576       0.000011       0.000000
      0.000563       0.000026       0.000000
      0.000576       0.000011       0.000000
      0.001209       0.000016       0.000000
      0.001182       0.000039       0.000000
      0.000576       0.000011       0.000000
      0.000581       0.000000       0.000000
      0.001218       0.000000       0.000000
      0.001209       0.000016       0.000000
      0.001063       0.000213       0.000000
      0.001077       0.000186       0.000000
      0.001655       0.000264       0.000000
      0.001603       0.000315       0.000000
      0.001077       0.000186       0.000000
      0.001104       0.000132       0.000000
      0.001726       0.000167       0.000000
      0.001655       0.000264       0.000000
      0.001603       0.000315       0.000000
      0.001655       0.000264       0.000000
      0.002281       0.000313       0.000000
      0.002156       0.000408       0.000000
      0.001655       0.000264       0.000000
      0.001726       0.000167       0.000000
      0.002433       0.000156       0.000000
      0.002281       0.000313       0.000000
      0.001104       0.000132       0.000000
      0.001143       0.000078       0.000000
      0.001806       0.000085       0.000000
      0.001726       0.000167       0.000000
      0.001143       0.000078       0.000000
      0.001182       0.000039       0.000000
      0.001871       0.000035       0.000000
      0.001806       0.000085       0.000000
      0.001726       0.000167       0.000000
      0.001806       0.000085       0.000000
      0.002564       0.000056       0.000000
      0.002433       0.000156       0.000000
      0.001806       0.000085       0.000000
      0.001871       0.000035       0.000000
      0.002652       0.000011       0.000000
      0.002564       0.000056       0.000000
      0.001182       0.000039       0.000000
      0.001209       0.000016       0.000000
      0.001913       0.000011       0.000000
      0.001871       0.000035       0.000000
      0.001209       0.000016       0.000000
      0.001218       0.000000       0.000000
      0.001927       0.000000       0.000000
      0.001913       0.000011       0.000000
      0.001871       0.000035       0.000000
      0.001913       0.000011       0.000000
      0.002701      -0.000002       0.000000
      0.002652       0.000011       0.000000
      0.001913       0.000011       0.000000
      0.001927       0.000000       0.000000
      0.002717       0.000000       0.000000
      0.002701      -0.000002       0.000000
      0.002433       0.000156       0.000000
      0.002564       0.000056       0.000000
      0.003468       0.000001       0.000000
      0.003330       0.000081       0.000000
      0.002564       0.000056       0.000000
      0.002652       0.000011       0.000000
      0.003540      -0.000021       0.000000
      0.003468       0.000001       0.000000
      0.003330       0.000081       0.000000
      0.003468       0.000001       0.000000
      0.004513      -0.000028       0.000000
      0.004526       0.000020       0.000000
      0.003468       0.000001       0.000000
      0.003540      -0.000021       0.000000
      0.004508      -0.000036       0.000000
      0.004513      -0.000028       0.000000
      0.002652       0.000011       0.000000
      0.002701      -0.000002       0.000000
      0.003575      -0.000017       0.000000
      0.003540      -0.000021       0.000000
      0.002701      -0.000002       0.000000
      0.002717       0.000000       0.000000
      0.003586       0.000000       0.000000
      0.003575      -0.000017       0.000000
      0.003540      -0.000021       0.000000
      0.003575      -0.000017       0.000000
      0.004505      -0.000023       0.000000
      0.004508      -0.000036       0.000000
      0.003575      -0.000017       0.000000
      0.003586       0.000000       0.000000
      0.004504       0.000000       0.000000
      0.004505      -0.000023       0.000000
      0.002156       0.000408       0.000000
      0.002215       0.000381       0.000000
      0.002533       0.000414       0.000000
      0.002442       0.000451       0.000000
      0.002215       0.000381       0.000000
      0.002281       0.000313       0.000000
      0.002637       0.000314       0.000000
      0.002533       0.000414       0.000000
      0.002442       0.000451       0.000000
      0.002533       0.000414       0.000000
      0.002896       0.000431       0.000000
      0.002738       0.000490       0.000000
      0.002533       0.000414       0.000000
      0.002637       0.000314       0.000000
      0.003068       0.000282       0.000000
      0.002896       0.000431       0.000000
      0.002281       0.000313       0.000000
      0.002356       0.000231       0.000000
      0.002747       0.000209       0.000000
      0.002637       0.000314       0.000000
      0.002356       0.000231       0.000000
      0.002433       0.000156       0.000000
      0.002848       0.000126       0.000000
      0.002747       0.000209       0.000000
      0.002637       0.000314       0.000000
      0.002747       0.000209       0.000000
      0.003218       0.000161       0.000000