# vtk DataFile Version 2.0
time_10.vtk
ASCII
DATASET UNSTRUCTURED_GRID
POINTS  1524 float
      0.000000       0.000000       0.000000
      0.083333       0.000000       0.000000
      0.083333       0.083333       0.000000
      0.000000       0.083333       0.000000
      0.083333       0.000000       0.000000
      0.166667       0.000000       0.000000
      0.166667       0.083333       0.000000
      0.083333       0.083333       0.000000
      0.000000       0.083333       0.000000
      0.083333       0.083333       0.000000
      0.083333       0.166667       0.000000
      0.000000       0.166667       0.000000
      0.083333       0.083333       0.000000
      0.166667       0.083333       0.000000
      0.166667       0.166667       0.000000
      0.083333       0.166667       0.000000
      0.166667       0.000000       0.000000
      0.250000       0.000000       0.000000
      0.250000       0.083333       0.000000
      0.166667       0.083333       0.000000
      0.250000       0.000000       0.000000
      0.333333       0.000000       0.000000
      0.333333       0.083333       0.000000
      0.250000       0.083333       0.000000
      0.166667       0.083333       0.000000
      0.250000       0.083333       0.000000
      0.250000       0.166667       0.000000
      0.166667       0.166667       0.000000
      0.250000       0.083333       0.000000
      0.333333       0.083333       0.000000
      0.333333       0.166667       0.000000
      0.250000       0.166667       0.000000
      0.333333       0.000000       0.000000
      0.416667      -0.000000       0.000000
      0.416667       0.083333       0.000000
      0.333333       0.083333       0.000000
      0.416667      -0.000000       0.000000
      0.500000       0.000000       0.000000
      0.500000       0.083333       0.000000
      0.416667       0.083333       0.000000
      0.333333       0.083333       0.000000
      0.416667       0.083333       0.000000
      0.416667       0.166667       0.000000
      0.333333       0.166667       0.000000
      0.416667       0.083333       0.000000
      0.500000       0.083333       0.000000
      0.500000       0.166667       0.000000
      0.416667       0.166667       0.000000
      0.000000       0.166667       0.000000
      0.083333       0.166667       0.000000
      0.083333       0.250000       0.000000
      0.000000       0.250000       0.000000
      0.083333       0.166667       0.000000
      0.166667       0.166667       0.000000
      0.166667       0.250000       0.000000
      0.083333       0.250000       0.000000
      0.000000       0.250000       0.000000
      0.083333       0.250000       0.000000
      0.083333       0.333333       0.000000
      0.000000       0.333333       0.000000
      0.083333       0.250000       0.000000
      0.166667       0.250000       0.000000
      0.166667       0.333333       0.000000
      0.083333       0.333333       0.000000
      0.166667       0.166667       0.000000
      0.250000       0.166667       0.000000
      0.250000       0.250000       0.000000
      0.166667       0.250000       0.000000
      0.250000       0.166667       0.000000
      0.333333       0.166667       0.000000
      0.333333       0.250000       0.000000
      0.250000       0.250000       0.000000
      0.166667       0.250000       0.000000
      0.250000       0.250000       0.000000
      0.250000       0.333333       0.000000
      0.166667       0.333333       0.000000
      0.250000       0.250000       0.000000
      0.333333       0.250000       0.000000
      0.333333       0.333333       0.000000
      0.250000       0.333333       0.000000
      0.333333       0.166667       0.000000
      0.416667       0.166667       0.000000
      0.416667       0.250000       0.000000
      0.333333       0.250000       0.000000
      0.416667       0.166667       0.000000
      0.500000       0.166667       0.000000
      0.500000       0.250000       0.000000
      0.416667       0.250000       0.000000
      0.333333       0.250000       0.000000
      0.416667       0.250000       0.000000
      0.416667       0.333333       0.000000
      0.333333       0.333333       0.000000
      0.000000       0.333333       0.000000
      0.083333       0.333333       0.000000
      0.083333       0.416667       0.000000
     -0.000000       0.416667       0.000000
      0.083333       0.333333       0.000000
      0.166667       0.333333       0.000000
      0.166667       0.416667       0.000000
      0.083333       0.416667       0.000000
     -0.000000       0.416667       0.000000
      0.083333       0.416667       0.000000
      0.083333       0.500000       0.000000
      0.000000       0.500000       0.000000
      0.083333       0.416667       0.000000
      0.166667       0.416667       0.000000
      0.166667       0.500000       0.000000
      0.083333       0.500000       0.000000
      0.166667       0.333333       0.000000
      0.250000       0.333333       0.000000
      0.250000       0.416667       0.000000
      0.166667       0.416667       0.000000
      0.250000       0.333333       0.000000
      0.333333       0.333333       0.000000
      0.333333       0.416667       0.000000
      0.250000       0.416667       0.000000
      0.166667       0.416667       0.000000
      0.250000       0.416667       0.000000
      0.250000       0.500000       0.000000
      0.166667       0.500000       0.000000
      0.250000       0.416667       0.000000
      0.333333       0.416667       0.000000
      0.333333       0.500000       0.000000
      0.250000       0.500000       0.000000
      0.333333       0.333333       0.000000
      0.375000       0.333333       0.000000
      0.375000       0.375000       0.000000
      0.333333       0.375000       0.000000
      0.375000       0.333333       0.000000
      0.416667       0.333333       0.000000
      0.416667       0.375000       0.000000
      0.375000       0.375000       0.000000
      0.333333       0.375000       0.000000
      0.375000       0.375000       0.000000
      0.375000       0.416667       0.000000
      0.333333       0.416667       0.000000
      0.375000       0.375000       0.000000
      0.416667       0.375000       0.000000
      0.416667       0.416667       0.000000
      0.375000       0.416667       0.000000
      0.416667       0.333333       0.000000
      0.458333       0.333333       0.000000
      0.458333       0.375000       0.000000
      0.416667       0.375000       0.000000
      0.416667       0.375000       0.000000
      0.458333       0.375000       0.000000
      0.458333       0.416667       0.000000
      0.416667       0.416667       0.000000
      0.333333       0.416667       0.000000
      0.375000       0.416667       0.000000
      0.375000       0.458333       0.000000
      0.333333       0.458333       0.000000
      0.375000       0.416667       0.000000
      0.416667       0.416667       0.000000
      0.416667       0.458333       0.000000
      0.375000       0.458333       0.000000
      0.333333       0.458333       0.000000
      0.375000       0.458333       0.000000
      0.375000       0.500000       0.000000
      0.333333       0.500000       0.000000
      0.375000       0.458333       0.000000
      0.416667       0.458333       0.000000
      0.416667       0.500000       0.000000
      0.375000       0.500000       0.000000
      0.416667       0.416667       0.000000
      0.437500       0.416667       0.000000
      0.437500       0.437500       0.000000
      0.416667       0.437500       0.000000
      0.437500       0.416667       0.000000
      0.458333       0.416667       0.000000
      0.458333       0.437500       0.000000
      0.437500       0.437500       0.000000
      0.416667       0.437500       0.000000
      0.437500       0.437500       0.000000
      0.437500       0.458333       0.000000
      0.416667       0.458333       0.000000
      0.437500       0.437500       0.000000
      0.458333       0.437500       0.000000
      0.458333       0.458333       0.000000
      0.437500       0.458333       0.000000
      0.458333       0.416667       0.000000
      0.479167       0.416667       0.000000
      0.479167       0.437500       0.000000
      0.458333       0.437500       0.000000
      0.458333       0.437500       0.000000
      0.479167       0.437500       0.000000
      0.479167       0.458333       0.000000
      0.458333       0.458333       0.000000
      0.416667       0.458333       0.000000
      0.437500       0.458333       0.000000
      0.437500       0.479167       0.000000
      0.416667       0.479167       0.000000
      0.437500       0.458333       0.000000
      0.458333       0.458333       0.000000
      0.458333       0.479167       0.000000
      0.437500       0.479167       0.000000
      0.416667       0.479167       0.000000
      0.437500       0.479167       0.000000
      0.437500       0.500000       0.000000
      0.416667       0.500000       0.000000
      0.437500       0.479167       0.000000
      0.458333       0.479167       0.000000
      0.458333       0.500000       0.000000
      0.437500       0.500000       0.000000
      0.458333       0.458333       0.000000
      0.468750       0.458333       0.000000
      0.468750       0.468750       0.000000
      0.458333       0.468750       0.000000
      0.468750       0.458333       0.000000
      0.479167       0.458333       0.000000
      0.479167       0.468750       0.000000
      0.468750       0.468750       0.000000
      0.458333       0.468750       0.000000
      0.468750       0.468750       0.000000
      0.468750       0.479167       0.000000
      0.458333       0.479167       0.000000
      0.468750       0.468750       0.000000
      0.479167       0.468750       0.000000
      0.479167       0.479167       0.000000
      0.468750       0.479167       0.000000
[...]
POINT_DATA  1524
VECTORS U float 
      0.000000       0.000000       0.000000
      0.000000       0.000000       0.000000
      0.000378       0.000005       0.000000
      0.000369       0.000000       0.000000
      0.000000       0.000000       0.000000
      0.000000       0.000000       0.000000
      0.000403       0.000014       0.000000
      0.000378       0.000005       0.000000
      0.000369       0.000000       0.000000
      0.000378       0.000005       0.000000
      0.000694      -0.000000       0.000000
      0.000680       0.000000       0.000000
      0.000378       0.000005       0.000000
      0.000403       0.000014       0.000000
      0.000737       0.000006       0.000000
      0.000694      -0.000000       0.000000
      0.000000       0.000000       0.000000
      0.000000       0.000000       0.000000
      0.000444       0.000030       0.000000
      0.000403       0.000014       0.000000
      0.000000       0.000000       0.000000
      0.000000       0.000000       0.000000
      0.000495       0.000059       0.000000
      0.000444       0.000030       0.000000
      0.000403       0.000014       0.000000
      0.000444       0.000030       0.000000
      0.000807       0.000027       0.000000
      0.000737       0.000006       0.000000
      0.000444       0.000030       0.000000
      0.000495       0.000059       0.000000
      0.000902       0.000078       0.000000
      0.000807       0.000027       0.000000
      0.000000       0.000000       0.000000
      0.000000       0.000000       0.000000
      0.000543       0.000104       0.000000
      0.000495       0.000059       0.000000
      0.000000       0.000000       0.000000
      0.000000       0.000000       0.000000
      0.000570       0.000155       0.000000
      0.000543       0.000104       0.000000
      0.000495       0.000059       0.000000
      0.000543       0.000104       0.000000
      0.001011       0.000170       0.000000
      0.000902       0.000078       0.000000
      0.000543       0.000104       0.000000
      0.000570       0.000155       0.000000
      0.001104       0.000293       0.000000
      0.001011       0.000170       0.000000
      0.000680       0.000000       0.000000
      0.000694      -0.000000       0.000000
      0.000935      -0.000013       0.000000
      0.000920       0.000000       0.000000
      0.000694      -0.000000       0.000000
      0.000737       0.000006       0.000000
      0.000984      -0.000018       0.000000
      0.000935      -0.000013       0.000000
      0.000920       0.000000       0.000000
      0.000935      -0.000013       0.000000
      0.001099      -0.000028       0.000000
      0.001085       0.000000       0.000000
      0.000935      -0.000013       0.000000
      0.000984      -0.000018       0.000000
      0.001142      -0.000048       0.000000
      0.001099      -0.000028       0.000000
      0.000737       0.000006       0.000000
      0.000807       0.000027       0.000000
      0.001069      -0.000004       0.000000
      0.000984      -0.000018       0.000000
      0.000807       0.000027       0.000000
      0.000902       0.000078       0.000000
      0.001196       0.000048       0.000000
      0.001069      -0.000004       0.000000
      0.000984      -0.000018       0.000000
      0.001069      -0.000004       0.000000
      0.001219      -0.000050       0.000000
      0.001142      -0.000048       0.000000
      0.001069      -0.000004       0.000000
      0.001196       0.000048       0.000000
      0.001338      -0.000017       0.000000
      0.001219      -0.000050       0.000000
      0.000902       0.000078       0.000000
      0.001011       0.000170       0.000000
      0.001373       0.000167       0.000000
      0.001196       0.000048       0.000000
      0.001011       0.000170       0.000000
      0.001104       0.000293       0.000000
      0.001587       0.000385       0.000000
      0.001373       0.000167       0.000000
      0.001196       0.000048       0.000000
      0.001373       0.000167       0.000000
      0.001522       0.000082       0.000000
      0.001338      -0.000017       0.000000
      0.001085       0.000000       0.000000
      0.001099      -0.000028       0.000000
      0.001198      -0.000039       0.000000
      0.001189       0.000000       0.000000
      0.001099      -0.000028       0.000000
      0.001142      -0.000048       0.000000
      0.001226      -0.000072       0.000000
      0.001198      -0.000039       0.000000
      0.001189       0.000000       0.000000
      0.001198      -0.000039       0.000000
      0.001254      -0.000045       0.000000
      0.001250       0.000000       0.000000
      0.001198      -0.000039       0.000000
      0.001226      -0.000072       0.000000
      0.001267      -0.000083       0.000000
      0.001254      -0.000045       0.000000
      0.001142      -0.000048       0.000000
      0.001219      -0.000050       0.000000
      0.001273      -0.000088       0.000000
      0.001226      -0.000072       0.000000
      0.001219      -0.000050       0.000000
      0.001338      -0.000017       0.000000
      0.001340      -0.000072       0.000000
      0.001273      -0.000088       0.000000
      0.001226      -0.000072       0.000000
      0.001273      -0.000088       0.000000
      0.001281      -0.000104       0.000000
      0.001267      -0.000083       0.000000
      0.001273      -0.000088       0.000000
      0.001340      -0.000072       0.000000
      0.001289      -0.000089       0.000000
      0.001281      -0.000104       0.000000
      0.001338      -0.000017       0.000000
      0.001420       0.000021       0.000000
      0.001416      -0.000017       0.000000
      0.001352      -0.000049       0.000000
      0.001420       0.000021       0.000000
      0.001522       0.000082       0.000000
      0.001493       0.000036       0.000000
      0.001416      -0.000017       0.000000
      0.001352      -0.000049       0.000000
      0.001416      -0.000017       0.000000
      0.001380      -0.000042       0.000000
      0.001340      -0.000072       0.000000
      0.001416      -0.000017       0.000000
      0.001493       0.000036       0.000000
      0.001424       0.000009       0.000000
      0.001380      -0.000042       0.000000
      0.001522       0.000082       0.000000
      0.001657       0.000177       0.000000
      0.001588       0.000117       0.000000
      0.001493       0.000036       0.000000
      0.001493       0.000036       0.000000
      0.001588       0.000117       0.000000
      0.001466       0.000089       0.000000
      0.001424       0.000009       0.000000
      0.001340      -0.000072       0.000000
      0.001380      -0.000042       0.000000
      0.001332      -0.000055       0.000000
      0.001314      -0.000085       0.000000
      0.001380      -0.000042       0.000000
      0.001424       0.000009       0.000000
      0.001348      -0.000000       0.000000
      0.001332      -0.000055       0.000000
      0.001314      -0.000085       0.000000
      0.001332      -0.000055       0.000000
      0.001286      -0.000057       0.000000
      0.001289      -0.000089       0.000000
      0.001332      -0.000055       0.000000
      0.001348      -0.000000       0.000000
      0.001278      -0.000001       0.000000
      0.001286      -0.000057       0.000000
      0.001424       0.000009       0.000000
      0.001446       0.000045       0.000000
      0.001398       0.000040       0.000000
      0.001386       0.000003       0.000000
      0.001446       0.000045       0.000000
      0.001466       0.000089       0.000000
      0.001410       0.000086       0.000000
      0.001398       0.000040       0.000000
      0.001386       0.000003       0.000000
      0.001398       0.000040       0.000000
      0.001355       0.000038       0.000000
      0.001348      -0.000000       0.000000
      0.001398       0.000040       0.000000
      0.001410       0.000086       0.000000
      0.001360       0.000084       0.000000
      0.001355       0.000038       0.000000
      0.001466       0.000089       0.000000
      0.001486       0.000146       0.000000
      0.001419       0.000142       0.000000
      0.001410       0.000086       0.000000
      0.001410       0.000086       0.000000
      0.001419       0.000142       0.000000
      0.001366       0.000139       0.000000
      0.001360       0.000084       0.000000
      0.001348      -0.000000       0.000000
      0.001355       0.000038       0.000000
      0.001314       0.000037       0.000000
      0.001313      -0.000001       0.000000
      0.001355       0.000038       0.000000
      0.001360       0.000084       0.000000
      0.001316       0.000084       0.000000
      0.001314       0.000037       0.000000
      0.001313      -0.000001       0.000000
      0.001314       0.000037       0.000000
      0.001274       0.000038       0.000000
      0.001278      -0.000001       0.000000
      0.001314       0.000037       0.000000
      0.001316       0.000084       0.000000
      0.001272       0.000084       0.000000
      0.001274       0.000038       0.000000
      0.001360       0.000084       0.000000
      0.001363       0.000111       0.000000
      0.001340       0.000110       0.000000
      0.001338       0.000084       0.000000
      0.001363       0.000111       0.000000
      0.001366       0.000139       0.000000
      0.001342       0.000138       0.000000
      0.001340       0.000110       0.000000
      0.001338       0.000084       0.000000
      0.001340       0.000110       0.000000
      0.001317       0.000109       0.000000
      0.001316       0.000084       0.000000
      0.001340       0.000110       0.000000
      0.001342       0.000138       0.000000
      0.001319       0.000136       0.000000
      0.001317       0.000109       0.000000
      0.001366       0.000139       0.000000
      0.001369       0.000171       0.000000
      0.001346       0.000168       0.000000
      0.001342       0.000138       0.000000
      0.001369       0.000171       0.000000
      0.001376       0.000205       0.000000
      0.001354       0.000209       0.000000
      0.001346       0.000168       0.000000
      0.001342       0.000138       0.000000
      0.001346       0.000168       0.000000
      0.001323       0.000164       0.000000
      0.001319       0.000136       0.000000
      0.001346       0.000168       0.000000
      0.001354       0.000209       0.000000
      0.001320       0.000210       0.000000
      0.001323       0.000164       0.000000
      0.001316       0.000084       0.000000
      0.001317       0.000109       0.000000
      0.001296       0.000108       0.000000
      0.001295       0.000083       0.000000
      0.001317       0.000109       0.000000
      0.001319       0.000136       0.000000
      0.001297       0.000133       0.000000
      0.001296       0.000108       0.000000
      0.001295       0.000083       0.000000
      0.001296       0.000108       0.000000
      0.001273       0.000109       0.000000
      0.001272       0.000084       0.000000
      0.001296       0.000108       0.000000
      0.001297       0.000133       0.000000
      0.001279       0.000136       0.000000
      0.001273       0.000109       0.000000
      0.001319       0.000136       0.000000
      0.001323       0.000164       0.000000
      0.001301       0.000156       0.000000
      0.001297       0.000133       0.000000
      0.001323       0.000164       0.000000
      0.001320       0.000210       0.000000
      0.001031       0.000165       0.000000
      0.001301       0.000156       0.000000
      0.001297       0.000133       0.000000
      0.001301       0.000156       0.000000
      0.001327       0.000171       0.000000
      0.001279       0.000136       0.000000
      0.001301       0.000156       0.000000
      0.001031       0.000165       0.000000
      0.007939       0.000747       0.000000
      0.001327       0.000171       0.000000
      0.001419       0.000142       0.000000
      0.001424       0.000175       0.000000
      0.001395       0.000173       0.000000
      0.001391       0.000141       0.000000
      0.001424       0.000175       0.000000
      0.001429       0.000212       0.000000
      0.001400       0.000209       0.000000
      0.001395       0.000173       0.000000
      0.001391       0.000141       0.000000
      0.001395       0.000173       0.000000
      0.001369       0.000171       0.000000
      0.001366       0.000139       0.000000
      0.001395       0.000173       0.000000
      0.001400       0.000209       0.000000
      0.001376       0.000205       0.000000
      0.001369       0.000171       0.000000
      0.001588       0.000117       0.000000
      0.001646       0.000174       0.000000
      0.001565       0.000154       0.000000
      0.001529       0.000099       0.000000
      0.001646       0.000174       0.000000
      0.001715       0.000247       0.000000
      0.001602       0.000226       0.000000
      0.001565       0.000154       0.000000
      0.001529       0.000099       0.000000
      0.001565       0.000154       0.000000
      0.001486       0.000146       0.000000
      0.001466       0.000089       0.000000
      0.001486       0.000146       0.000000
      0.001495       0.000179       0.000000
      0.001457       0.000177       0.000000
      0.001451       0.000144       0.000000
      0.001495       0.000179       0.000000
      0.001504       0.000218       0.000000
      0.001464       0.000215       0.000000
      0.001457       0.000177       0.000000
      0.001451       0.000144       0.000000
      0.001457       0.000177       0.000000
      0.001424       0.000175       0.000000
      0.001419       0.000142       0.000000
      0.001457       0.000177       0.000000
      0.001464       0.000215       0.000000
      0.001429       0.000212       0.000000
      0.001424       0.000175       0.000000
      0.001565       0.000154       0.000000
      0.001583       0.000187       0.000000
      0.001537       0.000182       0.000000
      0.001524       0.000149       0.000000
      0.001583       0.000187       0.000000
      0.001602       0.000226       0.000000
      0.001550       0.000221       0.000000
      0.001537       0.000182       0.000000
      0.001524       0.000149       0.000000
      0.001537       0.000182       0.000000
      0.001495       0.000179       0.000000
      0.001486       0.000146       0.000000
      0.001537       0.000182       0.000000
      0.001550       0.000221       0.000000
      0.001504       0.000218       0.000000
      0.001495       0.000179       0.000000
      0.001373       0.000167       0.000000
      0.001479       0.000264       0.000000
      0.001615       0.000236       0.000000
      0.001482       0.000132       0.000000
      0.001479       0.000264       0.000000
      0.001587       0.000385       0.000000
      0.001772       0.000387       0.000000
      0.001615       0.000236       0.000000
      0.001482       0.000132       0.000000
      0.001615       0.000236       0.000000
      0.001657       0.000177       0.000000
      0.001522       0.000082       0.000000
      0.001615       0.000236       0.000000
      0.001772       0.000387       0.000000
      0.001845       0.000332       0.000000
      0.001657       0.000177       0.000000
      0.001657       0.000177       0.000000
      0.001742       0.000244       0.000000
      0.001711       0.000206       0.000000
      0.001634       0.000144       0.000000
      0.001742       0.000244       0.000000
      0.001845       0.000332       0.000000
      0.001806       0.000287       0.000000
      0.001711       0.000206       0.000000
      0.001634       0.000144       0.000000
      0.001711       0.000206       0.000000
      0.001646       0.000174       0.000000
      0.001588       0.000117       0.000000
      0.001711       0.000206       0.000000
      0.001806       0.000287       0.000000
      0.001715       0.000247       0.000000
      0.001646       0.000174       0.000000
      0.000000       0.000000       0.000000
      0.000000       0.000000       0.000000
      0.000571       0.000179       0.000000
      0.000570       0.000155       0.000000
      0.000000       0.000000       0.000000
      0.000000       0.000000       0.000000
      0.000569       0.000155       0.000000
      0.000571       0.000179       0.000000
      0.000570       0.000155       0.000000
      0.000571       0.000179       0.000000
      0.001151       0.000362       0.000000
      0.001104       0.000293       0.000000
      0.000571       0.000179       0.000000
      0.000569       0.000155       0.000000
      0.001196       0.000296       0.000000
      0.001151       0.000362       0.000000
      0.000000       0.000000       0.000000
      0.000000       0.000000       0.000000
      0.000587       0.000104       0.000000
      0.000569       0.000155       0.000000
      0.000000       0.000000       0.000000
      0.000000       0.000000       0.000000
      0.000619       0.000057       0.000000
      0.000587       0.000104       0.000000
      0.000569       0.000155       0.000000
      0.000587       0.000104       0.000000
      0.001274       0.000176       0.000000
      0.001196       0.000296       0.000000
      0.000587       0.000104       0.000000
      0.000619       0.000057       0.000000
      0.001358       0.000084       0.000000
      0.001274       0.000176       0.000000
      0.000000       0.000000       0.000000
      0.000000       0.000000       0.000000
      0.000648       0.000024       0.000000
      0.000619       0.000057       0.000000
      0.000000       0.000000       0.000000
      0.000000       0.000000       0.000000
      0.000658       0.000000       0.000000
      0.000648       0.000024       0.000000
      0.000619       0.000057       0.000000
      0.000648       0.000024       0.000000
      0.001417       0.000031       0.000000
      0.001358       0.000084       0.000000
      0.000648       0.000024       0.000000
      0.000658       0.000000       0.000000
      0.001438       0.000000       0.000000
      0.001417       0.000031       0.000000
      0.001104       0.000293       0.000000
      0.001151       0.000362       0.000000
      0.001748       0.000547       0.000000
      0.001587       0.000385       0.000000
      0.001151       0.000362       0.000000
      0.001196       0.000296       0.000000
      0.001912       0.000385       0.000000
      0.001748       0.000547       0.000000
      0.001196       0.000296       0.000000
      0.001274       0.000176       0.000000
      0.002109       0.000183       0.000000
      0.001912       0.000385       0.000000
      0.001274       0.000176       0.000000
      0.001358       0.000084       0.000000
      0.002259       0.000069       0.000000
      0.002109       0.000183       0.000000
      0.001912       0.000385       0.000000
      0.002109       0.000183       0.000000
      0.003234       0.000113       0.000000
      0.002945       0.000340       0.000000
      0.002109       0.000183       0.000000
      0.002259       0.000069       0.000000
      0.003387       0.000023       0.000000
      0.003234       0.000113       0.000000
      0.001358       0.000084       0.000000
      0.001417       0.000031       0.000000
      0.002346       0.000020       0.000000
      0.002259       0.000069       0.000000
      0.001417       0.000031       0.000000
      0.001438       0.000000       0.000000
      0.002374       0.000000       0.000000
      0.002346       0.000020       0.000000
      0.002259       0.000069       0.000000
      0.002346       0.000020       0.000000
      0.003462      -0.000002       0.000000