# vtk DataFile Version 2.0
time_10.vtk
ASCII
DATASET UNSTRUCTURED_GRID
POINTS  1152 float
      0.000000       0.000000       0.000000
      0.083333       0.000000       0.000000
      0.083333       0.083333       0.000000
      0.000000       0.083333       0.000000
      0.083333       0.000000       0.000000
      0.166667       0.000000       0.000000
      0.166667       0.083333       0.000000
      0.083333       0.083333       0.000000
      0.000000       0.083333       0.000000
      0.083333       0.083333       0.000000
      0.083333       0.166667       0.000000
      0.000000       0.166667       0.000000
      0.083333       0.083333       0.000000
      0.166667       0.083333       0.000000
      0.166667       0.166667       0.000000
      0.083333       0.166667       0.000000
      0.166667       0.000000       0.000000
      0.250000       0.000000       0.000000
      0.250000       0.083333       0.000000
      0.166667       0.083333       0.000000
      0.250000       0.000000       0.000000
      0.333333       0.000000       0.000000
      0.333333       0.083333       0.000000
      0.250000       0.083333       0.000000
      0.166667       0.083333       0.000000
      0.250000       0.083333       0.000000
      0.250000       0.166667       0.000000
      0.166667       0.166667       0.000000
      0.250000       0.083333       0.000000
      0.333333       0.083333       0.000000
      0.333333       0.166667       0.000000
      0.250000       0.166667       0.000000
      0.333333       0.000000       0.000000
      0.416667      -0.000000       0.000000
      0.416667       0.083333       0.000000
      0.333333       0.083333       0.000000
      0.416667      -0.000000       0.000000
      0.500000       0.000000       0.000000
      0.500000       0.083333       0.000000
      0.416667       0.083333       0.000000
      0.333333       0.083333       0.000000
      0.416667       0.083333       0.000000
      0.416667       0.166667       0.000000
      0.333333       0.166667       0.000000
      0.416667       0.083333       0.000000
      0.500000       0.083333       0.000000
      0.500000       0.166667       0.000000
      0.416667       0.166667       0.000000
      0.000000       0.166667       0.000000
      0.083333       0.166667       0.000000
      0.083333       0.250000       0.000000
      0.000000       0.250000       0.000000
      0.083333       0.166667       0.000000
      0.166667       0.166667       0.000000
      0.166667       0.250000       0.000000
      0.083333       0.250000       0.000000
      0.000000       0.250000       0.000000
      0.083333       0.250000       0.000000
      0.083333       0.333333       0.000000
      0.000000       0.333333       0.000000
      0.083333       0.250000       0.000000
      0.166667       0.250000       0.000000
      0.166667       0.333333       0.000000
      0.083333       0.333333       0.000000
      0.166667       0.166667       0.000000
      0.250000       0.166667       0.000000
      0.250000       0.250000       0.000000
      0.166667       0.250000       0.000000
      0.250000       0.166667       0.000000
      0.333333       0.166667       0.000000
      0.333333       0.250000       0.000000
      0.250000       0.250000       0.000000
      0.166667       0.250000       0.000000
      0.250000       0.250000       0.000000
      0.250000       0.333333       0.000000
      0.166667       0.333333       0.000000
      0.250000       0.250000       0.000000
      0.333333       0.250000       0.000000
      0.333333       0.333333       0.000000
      0.250000       0.333333       0.000000
      0.333333       0.166667       0.000000
      0.416667       0.166667       0.000000
      0.416667       0.250000       0.000000
      0.333333       0.250000       0.000000
      0.416667       0.166667       0.000000
      0.500000       0.166667       0.000000
      0.500000       0.250000       0.000000
      0.416667       0.250000       0.000000
      0.333333       0.250000       0.000000
      0.416667       0.250000       0.000000
      0.416667       0.333333       0.000000
      0.333333       0.333333       0.000000
      0.416667       0.250000       0.000000
      0.500000       0.250000       0.000000
      0.500000       0.333333       0.000000
      0.416667       0.333333       0.000000
      0.000000       0.333333       0.000000
      0.083333       0.333333       0.000000
      0.083333       0.416667       0.000000
     -0.000000       0.416667       0.000000
      0.083333       0.333333       0.000000
      0.166667       0.333333       0.000000
      0.166667       0.416667       0.000000
      0.083333       0.416667       0.000000
     -0.000000       0.416667       0.000000
      0.083333       0.416667       0.000000
      0.083333       0.500000       0.000000
      0.000000       0.500000       0.000000
      0.083333       0.416667       0.000000
      0.166667       0.416667       0.000000
      0.166667       0.500000       0.000000
      0.083333       0.500000       0.000000
      0.166667       0.333333       0.000000
      0.250000       0.333333       0.000000
      0.250000       0.416667       0.000000
      0.166667       0.416667       0.000000
      0.250000       0.333333       0.000000
      0.333333       0.333333       0.000000
      0.333333       0.416667       0.000000
      0.250000       0.416667       0.000000
      0.166667       0.416667       0.000000
      0.250000       0.416667       0.000000
      0.250000       0.500000       0.000000
      0.166667       0.500000       0.000000
      0.250000       0.416667       0.000000
      0.333333       0.416667       0.000000
      0.333333       0.500000       0.000000
      0.250000       0.500000       0.000000
      0.333333       0.333333       0.000000
      0.375000       0.333333       0.000000
      0.375000       0.375000       0.000000
      0.333333       0.375000       0.000000
      0.375000       0.333333       0.000000
      0.416667       0.333333       0.000000
      0.416667       0.375000       0.000000
      0.375000       0.375000       0.000000
      0.333333       0.375000       0.000000
      0.375000       0.375000       0.000000
      0.375000       0.416667       0.000000
      0.333333       0.416667       0.000000
      0.375000       0.375000       0.000000
      0.416667       0.375000       0.000000
      0.416667       0.416667       0.000000
      0.375000       0.416667       0.000000
      0.416667       0.333333       0.000000
      0.458333       0.333333       0.000000
      0.458333       0.375000       0.000000
      0.416667       0.375000       0.000000
      0.458333       0.333333       0.000000
      0.500000       0.333333       0.000000
      0.500000       0.375000       0.000000
      0.458333       0.375000       0.000000
      0.416667       0.375000       0.000000
      0.458333       0.375000       0.000000
      0.458333       0.416667       0.000000
      0.416667       0.416667       0.000000
      0.458333       0.375000       0.000000
      0.500000       0.375000       0.000000
      0.500000       0.416667       0.000000
      0.458333       0.416667       0.000000
      0.333333       0.416667       0.000000
      0.375000       0.416667       0.000000
      0.375000       0.458333       0.000000
      0.333333       0.458333       0.000000
      0.375000       0.416667       0.000000
      0.416667       0.416667       0.000000
      0.416667       0.458333       0.000000
      0.375000       0.458333       0.000000
      0.333333       0.458333       0.000000
      0.375000       0.458333       0.000000
      0.375000       0.500000       0.000000
      0.333333       0.500000       0.000000
      0.375000       0.458333       0.000000
      0.416667       0.458333       0.000000
      0.416667       0.500000       0.000000
      0.375000       0.500000       0.000000
      0.416667       0.416667       0.000000
      0.437500       0.416667       0.000000
      0.437500       0.437500       0.000000
      0.416667       0.437500       0.000000
      0.437500       0.416667       0.000000
      0.458333       0.416667       0.000000
      0.458333       0.437500       0.000000
      0.437500       0.437500       0.000000
      0.416667       0.437500       0.000000
      0.437500       0.437500       0.000000
      0.437500       0.458333       0.000000
      0.416667       0.458333       0.000000
      0.437500       0.437500       0.000000
      0.458333       0.437500       0.000000
      0.458333       0.458333       0.000000
      0.437500       0.458333       0.000000
      0.458333       0.416667       0.000000
      0.479167       0.416667       0.000000
      0.479167       0.437500       0.000000
      0.458333       0.437500       0.000000
      0.479167       0.416667       0.000000
      0.500000       0.416667       0.000000
      0.500000       0.437500       0.000000
      0.479167       0.437500       0.000000
      0.458333       0.437500       0.000000
      0.479167       0.437500       0.000000
      0.479167       0.458333       0.000000
      0.458333       0.458333       0.000000
      0.479167       0.437500       0.000000
      0.500000       0.437500       0.000000
      0.500000       0.458333       0.000000
      0.479167       0.458333       0.000000
      0.416667       0.458333       0.000000
      0.437500       0.458333       0.000000
      0.437500       0.479167       0.000000
      0.416667       0.479167       0.000000
      0.437500       0.458333       0.000000
      0.458333       0.458333       0.000000
      0.458333       0.479167       0.000000
      0.437500       0.479167       0.000000
      0.416667       0.479167       0.000000
      0.437500       0.479167       0.000000
      0.437500       0.500000       0.000000
      0.416667       0.500000       0.000000
[...]
POINT_DATA  1152
VECTORS U float 
      0.000000       0.000000       0.000000
      0.000000       0.000000       0.000000
      0.000517       0.000020       0.000000
      0.000515       0.000000       0.000000
      0.000000       0.000000       0.000000
      0.000000       0.000000       0.000000
      0.000524       0.000042       0.000000
      0.000517       0.000020       0.000000
      0.000515       0.000000       0.000000
      0.000517       0.000020       0.000000
      0.000970       0.000036       0.000000
      0.000964       0.000000       0.000000
      0.000517       0.000020       0.000000
      0.000524       0.000042       0.000000
      0.000988       0.000075       0.000000
      0.000970       0.000036       0.000000
      0.000000       0.000000       0.000000
      0.000000       0.000000       0.000000
      0.000531       0.000064       0.000000
      0.000524       0.000042       0.000000
      0.000000       0.000000       0.000000
      0.000000       0.000000       0.000000
      0.000535       0.000085       0.000000
      0.000531       0.000064       0.000000
      0.000524       0.000042       0.000000
      0.000531       0.000064       0.000000
      0.001013       0.000119       0.000000
      0.000988       0.000075       0.000000
      0.000531       0.000064       0.000000
      0.000535       0.000085       0.000000
      0.001037       0.000164       0.000000
      0.001013       0.000119       0.000000
      0.000000       0.000000       0.000000
      0.000000       0.000000       0.000000
      0.000534       0.000099       0.000000
      0.000535       0.000085       0.000000
      0.000000       0.000000       0.000000
      0.000000       0.000000       0.000000
      0.000528       0.000101       0.000000
      0.000534       0.000099       0.000000
      0.000535       0.000085       0.000000
      0.000534       0.000099       0.000000
      0.001054       0.000198       0.000000
      0.001037       0.000164       0.000000
      0.000534       0.000099       0.000000
      0.000528       0.000101       0.000000
      0.001065       0.000202       0.000000
      0.001054       0.000198       0.000000
      0.000964       0.000000       0.000000
      0.000970       0.000036       0.000000
      0.001347       0.000044       0.000000
      0.001334       0.000000       0.000000
      0.000970       0.000036       0.000000
      0.000988       0.000075       0.000000
      0.001382       0.000094       0.000000
      0.001347       0.000044       0.000000
      0.001334       0.000000       0.000000
      0.001347       0.000044       0.000000
      0.001629       0.000041       0.000000
      0.001611       0.000000       0.000000
      0.001347       0.000044       0.000000
      0.001382       0.000094       0.000000
      0.001686       0.000090       0.000000
      0.001629       0.000041       0.000000
      0.000988       0.000075       0.000000
      0.001013       0.000119       0.000000
      0.001437       0.000154       0.000000
      0.001382       0.000094       0.000000
      0.001013       0.000119       0.000000
      0.001037       0.000164       0.000000
      0.001502       0.000224       0.000000
      0.001437       0.000154       0.000000
      0.001382       0.000094       0.000000
      0.001437       0.000154       0.000000
      0.001779       0.000156       0.000000
      0.001686       0.000090       0.000000
      0.001437       0.000154       0.000000
      0.001502       0.000224       0.000000
      0.001906       0.000245       0.000000
      0.001779       0.000156       0.000000
      0.001037       0.000164       0.000000
      0.001054       0.000198       0.000000
      0.001562       0.000285       0.000000
      0.001502       0.000224       0.000000
      0.001054       0.000198       0.000000
      0.001065       0.000202       0.000000
      0.001609       0.000297       0.000000
      0.001562       0.000285       0.000000
      0.001502       0.000224       0.000000
      0.001562       0.000285       0.000000
      0.002048       0.000345       0.000000
      0.001906       0.000245       0.000000
      0.001562       0.000285       0.000000
      0.001609       0.000297       0.000000
      0.002170       0.000382       0.000000
      0.002048       0.000345       0.000000
      0.001611       0.000000       0.000000
      0.001629       0.000041       0.000000
      0.001801       0.000027       0.000000
      0.001778       0.000000       0.000000
      0.001629       0.000041       0.000000
      0.001686       0.000090       0.000000
      0.001873       0.000063       0.000000
      0.001801       0.000027       0.000000
      0.001778       0.000000       0.000000
      0.001801       0.000027       0.000000
      0.001852       0.000007       0.000000
      0.001829       0.000000       0.000000
      0.001801       0.000027       0.000000
      0.001873       0.000063       0.000000
      0.001923       0.000021       0.000000
      0.001852       0.000007       0.000000
      0.001686       0.000090       0.000000
      0.001779       0.000156       0.000000
      0.001999       0.000117       0.000000
      0.001873       0.000063       0.000000
      0.001779       0.000156       0.000000
      0.001906       0.000245       0.000000
      0.002191       0.000201       0.000000
      0.001999       0.000117       0.000000
      0.001873       0.000063       0.000000
      0.001999       0.000117       0.000000
      0.002053       0.000049       0.000000
      0.001923       0.000021       0.000000
      0.001999       0.000117       0.000000
      0.002191       0.000201       0.000000
      0.002262       0.000098       0.000000
      0.002053       0.000049       0.000000
      0.001906       0.000245       0.000000
      0.001977       0.000296       0.000000
      0.002167       0.000289       0.000000
      0.002069       0.000232       0.000000
      0.001977       0.000296       0.000000
      0.002048       0.000345       0.000000
      0.002273       0.000351       0.000000
      0.002167       0.000289       0.000000
      0.002069       0.000232       0.000000
      0.002167       0.000289       0.000000
      0.002317       0.000258       0.000000
      0.002191       0.000201       0.000000
      0.002167       0.000289       0.000000
      0.002273       0.000351       0.000000
      0.002465       0.000329       0.000000
      0.002317       0.000258       0.000000
      0.002048       0.000345       0.000000
      0.002113       0.000380       0.000000
      0.002375       0.000406       0.000000
      0.002273       0.000351       0.000000
      0.002113       0.000380       0.000000
      0.002170       0.000382       0.000000
      0.002465       0.000420       0.000000
      0.002375       0.000406       0.000000
      0.002273       0.000351       0.000000
      0.002375       0.000406       0.000000
      0.002628       0.000412       0.000000
      0.002465       0.000329       0.000000
      0.002375       0.000406       0.000000
      0.002465       0.000420       0.000000
      0.002780       0.000453       0.000000
      0.002628       0.000412       0.000000
      0.002191       0.000201       0.000000
      0.002317       0.000258       0.000000
      0.002404       0.000202       0.000000
      0.002259       0.000153       0.000000
      0.002317       0.000258       0.000000
      0.002465       0.000329       0.000000
      0.002588       0.000266       0.000000
      0.002404       0.000202       0.000000
      0.002259       0.000153       0.000000
      0.002404       0.000202       0.000000
      0.002409       0.000132       0.000000
      0.002262       0.000098       0.000000
      0.002404       0.000202       0.000000
      0.002588       0.000266       0.000000
      0.002599       0.000175       0.000000
      0.002409       0.000132       0.000000
      0.002465       0.000329       0.000000
      0.002546       0.000370       0.000000
      0.002636       0.000347       0.000000
      0.002538       0.000303       0.000000
      0.002546       0.000370       0.000000
      0.002628       0.000412       0.000000
      0.002742       0.000398       0.000000
      0.002636       0.000347       0.000000
      0.002538       0.000303       0.000000
      0.002636       0.000347       0.000000
      0.002700       0.000308       0.000000
      0.002588       0.000266       0.000000
      0.002636       0.000347       0.000000
      0.002742       0.000398       0.000000
      0.002833       0.000363       0.000000
      0.002700       0.000308       0.000000
      0.002628       0.000412       0.000000
      0.002707       0.000445       0.000000
      0.002850       0.000447       0.000000
      0.002742       0.000398       0.000000
      0.002707       0.000445       0.000000
      0.002780       0.000453       0.000000
      0.002951       0.000467       0.000000
      0.002850       0.000447       0.000000
      0.002742       0.000398       0.000000
      0.002850       0.000447       0.000000
      0.002987       0.000434       0.000000
      0.002833       0.000363       0.000000
      0.002850       0.000447       0.000000
      0.002951       0.000467       0.000000
      0.003145       0.000478       0.000000
      0.002987       0.000434       0.000000
      0.002588       0.000266       0.000000
      0.002700       0.000308       0.000000
      0.002729       0.000257       0.000000
      0.002609       0.000222       0.000000
      0.002700       0.000308       0.000000
      0.002833       0.000363       0.000000
      0.002879       0.000303       0.000000
      0.002729       0.000257       0.000000
      0.002609       0.000222       0.000000
      0.002729       0.000257       0.000000
      0.002720       0.000200       0.000000
      0.002599       0.000175       0.000000
      0.002729       0.000257       0.000000
      0.002879       0.000303       0.000000
      0.002871       0.000228       0.000000
      0.002720       0.000200       0.000000
      0.002833       0.000363       0.000000
      0.002908       0.000397       0.000000
      0.002949       0.000371       0.000000
      0.002863       0.000336       0.000000
      0.002908       0.000397       0.000000
      0.002987       0.000434       0.000000
      0.003047       0.000415       0.000000
      0.002949       0.000371       0.000000
      0.002863       0.000336       0.000000
      0.002949       0.000371       0.000000
      0.002975       0.000335       0.000000
      0.002879       0.000303       0.000000
      0.002949       0.000371       0.000000
      0.003047       0.000415       0.000000
      0.003094       0.000381       0.000000
      0.002975       0.000335       0.000000
      0.002987       0.000434       0.000000
      0.003067       0.000465       0.000000
      0.003153       0.000460       0.000000
      0.003047       0.000415       0.000000
      0.003067       0.000465       0.000000
      0.003145       0.000478       0.000000
      0.003259       0.000481       0.000000
      0.003153       0.000460       0.000000
      0.003047       0.000415       0.000000
      0.003153       0.000460       0.000000
      0.003241       0.000444       0.000000
      0.003094       0.000381       0.000000
      0.003153       0.000460       0.000000
      0.003259       0.000481       0.000000
      0.003404       0.000482       0.000000
      0.003241       0.000444       0.000000
      0.002879       0.000303       0.000000
      0.002975       0.000335       0.000000
      0.002980       0.000290       0.000000
      0.002881       0.000266       0.000000
      0.002975       0.000335       0.000000
      0.003094       0.000381       0.000000
      0.003113       0.000326       0.000000
      0.002980       0.000290       0.000000
      0.002881       0.000266       0.000000
      0.002980       0.000290       0.000000
      0.002970       0.000242       0.000000
      0.002871       0.000228       0.000000
      0.002980       0.000290       0.000000
      0.003113       0.000326       0.000000
      0.003105       0.000255       0.000000
      0.002970       0.000242       0.000000
      0.003094       0.000381       0.000000
      0.003241       0.000444       0.000000
      0.003325       0.000398       0.000000
      0.003113       0.000326       0.000000
      0.003241       0.000444       0.000000
      0.003404       0.000482       0.000000
      0.003641       0.000472       0.000000
      0.003325       0.000398       0.000000
      0.003113       0.000326       0.000000
      0.003325       0.000398       0.000000
      0.003348       0.000259       0.000000
      0.003105       0.000255       0.000000
      0.003325       0.000398       0.000000
      0.003641       0.000472       0.000000
      0.004646       0.000358       0.000000
      0.003348       0.000259       0.000000
      0.000000       0.000000       0.000000
      0.000000       0.000000       0.000000
      0.000527       0.000087       0.000000
      0.000528       0.000101       0.000000
      0.000000       0.000000       0.000000
      0.000000       0.000000       0.000000
      0.000534       0.000064       0.000000
      0.000527       0.000087       0.000000
      0.000528       0.000101       0.000000
      0.000527       0.000087       0.000000
      0.001080       0.000169       0.000000
      0.001065       0.000202       0.000000
      0.000527       0.000087       0.000000
      0.000534       0.000064       0.000000
      0.001108       0.000116       0.000000
      0.001080       0.000169       0.000000
      0.000000       0.000000       0.000000
      0.000000       0.000000       0.000000
      0.000549       0.000041       0.000000
      0.000534       0.000064       0.000000
      0.000000       0.000000       0.000000
      0.000000       0.000000       0.000000
      0.000566       0.000023       0.000000
      0.000549       0.000041       0.000000
      0.000534       0.000064       0.000000
      0.000549       0.000041       0.000000
      0.001147       0.000067       0.000000
      0.001108       0.000116       0.000000
      0.000549       0.000041       0.000000
      0.000566       0.000023       0.000000
      0.001184       0.000033       0.000000
      0.001147       0.000067       0.000000
      0.000000       0.000000       0.000000
      0.000000       0.000000       0.000000
      0.000579       0.000010       0.000000
      0.000566       0.000023       0.000000
      0.000000       0.000000       0.000000
      0.000000       0.000000       0.000000
      0.000584       0.000000       0.000000
      0.000579       0.000010       0.000000
      0.000566       0.000023       0.000000
      0.000579       0.000010       0.000000
      0.001209       0.000013       0.000000
      0.001184       0.000033       0.000000
      0.000579       0.000010       0.000000
      0.000584       0.000000       0.000000
      0.001219       0.000000       0.000000
      0.001209       0.000013       0.000000
      0.001065       0.000202       0.000000
      0.001080       0.000169       0.000000
      0.001660       0.000236       0.000000
      0.001609       0.000297       0.000000
      0.001080       0.000169       0.000000
      0.001108       0.000116       0.000000
      0.001731       0.000144       0.000000
      0.001660       0.000236       0.000000
      0.001609       0.000297       0.000000
      0.001660       0.000236       0.000000
      0.002292       0.000272       0.000000
      0.002170       0.000382       0.000000
      0.001660       0.000236       0.000000
      0.001731       0.000144       0.000000
      0.002434       0.000130       0.000000
      0.002292       0.000272       0.000000
      0.001108       0.000116       0.000000
      0.001147       0.000067       0.000000
      0.001806       0.000070       0.000000
      0.001731       0.000144       0.000000
      0.001147       0.000067       0.000000
      0.001184       0.000033       0.000000
      0.001867       0.000028       0.000000
      0.001806       0.000070       0.000000
      0.001731       0.000144       0.000000
      0.001806       0.000070       0.000000
      0.002553       0.000043       0.000000
      0.002434       0.000130       0.000000
      0.001806       0.000070       0.000000
      0.001867       0.000028       0.000000
      0.002633       0.000005       0.000000
      0.002553       0.000043       0.000000
      0.001184       0.000033       0.000000
      0.001209       0.000013       0.000000
      0.001905       0.000008       0.000000
      0.001867       0.000028       0.000000
      0.001209       0.000013       0.000000
      0.001219       0.000000       0.000000
      0.001918       0.000000       0.000000
      0.001905       0.000008       0.000000
      0.001867       0.000028       0.000000
      0.001905       0.000008       0.000000
      0.002677      -0.000004       0.000000
      0.002633       0.000005       0.000000
      0.001905       0.000008       0.000000
      0.001918       0.000000       0.000000
      0.002691       0.000000       0.000000
      0.002677      -0.000004       0.000000
      0.002434       0.000130       0.000000
      0.002553       0.000043       0.000000
      0.003429      -0.000007       0.000000
      0.003307       0.000060       0.000000
      0.002553       0.000043       0.000000
      0.002633       0.000005       0.000000
      0.003494      -0.000024       0.000000
      0.003429      -0.000007       0.000000
      0.003307       0.000060       0.000000
      0.003429      -0.000007       0.000000
      0.004428      -0.000034       0.000000
      0.004433       0.000004       0.000000
      0.003429      -0.000007       0.000000
      0.003494      -0.000024       0.000000
      0.004425      -0.000038       0.000000
      0.004428      -0.000034       0.000000
      0.002633       0.000005       0.000000
      0.002677      -0.000004       0.000000
      0.003525      -0.000017       0.000000
      0.003494      -0.000024       0.000000
      0.002677      -0.000004       0.000000
      0.002691       0.000000       0.000000
      0.003535       0.000000       0.000000
      0.003525      -0.000017       0.000000
      0.003494      -0.000024       0.000000
      0.003525      -0.000017       0.000000
      0.004424      -0.000023       0.000000
      0.004425      -0.000038       0.000000
      0.003525      -0.000017       0.000000
      0.003535       0.000000       0.000000
      0.004423       0.000000       0.000000
      0.004424      -0.000023       0.000000
      0.002170       0.000382       0.000000
      0.002227       0.000342       0.000000
      0.002552       0.000364       0.000000
      0.002465       0.000420       0.000000
      0.002227       0.000342       0.000000
      0.002292       0.000272       0.000000
      0.002651       0.000267       0.000000
      0.002552       0.000364       0.000000
      0.002465       0.000420       0.000000
      0.002552       0.000364       0.000000
      0.002925       0.000367       0.000000
      0.002780       0.000453       0.000000
      0.002552       0.000364       0.000000
      0.002651       0.000267       0.000000
      0.003078       0.000232       0.000000
      0.002925       0.000367       0.000000
      0.002292       0.000272       0.000000
      0.002364       0.000196       0.000000
      0.002751       0.000173       0.000000
      0.002651       0.000267       0.000000
      0.002364       0.000196       0.000000
      0.002434       0.000130       0.000000
      0.002841       0.000101       0.000000
      0.002751       0.000173       0.000000
      0.002651       0.000267       0.000000
      0.002751       0.000173       0.000000
      0.003209       0.000128       0.000000