# vtk DataFile Version 2.0
time_10.vtk
ASCII
DATASET UNSTRUCTURED_GRID
POINTS  2256 float
      0.000000       0.000000       0.000000
      0.083333       0.000000       0.000000
      0.083333       0.083333       0.000000
      0.000000       0.083333       0.000000
      0.083333       0.000000       0.000000
      0.166667       0.000000       0.000000
      0.166667       0.083333       0.000000
      0.083333       0.083333       0.000000
      0.000000       0.083333       0.000000
      0.083333       0.083333       0.000000
      0.083333       0.166667       0.000000
      0.000000       0.166667       0.000000
      0.083333       0.083333       0.000000
      0.166667       0.083333       0.000000
      0.166667       0.166667       0.000000
      0.083333       0.166667       0.000000
      0.166667       0.000000       0.000000
      0.250000       0.000000       0.000000
      0.250000       0.083333       0.000000
      0.166667       0.083333       0.000000
      0.250000       0.000000       0.000000
      0.333333       0.000000       0.000000
      0.333333       0.083333       0.000000
      0.250000       0.083333       0.000000
      0.166667       0.083333       0.000000
      0.250000       0.083333       0.000000
      0.250000       0.166667       0.000000
      0.166667       0.166667       0.000000
      0.250000       0.083333       0.000000
      0.333333       0.083333       0.000000
      0.333333       0.166667       0.000000
      0.250000       0.166667       0.000000
      0.333333       0.000000       0.000000
      0.416667      -0.000000       0.000000
      0.416667       0.083333       0.000000
      0.333333       0.083333       0.000000
      0.416667      -0.000000       0.000000
      0.500000       0.000000       0.000000
      0.500000       0.083333       0.000000
      0.416667       0.083333       0.000000
      0.333333       0.083333       0.000000
      0.416667       0.083333       0.000000
      0.416667       0.166667       0.000000
      0.333333       0.166667       0.000000
      0.416667       0.083333       0.000000
      0.500000       0.083333       0.000000
      0.500000       0.166667       0.000000
      0.416667       0.166667       0.000000
      0.000000       0.166667       0.000000
      0.083333       0.166667       0.000000
      0.083333       0.250000       0.000000
      0.000000       0.250000       0.000000
      0.083333       0.166667       0.000000
      0.166667       0.166667       0.000000
      0.166667       0.250000       0.000000
      0.083333       0.250000       0.000000
      0.000000       0.250000       0.000000
      0.083333       0.250000       0.000000
      0.083333       0.333333       0.000000
      0.000000       0.333333       0.000000
      0.083333       0.250000       0.000000
      0.166667       0.250000       0.000000
      0.166667       0.333333       0.000000
      0.083333       0.333333       0.000000
      0.166667       0.166667       0.000000
      0.250000       0.166667       0.000000
      0.250000       0.250000       0.000000
      0.166667       0.250000       0.000000
      0.250000       0.166667       0.000000
      0.333333       0.166667       0.000000
      0.333333       0.250000       0.000000
      0.250000       0.250000       0.000000
      0.166667       0.250000       0.000000
      0.250000       0.250000       0.000000
      0.250000       0.333333       0.000000
      0.166667       0.333333       0.000000
      0.250000       0.250000       0.000000
      0.333333       0.250000       0.000000
      0.333333       0.333333       0.000000
      0.250000       0.333333       0.000000
      0.333333       0.166667       0.000000
      0.416667       0.166667       0.000000
      0.416667       0.250000       0.000000
      0.333333       0.250000       0.000000
      0.333333       0.250000       0.000000
      0.416667       0.250000       0.000000
      0.416667       0.333333       0.000000
      0.333333       0.333333       0.000000
      0.000000       0.333333       0.000000
      0.083333       0.333333       0.000000
      0.083333       0.416667       0.000000
     -0.000000       0.416667       0.000000
      0.083333       0.333333       0.000000
      0.166667       0.333333       0.000000
      0.166667       0.416667       0.000000
      0.083333       0.416667       0.000000
     -0.000000       0.416667       0.000000
      0.083333       0.416667       0.000000
      0.083333       0.500000       0.000000
      0.000000       0.500000       0.000000
      0.083333       0.416667       0.000000
      0.166667       0.416667       0.000000
      0.166667       0.500000       0.000000
      0.083333       0.500000       0.000000
      0.166667       0.333333       0.000000
      0.250000       0.333333       0.000000
      0.250000       0.416667       0.000000
      0.166667       0.416667       0.000000
      0.250000       0.333333       0.000000
      0.333333       0.333333       0.000000
      0.333333       0.416667       0.000000
      0.250000       0.416667       0.000000
      0.166667       0.416667       0.000000
      0.250000       0.416667       0.000000
      0.250000       0.500000       0.000000
      0.166667       0.500000       0.000000
      0.250000       0.416667       0.000000
      0.333333       0.416667       0.000000
      0.333333       0.500000       0.000000
      0.250000       0.500000       0.000000
      0.333333       0.333333       0.000000
      0.375000       0.333333       0.000000
      0.375000       0.375000       0.000000
      0.333333       0.375000       0.000000
      0.375000       0.333333       0.000000
      0.416667       0.333333       0.000000
      0.416667       0.375000       0.000000
      0.375000       0.375000       0.000000
      0.333333       0.375000       0.000000
      0.375000       0.375000       0.000000
      0.375000       0.416667       0.000000
      0.333333       0.416667       0.000000
      0.375000       0.375000       0.000000
      0.416667       0.375000       0.000000
      0.416667       0.416667       0.000000
      0.375000       0.416667       0.000000
      0.416667       0.333333       0.000000
      0.458333       0.333333       0.000000
      0.458333       0.375000       0.000000
      0.416667       0.375000       0.000000
      0.416667       0.375000       0.000000
      0.458333       0.375000       0.000000
      0.458333       0.416667       0.000000
      0.416667       0.416667       0.000000
      0.333333       0.416667       0.000000
      0.375000       0.416667       0.000000
      0.375000       0.458333       0.000000
      0.333333       0.458333       0.000000
      0.375000       0.416667       0.000000
      0.416667       0.416667       0.000000
      0.416667       0.458333       0.000000
      0.375000       0.458333       0.000000
      0.333333       0.458333       0.000000
      0.375000       0.458333       0.000000
      0.375000       0.500000       0.000000
      0.333333       0.500000       0.000000
      0.375000       0.458333       0.000000
      0.416667       0.458333       0.000000
      0.416667       0.500000       0.000000
      0.375000       0.500000       0.000000
      0.416667       0.416667       0.000000
      0.437500       0.416667       0.000000
      0.437500       0.437500       0.000000
      0.416667       0.437500       0.000000
      0.437500       0.416667       0.000000
      0.458333       0.416667       0.000000
      0.458333       0.437500       0.000000
      0.437500       0.437500       0.000000
      0.416667       0.437500       0.000000
      0.437500       0.437500       0.000000
      0.437500       0.458333       0.000000
      0.416667       0.458333       0.000000
      0.437500       0.437500       0.000000
      0.458333       0.437500       0.000000
      0.458333       0.458333       0.000000
      0.437500       0.458333       0.000000
      0.458333       0.416667       0.000000
      0.479167       0.416667       0.000000
      0.479167       0.437500       0.000000
      0.458333       0.437500       0.000000
      0.458333       0.437500       0.000000
      0.479167       0.437500       0.000000
      0.479167       0.458333       0.000000
      0.458333       0.458333       0.000000
      0.416667       0.458333       0.000000
      0.437500       0.458333       0.000000
      0.437500       0.479167       0.000000
      0.416667       0.479167       0.000000
      0.437500       0.458333       0.000000
      0.458333       0.458333       0.000000
      0.458333       0.479167       0.000000
      0.437500       0.479167       0.000000
      0.416667       0.479167       0.000000
      0.437500       0.479167       0.000000
      0.437500       0.500000       0.000000
      0.416667       0.500000       0.000000
      0.437500       0.479167       0.000000
      0.458333       0.479167       0.000000
      0.458333       0.500000       0.000000
      0.437500       0.500000       0.000000
      0.458333       0.458333       0.000000
      0.468750       0.458333       0.000000
      0.468750       0.468750       0.000000
      0.458333       0.468750       0.000000
      0.468750       0.458333       0.000000
      0.479167       0.458333       0.000000
      0.479167       0.468750       0.000000
      0.468750       0.468750       0.000000
      0.458333       0.468750       0.000000
      0.468750       0.468750       0.000000
      0.468750       0.479167       0.000000
      0.458333       0.479167       0.000000
      0.468750       0.468750       0.000000
      0.479167       0.468750       0.000000
      0.479167       0.479167       0.000000
      0.468750       0.479167       0.000000
      0.479167       0.458333       0.000000
      0.489583       0.458333       0.000000
      0.489583       0.468750       0.000000
      0.479167       0.468750       0.000000
[...]
POINT_DATA  2256
VECTORS U float 
      0.000000       0.000000       0.000000
      0.000000       0.000000       0.000000
      0.000138      -0.000003       0.000000
      0.000133       0.000000       0.000000
      0.000000       0.000000       0.000000
      0.000000       0.000000       0.000000
      0.000153      -0.000005       0.000000
      0.000138      -0.000003       0.000000
      0.000133       0.000000       0.000000
      0.000138      -0.000003       0.000000
      0.000256      -0.000011       0.000000
      0.000249       0.000000       0.000000
      0.000138      -0.000003       0.000000
      0.000153      -0.000005       0.000000
      0.000278      -0.000021       0.000000
      0.000256      -0.000011       0.000000
      0.000000       0.000000       0.000000
      0.000000       0.000000       0.000000
      0.000182      -0.000006       0.000000
      0.000153      -0.000005       0.000000
      0.000000       0.000000       0.000000
      0.000000       0.000000       0.000000
      0.000229      -0.000005       0.000000
      0.000182      -0.000006       0.000000
      0.000153      -0.000005       0.000000
      0.000182      -0.000006       0.000000
      0.000318      -0.000031       0.000000
      0.000278      -0.000021       0.000000
      0.000182      -0.000006       0.000000
      0.000229      -0.000005       0.000000
      0.000380      -0.000039       0.000000
      0.000318      -0.000031       0.000000
      0.000000       0.000000       0.000000
      0.000000       0.000000       0.000000
      0.000303       0.000005       0.000000
      0.000229      -0.000005       0.000000
      0.000000       0.000000       0.000000
      0.000000       0.000000       0.000000
      0.000412       0.000042       0.000000
      0.000303       0.000005       0.000000
      0.000229      -0.000005       0.000000
      0.000303       0.000005       0.000000
      0.000474      -0.000036       0.000000
      0.000380      -0.000039       0.000000
      0.000303       0.000005       0.000000
      0.000412       0.000042       0.000000
      0.000617       0.000001       0.000000
      0.000474      -0.000036       0.000000
      0.000249       0.000000       0.000000
      0.000256      -0.000011       0.000000
      0.000346      -0.000020       0.000000
      0.000339       0.000000       0.000000
      0.000256      -0.000011       0.000000
      0.000278      -0.000021       0.000000
      0.000367      -0.000039       0.000000
      0.000346      -0.000020       0.000000
      0.000339       0.000000       0.000000
      0.000346      -0.000020       0.000000
      0.000410      -0.000027       0.000000
      0.000405       0.000000       0.000000
      0.000346      -0.000020       0.000000
      0.000367      -0.000039       0.000000
      0.000424      -0.000053       0.000000
      0.000410      -0.000027       0.000000
      0.000278      -0.000021       0.000000
      0.000318      -0.000031       0.000000
      0.000402      -0.000059       0.000000
      0.000367      -0.000039       0.000000
      0.000318      -0.000031       0.000000
      0.000380      -0.000039       0.000000
      0.000453      -0.000074       0.000000
      0.000402      -0.000059       0.000000
      0.000367      -0.000039       0.000000
      0.000402      -0.000059       0.000000
      0.000447      -0.000078       0.000000
      0.000424      -0.000053       0.000000
      0.000402      -0.000059       0.000000
      0.000453      -0.000074       0.000000
      0.000476      -0.000095       0.000000
      0.000447      -0.000078       0.000000
      0.000380      -0.000039       0.000000
      0.000474      -0.000036       0.000000
      0.000520      -0.000080       0.000000
      0.000453      -0.000074       0.000000
      0.000453      -0.000074       0.000000
      0.000520      -0.000080       0.000000
      0.000507      -0.000097       0.000000
      0.000476      -0.000095       0.000000
      0.000405       0.000000       0.000000
      0.000410      -0.000027       0.000000
      0.000454      -0.000031       0.000000
      0.000452       0.000000       0.000000
      0.000410      -0.000027       0.000000
      0.000424      -0.000053       0.000000
      0.000461      -0.000061       0.000000
      0.000454      -0.000031       0.000000
      0.000452       0.000000       0.000000
      0.000454      -0.000031       0.000000
      0.000489      -0.000033       0.000000
      0.000488       0.000000       0.000000
      0.000454      -0.000031       0.000000
      0.000461      -0.000061       0.000000
      0.000491      -0.000064       0.000000
      0.000489      -0.000033       0.000000
      0.000424      -0.000053       0.000000
      0.000447      -0.000078       0.000000
      0.000472      -0.000087       0.000000
      0.000461      -0.000061       0.000000
      0.000447      -0.000078       0.000000
      0.000476      -0.000095       0.000000
      0.000483      -0.000102       0.000000
      0.000472      -0.000087       0.000000
      0.000461      -0.000061       0.000000
      0.000472      -0.000087       0.000000
      0.000491      -0.000089       0.000000
      0.000491      -0.000064       0.000000
      0.000472      -0.000087       0.000000
      0.000483      -0.000102       0.000000
      0.000488      -0.000103       0.000000
      0.000491      -0.000089       0.000000
      0.000476      -0.000095       0.000000
      0.000492      -0.000099       0.000000
      0.000490      -0.000102       0.000000
      0.000481      -0.000100       0.000000
      0.000492      -0.000099       0.000000
      0.000507      -0.000097       0.000000
      0.000499      -0.000098       0.000000
      0.000490      -0.000102       0.000000
      0.000481      -0.000100       0.000000
      0.000490      -0.000102       0.000000
      0.000488      -0.000103       0.000000
      0.000483      -0.000102       0.000000
      0.000490      -0.000102       0.000000
      0.000499      -0.000098       0.000000
      0.000493      -0.000098       0.000000
      0.000488      -0.000103       0.000000
      0.000507      -0.000097       0.000000
      0.000520      -0.000086       0.000000
      0.000505      -0.000086       0.000000
      0.000499      -0.000098       0.000000
      0.000499      -0.000098       0.000000
      0.000505      -0.000086       0.000000
      0.000496      -0.000086       0.000000
      0.000493      -0.000098       0.000000
      0.000483      -0.000102       0.000000
      0.000488      -0.000103       0.000000
      0.000487      -0.000104       0.000000
      0.000486      -0.000104       0.000000
      0.000488      -0.000103       0.000000
      0.000493      -0.000098       0.000000
      0.000489      -0.000098       0.000000
      0.000487      -0.000104       0.000000
      0.000486      -0.000104       0.000000
      0.000487      -0.000104       0.000000
      0.000485      -0.000103       0.000000
      0.000488      -0.000103       0.000000
      0.000487      -0.000104       0.000000
      0.000489      -0.000098       0.000000
      0.000484      -0.000098       0.000000
      0.000485      -0.000103       0.000000
      0.000493      -0.000098       0.000000
      0.000495      -0.000093       0.000000
      0.000492      -0.000093       0.000000
      0.000491      -0.000098       0.000000
      0.000495      -0.000093       0.000000
      0.000496      -0.000086       0.000000
      0.000494      -0.000086       0.000000
      0.000492      -0.000093       0.000000
      0.000491      -0.000098       0.000000
      0.000492      -0.000093       0.000000
      0.000490      -0.000093       0.000000
      0.000489      -0.000098       0.000000
      0.000492      -0.000093       0.000000
      0.000494      -0.000086       0.000000
      0.000491      -0.000087       0.000000
      0.000490      -0.000093       0.000000
      0.000496      -0.000086       0.000000
      0.000498      -0.000078       0.000000
      0.000496      -0.000078       0.000000
      0.000494      -0.000086       0.000000
      0.000494      -0.000086       0.000000
      0.000496      -0.000078       0.000000
      0.000494      -0.000080       0.000000
      0.000491      -0.000087       0.000000
      0.000489      -0.000098       0.000000
      0.000490      -0.000093       0.000000
      0.000488      -0.000093       0.000000
      0.000487      -0.000098       0.000000
      0.000490      -0.000093       0.000000
      0.000491      -0.000087       0.000000
      0.000489      -0.000088       0.000000
      0.000488      -0.000093       0.000000
      0.000487      -0.000098       0.000000
      0.000488      -0.000093       0.000000
      0.000484      -0.000094       0.000000
      0.000484      -0.000098       0.000000
      0.000488      -0.000093       0.000000
      0.000489      -0.000088       0.000000
      0.000485      -0.000088       0.000000
      0.000484      -0.000094       0.000000
      0.000491      -0.000087       0.000000
      0.000492      -0.000083       0.000000
      0.000491      -0.000084       0.000000
      0.000490      -0.000087       0.000000
      0.000492      -0.000083       0.000000
      0.000494      -0.000080       0.000000
      0.000493      -0.000081       0.000000
      0.000491      -0.000084       0.000000
      0.000490      -0.000087       0.000000
      0.000491      -0.000084       0.000000
      0.000490      -0.000085       0.000000
      0.000489      -0.000088       0.000000
      0.000491      -0.000084       0.000000
      0.000493      -0.000081       0.000000
      0.000492      -0.000082       0.000000
      0.000490      -0.000085       0.000000
      0.000494      -0.000080       0.000000
      0.000495      -0.000075       0.000000
      0.000495      -0.000076       0.000000
      0.000493      -0.000081       0.000000
      0.000495      -0.000075       0.000000
      0.000499      -0.000070       0.000000
      0.000500      -0.000064       0.000000
      0.000495      -0.000076       0.000000
      0.000493      -0.000081       0.000000
      0.000495      -0.000076       0.000000
      0.000495      -0.000078       0.000000
      0.000492      -0.000082       0.000000
      0.000495      -0.000076       0.000000
      0.000500      -0.000064       0.000000
      0.000498      -0.000056       0.000000
      0.000495      -0.000078       0.000000
      0.000489      -0.000088       0.000000
      0.000490      -0.000085       0.000000
      0.000489      -0.000085       0.000000
      0.000487      -0.000088       0.000000
      0.000490      -0.000085       0.000000
      0.000492      -0.000082       0.000000
      0.000491      -0.000084       0.000000
      0.000489      -0.000085       0.000000
      0.000487      -0.000088       0.000000
      0.000489      -0.000085       0.000000
      0.000488      -0.000085       0.000000
      0.000485      -0.000088       0.000000
      0.000489      -0.000085       0.000000
      0.000491      -0.000084       0.000000
      0.000495      -0.000080       0.000000
      0.000488      -0.000085       0.000000
      0.000492      -0.000082       0.000000
      0.000495      -0.000078       0.000000
      0.000494      -0.000085       0.000000
      0.000491      -0.000084       0.000000
      0.000495      -0.000078       0.000000
      0.000498      -0.000056       0.000000
      0.000310       0.000023       0.000000
      0.000494      -0.000085       0.000000
      0.000491      -0.000084       0.000000
      0.000494      -0.000085       0.000000
      0.000559      -0.000066       0.000000
      0.000495      -0.000080       0.000000
      0.000494      -0.000085       0.000000
      0.000310       0.000023       0.000000
      0.009400       0.000917       0.000000
      0.000559      -0.000066       0.000000
      0.000496      -0.000078       0.000000
      0.000497      -0.000074       0.000000
      0.000496      -0.000074       0.000000
      0.000494      -0.000079       0.000000
      0.000497      -0.000074       0.000000
      0.000498      -0.000068       0.000000
      0.000498      -0.000070       0.000000
      0.000496      -0.000074       0.000000
      0.000494      -0.000079       0.000000
      0.000496      -0.000074       0.000000
      0.000495      -0.000075       0.000000
      0.000494      -0.000080       0.000000
      0.000496      -0.000074       0.000000
      0.000498      -0.000070       0.000000
      0.000499      -0.000070       0.000000
      0.000495      -0.000075       0.000000
      0.000505      -0.000086       0.000000
      0.000508      -0.000077       0.000000
      0.000502      -0.000077       0.000000
      0.000500      -0.000086       0.000000
      0.000508      -0.000077       0.000000
      0.000510      -0.000065       0.000000
      0.000505      -0.000066       0.000000
      0.000502      -0.000077       0.000000
      0.000500      -0.000086       0.000000
      0.000502      -0.000077       0.000000
      0.000498      -0.000078       0.000000
      0.000496      -0.000086       0.000000
      0.000498      -0.000078       0.000000
      0.000499      -0.000073       0.000000
      0.000498      -0.000073       0.000000
      0.000497      -0.000078       0.000000
      0.000499      -0.000073       0.000000
      0.000501      -0.000067       0.000000
      0.000499      -0.000068       0.000000
      0.000498      -0.000073       0.000000
      0.000497      -0.000078       0.000000
      0.000498      -0.000073       0.000000
      0.000497      -0.000074       0.000000
      0.000496      -0.000078       0.000000
      0.000498      -0.000073       0.000000
      0.000499      -0.000068       0.000000
      0.000498      -0.000068       0.000000
      0.000497      -0.000074       0.000000
      0.000502      -0.000077       0.000000
      0.000503      -0.000072       0.000000
      0.000501      -0.000072       0.000000
      0.000500      -0.000077       0.000000
      0.000503      -0.000072       0.000000
      0.000505      -0.000066       0.000000
      0.000502      -0.000066       0.000000
      0.000501      -0.000072       0.000000
      0.000500      -0.000077       0.000000
      0.000501      -0.000072       0.000000
      0.000499      -0.000073       0.000000
      0.000498      -0.000078       0.000000
      0.000501      -0.000072       0.000000
      0.000502      -0.000066       0.000000
      0.000501      -0.000067       0.000000
      0.000499      -0.000073       0.000000
      0.000520      -0.000080       0.000000
      0.000560      -0.000073       0.000000
      0.000540      -0.000083       0.000000
      0.000516      -0.000091       0.000000
      0.000560      -0.000073       0.000000
      0.000604      -0.000054       0.000000
      0.000563      -0.000063       0.000000
      0.000540      -0.000083       0.000000
      0.000516      -0.000091       0.000000
      0.000540      -0.000083       0.000000
      0.000520      -0.000086       0.000000
      0.000507      -0.000097       0.000000
      0.000520      -0.000086       0.000000
      0.000525      -0.000077       0.000000
      0.000515      -0.000077       0.000000
      0.000512      -0.000087       0.000000
      0.000525      -0.000077       0.000000
      0.000530      -0.000064       0.000000
      0.000519      -0.000064       0.000000
      0.000515      -0.000077       0.000000
      0.000512      -0.000087       0.000000
      0.000515      -0.000077       0.000000
      0.000508      -0.000077       0.000000
      0.000505      -0.000086       0.000000
      0.000515      -0.000077       0.000000
      0.000519      -0.000064       0.000000
      0.000510      -0.000065       0.000000
      0.000508      -0.000077       0.000000
      0.000540      -0.000083       0.000000
      0.000552      -0.000075       0.000000
      0.000538      -0.000077       0.000000
      0.000530      -0.000086       0.000000
      0.000552      -0.000075       0.000000
      0.000563      -0.000063       0.000000
      0.000545      -0.000064       0.000000
      0.000538      -0.000077       0.000000
      0.000530      -0.000086       0.000000
      0.000538      -0.000077       0.000000
      0.000525      -0.000077       0.000000
      0.000520      -0.000086       0.000000
      0.000538      -0.000077       0.000000
      0.000545      -0.000064       0.000000
      0.000530      -0.000064       0.000000
      0.000525      -0.000077       0.000000
      0.000474      -0.000036       0.000000
      0.000538      -0.000025       0.000000
      0.000564      -0.000053       0.000000
      0.000509      -0.000061       0.000000
      0.000538      -0.000025       0.000000
      0.000617       0.000001       0.000000
      0.000631      -0.000032       0.000000
      0.000564      -0.000053       0.000000
      0.000509      -0.000061       0.000000
      0.000564      -0.000053       0.000000
      0.000560      -0.000073       0.000000
      0.000520      -0.000080       0.000000
      0.000564      -0.000053       0.000000
      0.000631      -0.000032       0.000000
      0.000604      -0.000054       0.000000
      0.000560      -0.000073       0.000000
      0.000000       0.000000       0.000000
      0.000000       0.000000       0.000000
      0.000542       0.000144       0.000000
      0.000412       0.000042       0.000000
      0.000000       0.000000       0.000000
      0.000000       0.000000       0.000000
      0.000617       0.000283       0.000000
      0.000542       0.000144       0.000000
      0.000412       0.000042       0.000000
      0.000542       0.000144       0.000000
      0.000852       0.000154       0.000000
      0.000617       0.000001       0.000000
      0.000000       0.000000       0.000000
      0.000000       0.000000       0.000000
      0.000642       0.000245       0.000000
      0.000617       0.000283       0.000000
      0.000000       0.000000       0.000000
      0.000000       0.000000       0.000000
      0.000718       0.000116       0.000000
      0.000642       0.000245       0.000000
      0.000642       0.000245       0.000000
      0.000718       0.000116       0.000000
      0.001744       0.000148       0.000000
      0.001503       0.000400       0.000000
      0.000000       0.000000       0.000000
      0.000000       0.000000       0.000000
      0.000793       0.000040       0.000000
      0.000718       0.000116       0.000000
      0.000000       0.000000       0.000000
      0.000000       0.000000       0.000000
      0.000821       0.000000       0.000000
      0.000793       0.000040       0.000000
      0.000718       0.000116       0.000000
      0.000793       0.000040       0.000000
      0.001871       0.000043       0.000000
      0.001744       0.000148       0.000000
      0.000793       0.000040       0.000000
      0.000821       0.000000       0.000000
      0.001911       0.000000       0.000000
      0.001871       0.000043       0.000000
      0.001503       0.000400       0.000000
      0.001744       0.000148       0.000000
      0.003242       0.000140       0.000000
      0.003155       0.000430       0.000000
      0.003155       0.000430       0.000000
      0.003242       0.000140       0.000000
      0.004981       0.000202       0.000000
      0.005114       0.000559       0.000000
      0.001744       0.000148       0.000000
      0.001871       0.000043       0.000000
      0.003294       0.000037       0.000000
      0.003242       0.000140       0.000000
      0.001871       0.000043       0.000000
      0.001911       0.000000       0.000000
      0.003311       0.000000       0.000000
      0.003294       0.000037       0.000000
      0.003242       0.000140       0.000000
      0.003294       0.000037       0.000000
      0.004913       0.000064       0.000000