# vtk DataFile Version 2.0
time_10.vtk
ASCII
DATASET UNSTRUCTURED_GRID
POINTS  1932 float
      0.000000       0.000000       0.000000
      0.083333       0.000000       0.000000
      0.083333       0.083333       0.000000
      0.000000       0.083333       0.000000
      0.083333       0.000000       0.000000
      0.166667       0.000000       0.000000
      0.166667       0.083333       0.000000
      0.083333       0.083333       0.000000
      0.000000       0.083333       0.000000
      0.083333       0.083333       0.000000
      0.083333       0.166667       0.000000
      0.000000       0.166667       0.000000
      0.083333       0.083333       0.000000
      0.166667       0.083333       0.000000
      0.166667       0.166667       0.000000
      0.083333       0.166667       0.000000
      0.166667       0.000000       0.000000
      0.250000       0.000000       0.000000
      0.250000       0.083333       0.000000
      0.166667       0.083333       0.000000
      0.250000       0.000000       0.000000
      0.333333       0.000000       0.000000
      0.333333       0.083333       0.000000
      0.250000       0.083333       0.000000
      0.166667       0.083333       0.000000
      0.250000       0.083333       0.000000
      0.250000       0.166667       0.000000
      0.166667       0.166667       0.000000
      0.250000       0.083333       0.000000
      0.333333       0.083333       0.000000
      0.333333       0.166667       0.000000
      0.250000       0.166667       0.000000
      0.333333       0.000000       0.000000
      0.416667      -0.000000       0.000000
      0.416667       0.083333       0.000000
      0.333333       0.083333       0.000000
      0.416667      -0.000000       0.000000
      0.500000       0.000000       0.000000
      0.500000       0.083333       0.000000
      0.416667       0.083333       0.000000
      0.333333       0.083333       0.000000
      0.416667       0.083333       0.000000
      0.416667       0.166667       0.000000
      0.333333       0.166667       0.000000
      0.416667       0.083333       0.000000
      0.500000       0.083333       0.000000
      0.500000       0.166667       0.000000
      0.416667       0.166667       0.000000
      0.000000       0.166667       0.000000
      0.083333       0.166667       0.000000
      0.083333       0.250000       0.000000
      0.000000       0.250000       0.000000
      0.083333       0.166667       0.000000
      0.166667       0.166667       0.000000
      0.166667       0.250000       0.000000
      0.083333       0.250000       0.000000
      0.000000       0.250000       0.000000
      0.083333       0.250000       0.000000
      0.083333       0.333333       0.000000
      0.000000       0.333333       0.000000
      0.083333       0.250000       0.000000
      0.166667       0.250000       0.000000
      0.166667       0.333333       0.000000
      0.083333       0.333333       0.000000
      0.166667       0.166667       0.000000
      0.250000       0.166667       0.000000
      0.250000       0.250000       0.000000
      0.166667       0.250000       0.000000
      0.250000       0.166667       0.000000
      0.333333       0.166667       0.000000
      0.333333       0.250000       0.000000
      0.250000       0.250000       0.000000
      0.166667       0.250000       0.000000
      0.250000       0.250000       0.000000
      0.250000       0.333333       0.000000
      0.166667       0.333333       0.000000
      0.250000       0.250000       0.000000
      0.333333       0.250000       0.000000
      0.333333       0.333333       0.000000
      0.250000       0.333333       0.000000
      0.333333       0.166667       0.000000
      0.416667       0.166667       0.000000
      0.416667       0.250000       0.000000
      0.333333       0.250000       0.000000
      0.333333       0.250000       0.000000
      0.416667       0.250000       0.000000
      0.416667       0.333333       0.000000
      0.333333       0.333333       0.000000
      0.000000       0.333333       0.000000
      0.083333       0.333333       0.000000
      0.083333       0.416667       0.000000
     -0.000000       0.416667       0.000000
      0.083333       0.333333       0.000000
      0.166667       0.333333       0.000000
      0.166667       0.416667       0.000000
      0.083333       0.416667       0.000000
     -0.000000       0.416667       0.000000
      0.083333       0.416667       0.000000
      0.083333       0.500000       0.000000
      0.000000       0.500000       0.000000
      0.083333       0.416667       0.000000
      0.166667       0.416667       0.000000
      0.166667       0.500000       0.000000
      0.083333       0.500000       0.000000
      0.166667       0.333333       0.000000
      0.250000       0.333333       0.000000
      0.250000       0.416667       0.000000
      0.166667       0.416667       0.000000
      0.250000       0.333333       0.000000
      0.333333       0.333333       0.000000
      0.333333       0.416667       0.000000
      0.250000       0.416667       0.000000
      0.166667       0.416667       0.000000
      0.250000       0.416667       0.000000
      0.250000       0.500000       0.000000
      0.166667       0.500000       0.000000
      0.250000       0.416667       0.000000
      0.333333       0.416667       0.000000
      0.333333       0.500000       0.000000
      0.250000       0.500000       0.000000
      0.333333       0.333333       0.000000
      0.375000       0.333333       0.000000
      0.375000       0.375000       0.000000
      0.333333       0.375000       0.000000
      0.375000       0.333333       0.000000
      0.416667       0.333333       0.000000
      0.416667       0.375000       0.000000
      0.375000       0.375000       0.000000
      0.333333       0.375000       0.000000
      0.375000       0.375000       0.000000
      0.375000       0.416667       0.000000
      0.333333       0.416667       0.000000
      0.375000       0.375000       0.000000
      0.416667       0.375000       0.000000
      0.416667       0.416667       0.000000
      0.375000       0.416667       0.000000
      0.416667       0.333333       0.000000
      0.458333       0.333333       0.000000
      0.458333       0.375000       0.000000
      0.416667       0.375000       0.000000
      0.416667       0.375000       0.000000
      0.458333       0.375000       0.000000
      0.458333       0.416667       0.000000
      0.416667       0.416667       0.000000
      0.333333       0.416667       0.000000
      0.375000       0.416667       0.000000
      0.375000       0.458333       0.000000
      0.333333       0.458333       0.000000
      0.375000       0.416667       0.000000
      0.416667       0.416667       0.000000
      0.416667       0.458333       0.000000
      0.375000       0.458333       0.000000
      0.333333       0.458333       0.000000
      0.375000       0.458333       0.000000
      0.375000       0.500000       0.000000
      0.333333       0.500000       0.000000
      0.375000       0.458333       0.000000
      0.416667       0.458333       0.000000
      0.416667       0.500000       0.000000
      0.375000       0.500000       0.000000
      0.416667       0.416667       0.000000
      0.437500       0.416667       0.000000
      0.437500       0.437500       0.000000
      0.416667       0.437500       0.000000
      0.437500       0.416667       0.000000
      0.458333       0.416667       0.000000
      0.458333       0.437500       0.000000
      0.437500       0.437500       0.000000
      0.416667       0.437500       0.000000
      0.437500       0.437500       0.000000
      0.437500       0.458333       0.000000
      0.416667       0.458333       0.000000
      0.437500       0.437500       0.000000
      0.458333       0.437500       0.000000
      0.458333       0.458333       0.000000
      0.437500       0.458333       0.000000
      0.458333       0.416667       0.000000
      0.479167       0.416667       0.000000
      0.479167       0.437500       0.000000
      0.458333       0.437500       0.000000
      0.458333       0.437500       0.000000
      0.479167       0.437500       0.000000
      0.479167       0.458333       0.000000
      0.458333       0.458333       0.000000
      0.416667       0.458333       0.000000
      0.437500       0.458333       0.000000
      0.437500       0.479167       0.000000
      0.416667       0.479167       0.000000
      0.437500       0.458333       0.000000
      0.458333       0.458333       0.000000
      0.458333       0.479167       0.000000
      0.437500       0.479167       0.000000
      0.416667       0.479167       0.000000
      0.437500       0.479167       0.000000
      0.437500       0.500000       0.000000
      0.416667       0.500000       0.000000
      0.437500       0.479167       0.000000
      0.458333       0.479167       0.000000
      0.458333       0.500000       0.000000
      0.437500       0.500000       0.000000
      0.458333       0.458333       0.000000
      0.468750       0.458333       0.000000
      0.468750       0.468750       0.000000
      0.458333       0.468750       0.000000
      0.468750       0.458333       0.000000
      0.479167       0.458333       0.000000
      0.479167       0.468750       0.000000
      0.468750       0.468750       0.000000
      0.458333       0.468750       0.000000
      0.468750       0.468750       0.000000
      0.468750       0.479167       0.000000
      0.458333       0.479167       0.000000
      0.468750       0.468750       0.000000
      0.479167       0.468750       0.000000
      0.479167       0.479167       0.000000
      0.468750       0.479167       0.000000
      0.479167       0.458333       0.000000
      0.489583       0.458333       0.000000
      0.489583       0.468750       0.000000
      0.479167       0.468750       0.000000
[...]
POINT_DATA  1932
VECTORS U float 
      0.000000       0.000000       0.000000
      0.000000       0.000000       0.000000
      0.000236      -0.000001       0.000000
      0.000228       0.000000       0.000000
      0.000000       0.000000       0.000000
      0.000000       0.000000       0.000000
      0.000260      -0.000001       0.000000
      0.000236      -0.000001       0.000000
      0.000228       0.000000       0.000000
      0.000236      -0.000001       0.000000
      0.000432      -0.000012       0.000000
      0.000421       0.000000       0.000000
      0.000236      -0.000001       0.000000
      0.000260      -0.000001       0.000000
      0.000468      -0.000020       0.000000
      0.000432      -0.000012       0.000000
      0.000000       0.000000       0.000000
      0.000000       0.000000       0.000000
      0.000303       0.000004       0.000000
      0.000260      -0.000001       0.000000
      0.000000       0.000000       0.000000
      0.000000       0.000000       0.000000
      0.000366       0.000019       0.000000
      0.000303       0.000004       0.000000
      0.000260      -0.000001       0.000000
      0.000303       0.000004       0.000000
      0.000531      -0.000023       0.000000
      0.000468      -0.000020       0.000000
      0.000303       0.000004       0.000000
      0.000366       0.000019       0.000000
      0.000626      -0.000008       0.000000
      0.000531      -0.000023       0.000000
      0.000000       0.000000       0.000000
      0.000000       0.000000       0.000000
      0.000449       0.000054       0.000000
      0.000366       0.000019       0.000000
      0.000000       0.000000       0.000000
      0.000000       0.000000       0.000000
      0.000535       0.000125       0.000000
      0.000449       0.000054       0.000000
      0.000366       0.000019       0.000000
      0.000449       0.000054       0.000000
      0.000761       0.000043       0.000000
      0.000626      -0.000008       0.000000
      0.000449       0.000054       0.000000
      0.000535       0.000125       0.000000
      0.000942       0.000174       0.000000
      0.000761       0.000043       0.000000
      0.000421       0.000000       0.000000
      0.000432      -0.000012       0.000000
      0.000577      -0.000025       0.000000
      0.000566       0.000000       0.000000
      0.000432      -0.000012       0.000000
      0.000468      -0.000020       0.000000
      0.000612      -0.000047       0.000000
      0.000577      -0.000025       0.000000
      0.000566       0.000000       0.000000
      0.000577      -0.000025       0.000000
      0.000674      -0.000036       0.000000
      0.000666       0.000000       0.000000
      0.000577      -0.000025       0.000000
      0.000612      -0.000047       0.000000
      0.000699      -0.000069       0.000000
      0.000674      -0.000036       0.000000
      0.000468      -0.000020       0.000000
      0.000531      -0.000023       0.000000
      0.000672      -0.000061       0.000000
      0.000612      -0.000047       0.000000
      0.000531      -0.000023       0.000000
      0.000626      -0.000008       0.000000
      0.000763      -0.000058       0.000000
      0.000672      -0.000061       0.000000
      0.000612      -0.000047       0.000000
      0.000672      -0.000061       0.000000
      0.000740      -0.000092       0.000000
      0.000699      -0.000069       0.000000
      0.000672      -0.000061       0.000000
      0.000763      -0.000058       0.000000
      0.000797      -0.000097       0.000000
      0.000740      -0.000092       0.000000
      0.000626      -0.000008       0.000000
      0.000761       0.000043       0.000000
      0.000894      -0.000019       0.000000
      0.000763      -0.000058       0.000000
      0.000763      -0.000058       0.000000
      0.000894      -0.000019       0.000000
      0.000867      -0.000067       0.000000
      0.000797      -0.000097       0.000000
      0.000666       0.000000       0.000000
      0.000674      -0.000036       0.000000
      0.000736      -0.000043       0.000000
      0.000732       0.000000       0.000000
      0.000674      -0.000036       0.000000
      0.000699      -0.000069       0.000000
      0.000747      -0.000082       0.000000
      0.000736      -0.000043       0.000000
      0.000732       0.000000       0.000000
      0.000736      -0.000043       0.000000
      0.000781      -0.000045       0.000000
      0.000781       0.000000       0.000000
      0.000736      -0.000043       0.000000
      0.000747      -0.000082       0.000000
      0.000781      -0.000085       0.000000
      0.000781      -0.000045       0.000000
      0.000699      -0.000069       0.000000
      0.000740      -0.000092       0.000000
      0.000765      -0.000109       0.000000
      0.000747      -0.000082       0.000000
      0.000740      -0.000092       0.000000
      0.000797      -0.000097       0.000000
      0.000785      -0.000113       0.000000
      0.000765      -0.000109       0.000000
      0.000747      -0.000082       0.000000
      0.000765      -0.000109       0.000000
      0.000777      -0.000112       0.000000
      0.000781      -0.000085       0.000000
      0.000765      -0.000109       0.000000
      0.000785      -0.000113       0.000000
      0.000765      -0.000113       0.000000
      0.000777      -0.000112       0.000000
      0.000797      -0.000097       0.000000
      0.000831      -0.000088       0.000000
      0.000814      -0.000097       0.000000
      0.000794      -0.000108       0.000000
      0.000831      -0.000088       0.000000
      0.000867      -0.000067       0.000000
      0.000833      -0.000074       0.000000
      0.000814      -0.000097       0.000000
      0.000794      -0.000108       0.000000
      0.000814      -0.000097       0.000000
      0.000794      -0.000100       0.000000
      0.000785      -0.000113       0.000000
      0.000814      -0.000097       0.000000
      0.000833      -0.000074       0.000000
      0.000802      -0.000075       0.000000
      0.000794      -0.000100       0.000000
      0.000867      -0.000067       0.000000
      0.000904      -0.000030       0.000000
      0.000849      -0.000035       0.000000
      0.000833      -0.000074       0.000000
      0.000833      -0.000074       0.000000
      0.000849      -0.000035       0.000000
      0.000808      -0.000035       0.000000
      0.000802      -0.000075       0.000000
      0.000785      -0.000113       0.000000
      0.000794      -0.000100       0.000000
      0.000776      -0.000101       0.000000
      0.000775      -0.000115       0.000000
      0.000794      -0.000100       0.000000
      0.000802      -0.000075       0.000000
      0.000777      -0.000074       0.000000
      0.000776      -0.000101       0.000000
      0.000775      -0.000115       0.000000
      0.000776      -0.000101       0.000000
      0.000757      -0.000099       0.000000
      0.000765      -0.000113       0.000000
      0.000776      -0.000101       0.000000
      0.000777      -0.000074       0.000000
      0.000750      -0.000073       0.000000
      0.000757      -0.000099       0.000000
      0.000802      -0.000075       0.000000
      0.000805      -0.000057       0.000000
      0.000791      -0.000057       0.000000
      0.000789      -0.000075       0.000000
      0.000805      -0.000057       0.000000
      0.000808      -0.000035       0.000000
      0.000792      -0.000036       0.000000
      0.000791      -0.000057       0.000000
      0.000789      -0.000075       0.000000
      0.000791      -0.000057       0.000000
      0.000777      -0.000056       0.000000
      0.000777      -0.000074       0.000000
      0.000791      -0.000057       0.000000
      0.000792      -0.000036       0.000000
      0.000778      -0.000036       0.000000
      0.000777      -0.000056       0.000000
      0.000808      -0.000035       0.000000
      0.000811      -0.000010       0.000000
      0.000795      -0.000012       0.000000
      0.000792      -0.000036       0.000000
      0.000792      -0.000036       0.000000
      0.000795      -0.000012       0.000000
      0.000780      -0.000014       0.000000
      0.000778      -0.000036       0.000000
      0.000777      -0.000074       0.000000
      0.000777      -0.000056       0.000000
      0.000764      -0.000056       0.000000
      0.000764      -0.000074       0.000000
      0.000777      -0.000056       0.000000
      0.000778      -0.000036       0.000000
      0.000764      -0.000037       0.000000
      0.000764      -0.000056       0.000000
      0.000764      -0.000074       0.000000
      0.000764      -0.000056       0.000000
      0.000748      -0.000056       0.000000
      0.000750      -0.000073       0.000000
      0.000764      -0.000056       0.000000
      0.000764      -0.000037       0.000000
      0.000748      -0.000037       0.000000
      0.000748      -0.000056       0.000000
      0.000778      -0.000036       0.000000
      0.000779      -0.000025       0.000000
      0.000772      -0.000026       0.000000
      0.000771      -0.000037       0.000000
      0.000779      -0.000025       0.000000
      0.000780      -0.000014       0.000000
      0.000774      -0.000015       0.000000
      0.000772      -0.000026       0.000000
      0.000771      -0.000037       0.000000
      0.000772      -0.000026       0.000000
      0.000765      -0.000027       0.000000
      0.000764      -0.000037       0.000000
      0.000772      -0.000026       0.000000
      0.000774      -0.000015       0.000000
      0.000767      -0.000017       0.000000
      0.000765      -0.000027       0.000000
      0.000780      -0.000014       0.000000
      0.000783      -0.000002       0.000000
      0.000776      -0.000003       0.000000
      0.000774      -0.000015       0.000000
      0.000783      -0.000002       0.000000
      0.000787       0.000012       0.000000
      0.000782       0.000017       0.000000
      0.000776      -0.000003       0.000000
      0.000774      -0.000015       0.000000
      0.000776      -0.000003       0.000000
      0.000770      -0.000006       0.000000
      0.000767      -0.000017       0.000000
      0.000776      -0.000003       0.000000
      0.000782       0.000017       0.000000
      0.000766       0.000023       0.000000
      0.000770      -0.000006       0.000000
      0.000764      -0.000037       0.000000
      0.000765      -0.000027       0.000000
      0.000758      -0.000027       0.000000
      0.000757      -0.000037       0.000000
      0.000765      -0.000027       0.000000
      0.000767      -0.000017       0.000000
      0.000759      -0.000019       0.000000
      0.000758      -0.000027       0.000000
      0.000757      -0.000037       0.000000
      0.000758      -0.000027       0.000000
      0.000750      -0.000027       0.000000
      0.000748      -0.000037       0.000000
      0.000758      -0.000027       0.000000
      0.000759      -0.000019       0.000000
      0.000757      -0.000015       0.000000
      0.000750      -0.000027       0.000000
      0.000767      -0.000017       0.000000
      0.000770      -0.000006       0.000000
      0.000762      -0.000013       0.000000
      0.000759      -0.000019       0.000000
      0.000770      -0.000006       0.000000
      0.000766       0.000023       0.000000
      0.000494       0.000040       0.000000
      0.000762      -0.000013       0.000000
      0.000759      -0.000019       0.000000
      0.000762      -0.000013       0.000000
      0.000814       0.000005       0.000000
      0.000757      -0.000015       0.000000
      0.000762      -0.000013       0.000000
      0.000494       0.000040       0.000000
      0.008830       0.000881       0.000000
      0.000814       0.000005       0.000000
      0.000795      -0.000012       0.000000
      0.000796       0.000002       0.000000
      0.000789       0.000000       0.000000
      0.000787      -0.000013       0.000000
      0.000796       0.000002       0.000000
      0.000799       0.000015       0.000000
      0.000792       0.000014       0.000000
      0.000789       0.000000       0.000000
      0.000787      -0.000013       0.000000
      0.000789       0.000000       0.000000
      0.000783      -0.000002       0.000000
      0.000780      -0.000014       0.000000
      0.000789       0.000000       0.000000
      0.000792       0.000014       0.000000
      0.000787       0.000012       0.000000
      0.000783      -0.000002       0.000000
      0.000849      -0.000035       0.000000
      0.000855      -0.000008       0.000000
      0.000830      -0.000009       0.000000
      0.000827      -0.000035       0.000000
      0.000855      -0.000008       0.000000
      0.000861       0.000027       0.000000
      0.000835       0.000024       0.000000
      0.000830      -0.000009       0.000000
      0.000827      -0.000035       0.000000
      0.000830      -0.000009       0.000000
      0.000811      -0.000010       0.000000
      0.000808      -0.000035       0.000000
      0.000811      -0.000010       0.000000
      0.000812       0.000004       0.000000
      0.000804       0.000003       0.000000
      0.000802      -0.000011       0.000000
      0.000812       0.000004       0.000000
      0.000814       0.000020       0.000000
      0.000806       0.000018       0.000000
      0.000804       0.000003       0.000000
      0.000802      -0.000011       0.000000
      0.000804       0.000003       0.000000
      0.000796       0.000002       0.000000
      0.000795      -0.000012       0.000000
      0.000804       0.000003       0.000000
      0.000806       0.000018       0.000000
      0.000799       0.000015       0.000000
      0.000796       0.000002       0.000000
      0.000830      -0.000009       0.000000
      0.000832       0.000007       0.000000
      0.000822       0.000006       0.000000
      0.000820      -0.000009       0.000000
      0.000832       0.000007       0.000000
      0.000835       0.000024       0.000000
      0.000824       0.000022       0.000000
      0.000822       0.000006       0.000000
      0.000820      -0.000009       0.000000
      0.000822       0.000006       0.000000
      0.000812       0.000004       0.000000
      0.000811      -0.000010       0.000000
      0.000822       0.000006       0.000000
      0.000824       0.000022       0.000000
      0.000814       0.000020       0.000000
      0.000812       0.000004       0.000000
      0.000894      -0.000019       0.000000
      0.000984       0.000027       0.000000
      0.000960      -0.000010       0.000000
      0.000894      -0.000048       0.000000
      0.000984       0.000027       0.000000
      0.001102       0.000104       0.000000
      0.001041       0.000055       0.000000
      0.000960      -0.000010       0.000000
      0.000894      -0.000048       0.000000
      0.000960      -0.000010       0.000000
      0.000904      -0.000030       0.000000
      0.000867      -0.000067       0.000000
      0.000904      -0.000030       0.000000
      0.000923      -0.000002       0.000000
      0.000886      -0.000006       0.000000
      0.000875      -0.000034       0.000000
      0.000923      -0.000002       0.000000
      0.000940       0.000033       0.000000
      0.000896       0.000029       0.000000
      0.000886      -0.000006       0.000000
      0.000875      -0.000034       0.000000
      0.000886      -0.000006       0.000000
      0.000855      -0.000008       0.000000
      0.000849      -0.000035       0.000000
      0.000886      -0.000006       0.000000
      0.000896       0.000029       0.000000
      0.000861       0.000027       0.000000
      0.000855      -0.000008       0.000000
      0.000960      -0.000010       0.000000
      0.000998       0.000018       0.000000
      0.000962       0.000005       0.000000
      0.000934      -0.000022       0.000000
      0.000998       0.000018       0.000000
      0.001041       0.000055       0.000000
      0.000990       0.000041       0.000000
      0.000962       0.000005       0.000000
      0.000934      -0.000022       0.000000
      0.000962       0.000005       0.000000
      0.000923      -0.000002       0.000000
      0.000904      -0.000030       0.000000
      0.000962       0.000005       0.000000
      0.000990       0.000041       0.000000
      0.000940       0.000033       0.000000
      0.000923      -0.000002       0.000000
      0.000761       0.000043       0.000000
      0.000846       0.000095       0.000000
      0.000948       0.000068       0.000000
      0.000852       0.000015       0.000000
      0.000846       0.000095       0.000000
      0.000942       0.000174       0.000000
      0.001067       0.000153       0.000000
      0.000948       0.000068       0.000000
      0.000852       0.000015       0.000000
      0.000948       0.000068       0.000000
      0.000984       0.000027       0.000000
      0.000894      -0.000019       0.000000
      0.000948       0.000068       0.000000
      0.001067       0.000153       0.000000
      0.001102       0.000104       0.000000
      0.000984       0.000027       0.000000
      0.000000       0.000000       0.000000
      0.000000       0.000000       0.000000
      0.000584       0.000212       0.000000
      0.000535       0.000125       0.000000
      0.000000       0.000000       0.000000
      0.000000       0.000000       0.000000
      0.000588       0.000231       0.000000
      0.000584       0.000212       0.000000
      0.000535       0.000125       0.000000
      0.000584       0.000212       0.000000
      0.001123       0.000406       0.000000
      0.000942       0.000174       0.000000
      0.000584       0.000212       0.000000
      0.000588       0.000231       0.000000
      0.001227       0.000455       0.000000
      0.001123       0.000406       0.000000
      0.000000       0.000000       0.000000
      0.000000       0.000000       0.000000
      0.000610       0.000158       0.000000
      0.000588       0.000231       0.000000
      0.000000       0.000000       0.000000
      0.000000       0.000000       0.000000
      0.000663       0.000080       0.000000
      0.000610       0.000158       0.000000
      0.000588       0.000231       0.000000
      0.000610       0.000158       0.000000
      0.001370       0.000258       0.000000
      0.001227       0.000455       0.000000
      0.000610       0.000158       0.000000
      0.000663       0.000080       0.000000
      0.001516       0.000108       0.000000
      0.001370       0.000258       0.000000
      0.000000       0.000000       0.000000
      0.000000       0.000000       0.000000
      0.000711       0.000031       0.000000
      0.000663       0.000080       0.000000
      0.000000       0.000000       0.000000
      0.000000       0.000000       0.000000
      0.000730       0.000000       0.000000
      0.000711       0.000031       0.000000
      0.000663       0.000080       0.000000
      0.000711       0.000031       0.000000
      0.001611       0.000035       0.000000
      0.001516       0.000108       0.000000
      0.000711       0.000031       0.000000
      0.000730       0.000000       0.000000
      0.001642       0.000000       0.000000
      0.001611       0.000035       0.000000
      0.001227       0.000455       0.000000
      0.001370       0.000258       0.000000
      0.002454       0.000243       0.000000
      0.002087       0.000603       0.000000
      0.001370       0.000258       0.000000
      0.001516       0.000108       0.000000
      0.002655       0.000080       0.000000
      0.002454       0.000243       0.000000
      0.002454       0.000243       0.000000
      0.002655       0.000080       0.000000
      0.004115       0.000058       0.000000