# vtk DataFile Version 2.0
time_10.vtk
ASCII
DATASET UNSTRUCTURED_GRID
POINTS  1152 float
      0.000000       0.000000       0.000000
      0.083333       0.000000       0.000000
      0.083333       0.083333       0.000000
      0.000000       0.083333       0.000000
      0.083333       0.000000       0.000000
      0.166667       0.000000       0.000000
      0.166667       0.083333       0.000000
      0.083333       0.083333       0.000000
      0.000000       0.083333       0.000000
      0.083333       0.083333       0.000000
      0.083333       0.166667       0.000000
      0.000000       0.166667       0.000000
      0.083333       0.083333       0.000000
      0.166667       0.083333       0.000000
      0.166667       0.166667       0.000000
      0.083333       0.166667       0.000000
      0.166667       0.000000       0.000000
      0.250000       0.000000       0.000000
      0.250000       0.083333       0.000000
      0.166667       0.083333       0.000000
      0.250000       0.000000       0.000000
      0.333333       0.000000       0.000000
      0.333333       0.083333       0.000000
      0.250000       0.083333       0.000000
      0.166667       0.083333       0.000000
      0.250000       0.083333       0.000000
      0.250000       0.166667       0.000000
      0.166667       0.166667       0.000000
      0.250000       0.083333       0.000000
      0.333333       0.083333       0.000000
      0.333333       0.166667       0.000000
      0.250000       0.166667       0.000000
      0.333333       0.000000       0.000000
      0.416667      -0.000000       0.000000
      0.416667       0.083333       0.000000
      0.333333       0.083333       0.000000
      0.416667      -0.000000       0.000000
      0.500000       0.000000       0.000000
      0.500000       0.083333       0.000000
      0.416667       0.083333       0.000000
      0.333333       0.083333       0.000000
      0.416667       0.083333       0.000000
      0.416667       0.166667       0.000000
      0.333333       0.166667       0.000000
      0.416667       0.083333       0.000000
      0.500000       0.083333       0.000000
      0.500000       0.166667       0.000000
      0.416667       0.166667       0.000000
      0.000000       0.166667       0.000000
      0.083333       0.166667       0.000000
      0.083333       0.250000       0.000000
      0.000000       0.250000       0.000000
      0.083333       0.166667       0.000000
      0.166667       0.166667       0.000000
      0.166667       0.250000       0.000000
      0.083333       0.250000       0.000000
      0.000000       0.250000       0.000000
      0.083333       0.250000       0.000000
      0.083333       0.333333       0.000000
      0.000000       0.333333       0.000000
      0.083333       0.250000       0.000000
      0.166667       0.250000       0.000000
      0.166667       0.333333       0.000000
      0.083333       0.333333       0.000000
      0.166667       0.166667       0.000000
      0.250000       0.166667       0.000000
      0.250000       0.250000       0.000000
      0.166667       0.250000       0.000000
      0.250000       0.166667       0.000000
      0.333333       0.166667       0.000000
      0.333333       0.250000       0.000000
      0.250000       0.250000       0.000000
      0.166667       0.250000       0.000000
      0.250000       0.250000       0.000000
      0.250000       0.333333       0.000000
      0.166667       0.333333       0.000000
      0.250000       0.250000       0.000000
      0.333333       0.250000       0.000000
      0.333333       0.333333       0.000000
      0.250000       0.333333       0.000000
      0.333333       0.166667       0.000000
      0.416667       0.166667       0.000000
      0.416667       0.250000       0.000000
      0.333333       0.250000       0.000000
      0.416667       0.166667       0.000000
      0.500000       0.166667       0.000000
      0.500000       0.250000       0.000000
      0.416667       0.250000       0.000000
      0.333333       0.250000       0.000000
      0.416667       0.250000       0.000000
      0.416667       0.333333       0.000000
      0.333333       0.333333       0.000000
      0.416667       0.250000       0.000000
      0.500000       0.250000       0.000000
      0.500000       0.333333       0.000000
      0.416667       0.333333       0.000000
      0.000000       0.333333       0.000000
      0.083333       0.333333       0.000000
      0.083333       0.416667       0.000000
     -0.000000       0.416667       0.000000
      0.083333       0.333333       0.000000
      0.166667       0.333333       0.000000
      0.166667       0.416667       0.000000
      0.083333       0.416667       0.000000
     -0.000000       0.416667       0.000000
      0.083333       0.416667       0.000000
      0.083333       0.500000       0.000000
      0.000000       0.500000       0.000000
      0.083333       0.416667       0.000000
      0.166667       0.416667       0.000000
      0.166667       0.500000       0.000000
      0.083333       0.500000       0.000000
      0.166667       0.333333       0.000000
      0.250000       0.333333       0.000000
      0.250000       0.416667       0.000000
      0.166667       0.416667       0.000000
      0.250000       0.333333       0.000000
      0.333333       0.333333       0.000000
      0.333333       0.416667       0.000000
      0.250000       0.416667       0.000000
      0.166667       0.416667       0.000000
      0.250000       0.416667       0.000000
      0.250000       0.500000       0.000000
      0.166667       0.500000       0.000000
      0.250000       0.416667       0.000000
      0.333333       0.416667       0.000000
      0.333333       0.500000       0.000000
      0.250000       0.500000       0.000000
      0.333333       0.333333       0.000000
      0.375000       0.333333       0.000000
      0.375000       0.375000       0.000000
      0.333333       0.375000       0.000000
      0.375000       0.333333       0.000000
      0.416667       0.333333       0.000000
      0.416667       0.375000       0.000000
      0.375000       0.375000       0.000000
      0.333333       0.375000       0.000000
      0.375000       0.375000       0.000000
      0.375000       0.416667       0.000000
      0.333333       0.416667       0.000000
      0.375000       0.375000       0.000000
      0.416667       0.375000       0.000000
      0.416667       0.416667       0.000000
      0.375000       0.416667       0.000000
      0.416667       0.333333       0.000000
      0.458333       0.333333       0.000000
      0.458333       0.375000       0.000000
      0.416667       0.375000       0.000000
      0.458333       0.333333       0.000000
      0.500000       0.333333       0.000000
      0.500000       0.375000       0.000000
      0.458333       0.375000       0.000000
      0.416667       0.375000       0.000000
      0.458333       0.375000       0.000000
      0.458333       0.416667       0.000000
      0.416667       0.416667       0.000000
      0.458333       0.375000       0.000000
      0.500000       0.375000       0.000000
      0.500000       0.416667       0.000000
      0.458333       0.416667       0.000000
      0.333333       0.416667       0.000000
      0.375000       0.416667       0.000000
      0.375000       0.458333       0.000000
      0.333333       0.458333       0.000000
      0.375000       0.416667       0.000000
      0.416667       0.416667       0.000000
      0.416667       0.458333       0.000000
      0.375000       0.458333       0.000000
      0.333333       0.458333       0.000000
      0.375000       0.458333       0.000000
      0.375000       0.500000       0.000000
      0.333333       0.500000       0.000000
      0.375000       0.458333       0.000000
      0.416667       0.458333       0.000000
      0.416667       0.500000       0.000000
      0.375000       0.500000       0.000000
      0.416667       0.416667       0.000000
      0.437500       0.416667       0.000000
      0.437500       0.437500       0.000000
      0.416667       0.437500       0.000000
      0.437500       0.416667       0.000000
      0.458333       0.416667       0.000000
      0.458333       0.437500       0.000000
      0.437500       0.437500       0.000000
      0.416667       0.437500       0.000000
      0.437500       0.437500       0.000000
      0.437500       0.458333       0.000000
      0.416667       0.458333       0.000000
      0.437500       0.437500       0.000000
      0.458333       0.437500       0.000000
      0.458333       0.458333       0.000000
      0.437500       0.458333       0.000000
      0.458333       0.416667       0.000000
      0.479167       0.416667       0.000000
      0.479167       0.437500       0.000000
      0.458333       0.437500       0.000000
      0.479167       0.416667       0.000000
      0.500000       0.416667       0.000000
      0.500000       0.437500       0.000000
      0.479167       0.437500       0.000000
      0.458333       0.437500       0.000000
      0.479167       0.437500       0.000000
      0.479167       0.458333       0.000000
      0.458333       0.458333       0.000000
      0.479167       0.437500       0.000000
      0.500000       0.437500       0.000000
      0.500000       0.458333       0.000000
      0.479167       0.458333       0.000000
      0.416667       0.458333       0.000000
      0.437500       0.458333       0.000000
      0.437500       0.479167       0.000000
      0.416667       0.479167       0.000000
      0.437500       0.458333       0.000000
      0.458333       0.458333       0.000000
      0.458333       0.479167       0.000000
      0.437500       0.479167       0.000000
      0.416667       0.479167       0.000000
      0.437500       0.479167       0.000000
      0.437500       0.500000       0.000000
      0.416667       0.500000       0.000000
[...]
POINT_DATA  1152
VECTORS U float 
      0.000000       0.000000       0.000000
      0.000000       0.000000       0.000000
      0.000506       0.000020       0.000000
      0.000504       0.000000       0.000000
      0.000000       0.000000       0.000000
      0.000000       0.000000       0.000000
      0.000511       0.000041       0.000000
      0.000506       0.000020       0.000000
      0.000504       0.000000       0.000000
      0.000506       0.000020       0.000000
      0.000949       0.000036       0.000000
      0.000944       0.000000       0.000000
      0.000506       0.000020       0.000000
      0.000511       0.000041       0.000000
      0.000965       0.000076       0.000000
      0.000949       0.000036       0.000000
      0.000000       0.000000       0.000000
      0.000000       0.000000       0.000000
      0.000516       0.000063       0.000000
      0.000511       0.000041       0.000000
      0.000000       0.000000       0.000000
      0.000000       0.000000       0.000000
      0.000519       0.000082       0.000000
      0.000516       0.000063       0.000000
      0.000511       0.000041       0.000000
      0.000516       0.000063       0.000000
      0.000987       0.000119       0.000000
      0.000965       0.000076       0.000000
      0.000516       0.000063       0.000000
      0.000519       0.000082       0.000000
      0.001008       0.000161       0.000000
      0.000987       0.000119       0.000000
      0.000000       0.000000       0.000000
      0.000000       0.000000       0.000000
      0.000516       0.000095       0.000000
      0.000519       0.000082       0.000000
      0.000000       0.000000       0.000000
      0.000000       0.000000       0.000000
      0.000511       0.000094       0.000000
      0.000516       0.000095       0.000000
      0.000519       0.000082       0.000000
      0.000516       0.000095       0.000000
      0.001021       0.000189       0.000000
      0.001008       0.000161       0.000000
      0.000516       0.000095       0.000000
      0.000511       0.000094       0.000000
      0.001030       0.000188       0.000000
      0.001021       0.000189       0.000000
      0.000944       0.000000       0.000000
      0.000949       0.000036       0.000000
      0.001319       0.000045       0.000000
      0.001308       0.000000       0.000000
      0.000949       0.000036       0.000000
      0.000965       0.000076       0.000000
      0.001353       0.000096       0.000000
      0.001319       0.000045       0.000000
      0.001308       0.000000       0.000000
      0.001319       0.000045       0.000000
      0.001599       0.000043       0.000000
      0.001580       0.000000       0.000000
      0.001319       0.000045       0.000000
      0.001353       0.000096       0.000000
      0.001653       0.000094       0.000000
      0.001599       0.000043       0.000000
      0.000965       0.000076       0.000000
      0.000987       0.000119       0.000000
      0.001404       0.000156       0.000000
      0.001353       0.000096       0.000000
      0.000987       0.000119       0.000000
      0.001008       0.000161       0.000000
      0.001463       0.000222       0.000000
      0.001404       0.000156       0.000000
      0.001353       0.000096       0.000000
      0.001404       0.000156       0.000000
      0.001744       0.000161       0.000000
      0.001653       0.000094       0.000000
      0.001404       0.000156       0.000000
      0.001463       0.000222       0.000000
      0.001864       0.000247       0.000000
      0.001744       0.000161       0.000000
      0.001008       0.000161       0.000000
      0.001021       0.000189       0.000000
      0.001516       0.000275       0.000000
      0.001463       0.000222       0.000000
      0.001021       0.000189       0.000000
      0.001030       0.000188       0.000000
      0.001559       0.000276       0.000000
      0.001516       0.000275       0.000000
      0.001463       0.000222       0.000000
      0.001516       0.000275       0.000000
      0.001995       0.000337       0.000000
      0.001864       0.000247       0.000000
      0.001516       0.000275       0.000000
      0.001559       0.000276       0.000000
      0.002107       0.000354       0.000000
      0.001995       0.000337       0.000000
      0.001580       0.000000       0.000000
      0.001599       0.000043       0.000000
      0.001768       0.000029       0.000000
      0.001745       0.000000       0.000000
      0.001599       0.000043       0.000000
      0.001653       0.000094       0.000000
      0.001840       0.000068       0.000000
      0.001768       0.000029       0.000000
      0.001745       0.000000       0.000000
      0.001768       0.000029       0.000000
      0.001817       0.000010       0.000000
      0.001794       0.000000       0.000000
      0.001768       0.000029       0.000000
      0.001840       0.000068       0.000000
      0.001889       0.000026       0.000000
      0.001817       0.000010       0.000000
      0.001653       0.000094       0.000000
      0.001744       0.000161       0.000000
      0.001965       0.000124       0.000000
      0.001840       0.000068       0.000000
      0.001744       0.000161       0.000000
      0.001864       0.000247       0.000000
      0.002157       0.000209       0.000000
      0.001965       0.000124       0.000000
      0.001840       0.000068       0.000000
      0.001965       0.000124       0.000000
      0.002020       0.000056       0.000000
      0.001889       0.000026       0.000000
      0.001965       0.000124       0.000000
      0.002157       0.000209       0.000000
      0.002235       0.000106       0.000000
      0.002020       0.000056       0.000000
      0.001864       0.000247       0.000000
      0.001930       0.000295       0.000000
      0.002123       0.000292       0.000000
      0.002030       0.000238       0.000000
      0.001930       0.000295       0.000000
      0.001995       0.000337       0.000000
      0.002222       0.000348       0.000000
      0.002123       0.000292       0.000000
      0.002030       0.000238       0.000000
      0.002123       0.000292       0.000000
      0.002280       0.000266       0.000000
      0.002157       0.000209       0.000000
      0.002123       0.000292       0.000000
      0.002222       0.000348       0.000000
      0.002423       0.000333       0.000000
      0.002280       0.000266       0.000000
      0.001995       0.000337       0.000000
      0.002054       0.000362       0.000000
      0.002315       0.000390       0.000000
      0.002222       0.000348       0.000000
      0.002054       0.000362       0.000000
      0.002107       0.000354       0.000000
      0.002397       0.000387       0.000000
      0.002315       0.000390       0.000000
      0.002222       0.000348       0.000000
      0.002315       0.000390       0.000000
      0.002574       0.000402       0.000000
      0.002423       0.000333       0.000000
      0.002315       0.000390       0.000000
      0.002397       0.000387       0.000000
      0.002710       0.000415       0.000000
      0.002574       0.000402       0.000000
      0.002157       0.000209       0.000000
      0.002280       0.000266       0.000000
      0.002377       0.000212       0.000000
      0.002229       0.000162       0.000000
      0.002280       0.000266       0.000000
      0.002423       0.000333       0.000000
      0.002565       0.000277       0.000000
      0.002377       0.000212       0.000000
      0.002229       0.000162       0.000000
      0.002377       0.000212       0.000000
      0.002388       0.000140       0.000000
      0.002235       0.000106       0.000000
      0.002377       0.000212       0.000000
      0.002565       0.000277       0.000000
      0.002590       0.000182       0.000000
      0.002388       0.000140       0.000000
      0.002423       0.000333       0.000000
      0.002499       0.000369       0.000000
      0.002599       0.000351       0.000000
      0.002505       0.000311       0.000000
      0.002499       0.000369       0.000000
      0.002574       0.000402       0.000000
      0.002698       0.000394       0.000000
      0.002599       0.000351       0.000000
      0.002505       0.000311       0.000000
      0.002599       0.000351       0.000000
      0.002678       0.000318       0.000000
      0.002565       0.000277       0.000000
      0.002599       0.000351       0.000000
      0.002698       0.000394       0.000000
      0.002808       0.000368       0.000000
      0.002678       0.000318       0.000000
      0.002574       0.000402       0.000000
      0.002645       0.000421       0.000000
      0.002795       0.000427       0.000000
      0.002698       0.000394       0.000000
      0.002645       0.000421       0.000000
      0.002710       0.000415       0.000000
      0.002885       0.000426       0.000000
      0.002795       0.000427       0.000000
      0.002698       0.000394       0.000000
      0.002795       0.000427       0.000000
      0.002949       0.000422       0.000000
      0.002808       0.000368       0.000000
      0.002795       0.000427       0.000000
      0.002885       0.000426       0.000000
      0.003085       0.000434       0.000000
      0.002949       0.000422       0.000000
      0.002565       0.000277       0.000000
      0.002678       0.000318       0.000000
      0.002723       0.000267       0.000000
      0.002595       0.000232       0.000000
      0.002678       0.000318       0.000000
      0.002808       0.000368       0.000000
      0.002883       0.000313       0.000000
      0.002723       0.000267       0.000000
      0.002595       0.000232       0.000000
      0.002723       0.000267       0.000000
      0.002722       0.000206       0.000000
      0.002590       0.000182       0.000000
      0.002723       0.000267       0.000000
      0.002883       0.000313       0.000000
      0.002892       0.000232       0.000000
      0.002722       0.000206       0.000000
      0.002808       0.000368       0.000000
      0.002878       0.000396       0.000000
      0.002936       0.000376       0.000000
      0.002852       0.000345       0.000000
      0.002878       0.000396       0.000000
      0.002949       0.000422       0.000000
      0.003026       0.000410       0.000000
      0.002936       0.000376       0.000000
      0.002852       0.000345       0.000000
      0.002936       0.000376       0.000000
      0.002982       0.000345       0.000000
      0.002883       0.000313       0.000000
      0.002936       0.000376       0.000000
      0.003026       0.000410       0.000000
      0.003098       0.000385       0.000000
      0.002982       0.000345       0.000000
      0.002949       0.000422       0.000000
      0.003018       0.000438       0.000000
      0.003117       0.000437       0.000000
      0.003026       0.000410       0.000000
      0.003018       0.000438       0.000000
      0.003085       0.000434       0.000000
      0.003205       0.000436       0.000000
      0.003117       0.000437       0.000000
      0.003026       0.000410       0.000000
      0.003117       0.000437       0.000000
      0.003227       0.000429       0.000000
      0.003098       0.000385       0.000000
      0.003117       0.000437       0.000000
      0.003205       0.000436       0.000000
      0.003355       0.000434       0.000000
      0.003227       0.000429       0.000000
      0.002883       0.000313       0.000000
      0.002982       0.000345       0.000000
      0.003007       0.000300       0.000000
      0.002897       0.000274       0.000000
      0.002982       0.000345       0.000000
      0.003098       0.000385       0.000000
      0.003151       0.000336       0.000000
      0.003007       0.000300       0.000000
      0.002897       0.000274       0.000000
      0.003007       0.000300       0.000000
      0.003006       0.000245       0.000000
      0.002892       0.000232       0.000000
      0.003007       0.000300       0.000000
      0.003151       0.000336       0.000000
      0.003161       0.000260       0.000000
      0.003006       0.000245       0.000000
      0.003098       0.000385       0.000000
      0.003227       0.000429       0.000000
      0.003352       0.000399       0.000000
      0.003151       0.000336       0.000000
      0.003227       0.000429       0.000000
      0.003355       0.000434       0.000000
      0.003584       0.000423       0.000000
      0.003352       0.000399       0.000000
      0.003151       0.000336       0.000000
      0.003352       0.000399       0.000000
      0.003422       0.000279       0.000000
      0.003161       0.000260       0.000000
      0.003352       0.000399       0.000000
      0.003584       0.000423       0.000000
      0.004312       0.000340       0.000000
      0.003422       0.000279       0.000000
      0.000000       0.000000       0.000000
      0.000000       0.000000       0.000000
      0.000510       0.000080       0.000000
      0.000511       0.000094       0.000000
      0.000000       0.000000       0.000000
      0.000000       0.000000       0.000000
      0.000518       0.000058       0.000000
      0.000510       0.000080       0.000000
      0.000511       0.000094       0.000000
      0.000510       0.000080       0.000000
      0.001046       0.000154       0.000000
      0.001030       0.000188       0.000000
      0.000510       0.000080       0.000000
      0.000518       0.000058       0.000000
      0.001075       0.000104       0.000000
      0.001046       0.000154       0.000000
      0.000000       0.000000       0.000000
      0.000000       0.000000       0.000000
      0.000533       0.000037       0.000000
      0.000518       0.000058       0.000000
      0.000000       0.000000       0.000000
      0.000000       0.000000       0.000000
      0.000550       0.000020       0.000000
      0.000533       0.000037       0.000000
      0.000518       0.000058       0.000000
      0.000533       0.000037       0.000000
      0.001112       0.000059       0.000000
      0.001075       0.000104       0.000000
      0.000533       0.000037       0.000000
      0.000550       0.000020       0.000000
      0.001147       0.000029       0.000000
      0.001112       0.000059       0.000000
      0.000000       0.000000       0.000000
      0.000000       0.000000       0.000000
      0.000562       0.000009       0.000000
      0.000550       0.000020       0.000000
      0.000000       0.000000       0.000000
      0.000000       0.000000       0.000000
      0.000566       0.000000       0.000000
      0.000562       0.000009       0.000000
      0.000550       0.000020       0.000000
      0.000562       0.000009       0.000000
      0.001171       0.000011       0.000000
      0.001147       0.000029       0.000000
      0.000562       0.000009       0.000000
      0.000566       0.000000       0.000000
      0.001179       0.000000       0.000000
      0.001171       0.000011       0.000000
      0.001030       0.000188       0.000000
      0.001046       0.000154       0.000000
      0.001609       0.000213       0.000000
      0.001559       0.000276       0.000000
      0.001046       0.000154       0.000000
      0.001075       0.000104       0.000000
      0.001677       0.000126       0.000000
      0.001609       0.000213       0.000000
      0.001559       0.000276       0.000000
      0.001609       0.000213       0.000000
      0.002223       0.000240       0.000000
      0.002107       0.000354       0.000000
      0.001609       0.000213       0.000000
      0.001677       0.000126       0.000000
      0.002356       0.000110       0.000000
      0.002223       0.000240       0.000000
      0.001075       0.000104       0.000000
      0.001112       0.000059       0.000000
      0.001748       0.000060       0.000000
      0.001677       0.000126       0.000000
      0.001112       0.000059       0.000000
      0.001147       0.000029       0.000000
      0.001804       0.000023       0.000000
      0.001748       0.000060       0.000000
      0.001677       0.000126       0.000000
      0.001748       0.000060       0.000000
      0.002464       0.000034       0.000000
      0.002356       0.000110       0.000000
      0.001748       0.000060       0.000000
      0.001804       0.000023       0.000000
      0.002536       0.000002       0.000000
      0.002464       0.000034       0.000000
      0.001147       0.000029       0.000000
      0.001171       0.000011       0.000000
      0.001839       0.000006       0.000000
      0.001804       0.000023       0.000000
      0.001171       0.000011       0.000000
      0.001179       0.000000       0.000000
      0.001851       0.000000       0.000000
      0.001839       0.000006       0.000000
      0.001804       0.000023       0.000000
      0.001839       0.000006       0.000000
      0.002576      -0.000005       0.000000
      0.002536       0.000002       0.000000
      0.001839       0.000006       0.000000
      0.001851       0.000000       0.000000
      0.002589       0.000000       0.000000
      0.002576      -0.000005       0.000000
      0.002356       0.000110       0.000000
      0.002464       0.000034       0.000000
      0.003295      -0.000012       0.000000
      0.003186       0.000046       0.000000
      0.002464       0.000034       0.000000
      0.002536       0.000002       0.000000
      0.003352      -0.000025       0.000000
      0.003295      -0.000012       0.000000
      0.003186       0.000046       0.000000
      0.003295      -0.000012       0.000000
      0.004232      -0.000036       0.000000
      0.004235      -0.000005       0.000000
      0.003295      -0.000012       0.000000
      0.003352      -0.000025       0.000000
      0.004230      -0.000038       0.000000
      0.004232      -0.000036       0.000000
      0.002536       0.000002       0.000000
      0.002576      -0.000005       0.000000
      0.003380      -0.000017       0.000000
      0.003352      -0.000025       0.000000
      0.002576      -0.000005       0.000000
      0.002589       0.000000       0.000000
      0.003389       0.000000       0.000000
      0.003380      -0.000017       0.000000
      0.003352      -0.000025       0.000000
      0.003380      -0.000017       0.000000
      0.004229      -0.000022       0.000000
      0.004230      -0.000038       0.000000
      0.003380      -0.000017       0.000000
      0.003389       0.000000       0.000000
      0.004229       0.000000       0.000000
      0.004229      -0.000022       0.000000
      0.002107       0.000354       0.000000
      0.002162       0.000308       0.000000
      0.002480       0.000324       0.000000
      0.002397       0.000387       0.000000
      0.002162       0.000308       0.000000
      0.002223       0.000240       0.000000
      0.002572       0.000231       0.000000
      0.002480       0.000324       0.000000
      0.002397       0.000387       0.000000
      0.002480       0.000324       0.000000
      0.002844       0.000319       0.000000
      0.002710       0.000415       0.000000
      0.002480       0.000324       0.000000
      0.002572       0.000231       0.000000
      0.002983       0.000196       0.000000
      0.002844       0.000319       0.000000
      0.002223       0.000240       0.000000
      0.002290       0.000170       0.000000
      0.002664       0.000147       0.000000
      0.002572       0.000231       0.000000
      0.002290       0.000170       0.000000
      0.002356       0.000110       0.000000
      0.002745       0.000083       0.000000
      0.002664       0.000147       0.000000
      0.002572       0.000231       0.000000
      0.002664       0.000147       0.000000
      0.003100       0.000104       0.000000