# vtk DataFile Version 2.0
time_10.vtk
ASCII
DATASET UNSTRUCTURED_GRID
POINTS  2628 float
      0.000000       0.000000       0.000000
      0.083333       0.000000       0.000000
      0.083333       0.083333       0.000000
      0.000000       0.083333       0.000000
      0.083333       0.000000       0.000000
      0.166667       0.000000       0.000000
      0.166667       0.083333       0.000000
      0.083333       0.083333       0.000000
      0.000000       0.083333       0.000000
      0.083333       0.083333       0.000000
      0.083333       0.166667       0.000000
      0.000000       0.166667       0.000000
      0.083333       0.083333       0.000000
      0.166667       0.083333       0.000000
      0.166667       0.166667       0.000000
      0.083333       0.166667       0.000000
      0.166667       0.000000       0.000000
      0.250000       0.000000       0.000000
      0.250000       0.083333       0.000000
      0.166667       0.083333       0.000000
      0.250000       0.000000       0.000000
      0.333333       0.000000       0.000000
      0.333333       0.083333       0.000000
      0.250000       0.083333       0.000000
      0.166667       0.083333       0.000000
      0.250000       0.083333       0.000000
      0.250000       0.166667       0.000000
      0.166667       0.166667       0.000000
      0.250000       0.083333       0.000000
      0.333333       0.083333       0.000000
      0.333333       0.166667       0.000000
      0.250000       0.166667       0.000000
      0.333333       0.000000       0.000000
      0.416667      -0.000000       0.000000
      0.416667       0.083333       0.000000
      0.333333       0.083333       0.000000
      0.416667      -0.000000       0.000000
      0.500000       0.000000       0.000000
      0.500000       0.083333       0.000000
      0.416667       0.083333       0.000000
      0.333333       0.083333       0.000000
      0.416667       0.083333       0.000000
      0.416667       0.166667       0.000000
      0.333333       0.166667       0.000000
      0.416667       0.083333       0.000000
      0.500000       0.083333       0.000000
      0.500000       0.166667       0.000000
      0.416667       0.166667       0.000000
      0.000000       0.166667       0.000000
      0.083333       0.166667       0.000000
      0.083333       0.250000       0.000000
      0.000000       0.250000       0.000000
      0.083333       0.166667       0.000000
      0.166667       0.166667       0.000000
      0.166667       0.250000       0.000000
      0.083333       0.250000       0.000000
      0.000000       0.250000       0.000000
      0.083333       0.250000       0.000000
      0.083333       0.333333       0.000000
      0.000000       0.333333       0.000000
      0.083333       0.250000       0.000000
      0.166667       0.250000       0.000000
      0.166667       0.333333       0.000000
      0.083333       0.333333       0.000000
      0.166667       0.166667       0.000000
      0.250000       0.166667       0.000000
      0.250000       0.250000       0.000000
      0.166667       0.250000       0.000000
      0.250000       0.166667       0.000000
      0.333333       0.166667       0.000000
      0.333333       0.250000       0.000000
      0.250000       0.250000       0.000000
      0.166667       0.250000       0.000000
      0.250000       0.250000       0.000000
      0.250000       0.333333       0.000000
      0.166667       0.333333       0.000000
      0.250000       0.250000       0.000000
      0.333333       0.250000       0.000000
      0.333333       0.333333       0.000000
      0.250000       0.333333       0.000000
      0.333333       0.166667       0.000000
      0.416667       0.166667       0.000000
      0.416667       0.250000       0.000000
      0.333333       0.250000       0.000000
      0.333333       0.250000       0.000000
      0.416667       0.250000       0.000000
      0.416667       0.333333       0.000000
      0.333333       0.333333       0.000000
      0.000000       0.333333       0.000000
      0.083333       0.333333       0.000000
      0.083333       0.416667       0.000000
     -0.000000       0.416667       0.000000
      0.083333       0.333333       0.000000
      0.166667       0.333333       0.000000
      0.166667       0.416667       0.000000
      0.083333       0.416667       0.000000
     -0.000000       0.416667       0.000000
      0.083333       0.416667       0.000000
      0.083333       0.500000       0.000000
      0.000000       0.500000       0.000000
      0.083333       0.416667       0.000000
      0.166667       0.416667       0.000000
      0.166667       0.500000       0.000000
      0.083333       0.500000       0.000000
      0.166667       0.333333       0.000000
      0.250000       0.333333       0.000000
      0.250000       0.416667       0.000000
      0.166667       0.416667       0.000000
      0.250000       0.333333       0.000000
      0.333333       0.333333       0.000000
      0.333333       0.416667       0.000000
      0.250000       0.416667       0.000000
      0.166667       0.416667       0.000000
      0.250000       0.416667       0.000000
      0.250000       0.500000       0.000000
      0.166667       0.500000       0.000000
      0.250000       0.416667       0.000000
      0.333333       0.416667       0.000000
      0.333333       0.500000       0.000000
      0.250000       0.500000       0.000000
      0.333333       0.333333       0.000000
      0.375000       0.333333       0.000000
      0.375000       0.375000       0.000000
      0.333333       0.375000       0.000000
      0.375000       0.333333       0.000000
      0.416667       0.333333       0.000000
      0.416667       0.375000       0.000000
      0.375000       0.375000       0.000000
      0.333333       0.375000       0.000000
      0.375000       0.375000       0.000000
      0.375000       0.416667       0.000000
      0.333333       0.416667       0.000000
      0.375000       0.375000       0.000000
      0.416667       0.375000       0.000000
      0.416667       0.416667       0.000000
      0.375000       0.416667       0.000000
      0.416667       0.333333       0.000000
      0.458333       0.333333       0.000000
      0.458333       0.375000       0.000000
      0.416667       0.375000       0.000000
      0.416667       0.375000       0.000000
      0.458333       0.375000       0.000000
      0.458333       0.416667       0.000000
      0.416667       0.416667       0.000000
      0.333333       0.416667       0.000000
      0.375000       0.416667       0.000000
      0.375000       0.458333       0.000000
      0.333333       0.458333       0.000000
      0.375000       0.416667       0.000000
      0.416667       0.416667       0.000000
      0.416667       0.458333       0.000000
      0.375000       0.458333       0.000000
      0.333333       0.458333       0.000000
      0.375000       0.458333       0.000000
      0.375000       0.500000       0.000000
      0.333333       0.500000       0.000000
      0.375000       0.458333       0.000000
      0.416667       0.458333       0.000000
      0.416667       0.500000       0.000000
      0.375000       0.500000       0.000000
      0.416667       0.416667       0.000000
      0.437500       0.416667       0.000000
      0.437500       0.437500       0.000000
      0.416667       0.437500       0.000000
      0.437500       0.416667       0.000000
      0.458333       0.416667       0.000000
      0.458333       0.437500       0.000000
      0.437500       0.437500       0.000000
      0.416667       0.437500       0.000000
      0.437500       0.437500       0.000000
      0.437500       0.458333       0.000000
      0.416667       0.458333       0.000000
      0.437500       0.437500       0.000000
      0.458333       0.437500       0.000000
      0.458333       0.458333       0.000000
      0.437500       0.458333       0.000000
      0.458333       0.416667       0.000000
      0.479167       0.416667       0.000000
      0.479167       0.437500       0.000000
      0.458333       0.437500       0.000000
      0.458333       0.437500       0.000000
      0.479167       0.437500       0.000000
      0.479167       0.458333       0.000000
      0.458333       0.458333       0.000000
      0.416667       0.458333       0.000000
      0.437500       0.458333       0.000000
      0.437500       0.479167       0.000000
      0.416667       0.479167       0.000000
      0.437500       0.458333       0.000000
      0.458333       0.458333       0.000000
      0.458333       0.479167       0.000000
      0.437500       0.479167       0.000000
      0.416667       0.479167       0.000000
      0.437500       0.479167       0.000000
      0.437500       0.500000       0.000000
      0.416667       0.500000       0.000000
      0.437500       0.479167       0.000000
      0.458333       0.479167       0.000000
      0.458333       0.500000       0.000000
      0.437500       0.500000       0.000000
      0.458333       0.458333       0.000000
      0.468750       0.458333       0.000000
      0.468750       0.468750       0.000000
      0.458333       0.468750       0.000000
      0.468750       0.458333       0.000000
      0.479167       0.458333       0.000000
      0.479167       0.468750       0.000000
      0.468750       0.468750       0.000000
      0.458333       0.468750       0.000000
      0.468750       0.468750       0.000000
      0.468750       0.479167       0.000000
      0.458333       0.479167       0.000000
      0.468750       0.468750       0.000000
      0.479167       0.468750       0.000000
      0.479167       0.479167       0.000000
      0.468750       0.479167       0.000000
      0.479167       0.458333       0.000000
      0.489583       0.458333       0.000000
      0.489583       0.468750       0.000000
      0.479167       0.468750       0.000000
[...]
POINT_DATA  2628
VECTORS U float 
      0.000000       0.000000       0.000000
      0.000000       0.000000       0.000000
      0.000084      -0.000002       0.000000
      0.000082       0.000000       0.000000
      0.000000       0.000000       0.000000
      0.000000       0.000000       0.000000
      0.000093      -0.000004       0.000000
      0.000084      -0.000002       0.000000
      0.000082       0.000000       0.000000
      0.000084      -0.000002       0.000000
      0.000159      -0.000007       0.000000
      0.000155       0.000000       0.000000
      0.000084      -0.000002       0.000000
      0.000093      -0.000004       0.000000
      0.000171      -0.000014       0.000000
      0.000159      -0.000007       0.000000
      0.000000       0.000000       0.000000
      0.000000       0.000000       0.000000
      0.000109      -0.000006       0.000000
      0.000093      -0.000004       0.000000
      0.000000       0.000000       0.000000
      0.000000       0.000000       0.000000
      0.000136      -0.000008       0.000000
      0.000109      -0.000006       0.000000
      0.000093      -0.000004       0.000000
      0.000109      -0.000006       0.000000
      0.000194      -0.000023       0.000000
      0.000171      -0.000014       0.000000
      0.000109      -0.000006       0.000000
      0.000136      -0.000008       0.000000
      0.000230      -0.000033       0.000000
      0.000194      -0.000023       0.000000
      0.000000       0.000000       0.000000
      0.000000       0.000000       0.000000
      0.000182      -0.000010       0.000000
      0.000136      -0.000008       0.000000
      0.000000       0.000000       0.000000
      0.000000       0.000000       0.000000
      0.000260      -0.000005       0.000000
      0.000182      -0.000010       0.000000
      0.000136      -0.000008       0.000000
      0.000182      -0.000010       0.000000
      0.000284      -0.000044       0.000000
      0.000230      -0.000033       0.000000
      0.000182      -0.000010       0.000000
      0.000260      -0.000005       0.000000
      0.000365      -0.000051       0.000000
      0.000284      -0.000044       0.000000
      0.000155       0.000000       0.000000
      0.000159      -0.000007       0.000000
      0.000219      -0.000012       0.000000
      0.000215       0.000000       0.000000
      0.000159      -0.000007       0.000000
      0.000171      -0.000014       0.000000
      0.000231      -0.000025       0.000000
      0.000219      -0.000012       0.000000
      0.000215       0.000000       0.000000
      0.000219      -0.000012       0.000000
      0.000265      -0.000017       0.000000
      0.000262       0.000000       0.000000
      0.000219      -0.000012       0.000000
      0.000231      -0.000025       0.000000
      0.000274      -0.000034       0.000000
      0.000265      -0.000017       0.000000
      0.000171      -0.000014       0.000000
      0.000194      -0.000023       0.000000
      0.000252      -0.000040       0.000000
      0.000231      -0.000025       0.000000
      0.000194      -0.000023       0.000000
      0.000230      -0.000033       0.000000
      0.000282      -0.000056       0.000000
      0.000252      -0.000040       0.000000
      0.000231      -0.000025       0.000000
      0.000252      -0.000040       0.000000
      0.000289      -0.000052       0.000000
      0.000274      -0.000034       0.000000
      0.000252      -0.000040       0.000000
      0.000282      -0.000056       0.000000
      0.000308      -0.000070       0.000000
      0.000289      -0.000052       0.000000
      0.000230      -0.000033       0.000000
      0.000284      -0.000044       0.000000
      0.000320      -0.000071       0.000000
      0.000282      -0.000056       0.000000
      0.000282      -0.000056       0.000000
      0.000320      -0.000071       0.000000
      0.000328      -0.000082       0.000000
      0.000308      -0.000070       0.000000
      0.000262       0.000000       0.000000
      0.000265      -0.000017       0.000000
      0.000298      -0.000020       0.000000
      0.000296       0.000000       0.000000
      0.000265      -0.000017       0.000000
      0.000274      -0.000034       0.000000
      0.000304      -0.000040       0.000000
      0.000298      -0.000020       0.000000
      0.000296       0.000000       0.000000
      0.000298      -0.000020       0.000000
      0.000323      -0.000021       0.000000
      0.000321       0.000000       0.000000
      0.000298      -0.000020       0.000000
      0.000304      -0.000040       0.000000
      0.000327      -0.000042       0.000000
      0.000323      -0.000021       0.000000
      0.000274      -0.000034       0.000000
      0.000289      -0.000052       0.000000
      0.000313      -0.000059       0.000000
      0.000304      -0.000040       0.000000
      0.000289      -0.000052       0.000000
      0.000308      -0.000070       0.000000
      0.000323      -0.000076       0.000000
      0.000313      -0.000059       0.000000
      0.000304      -0.000040       0.000000
      0.000313      -0.000059       0.000000
      0.000332      -0.000063       0.000000
      0.000327      -0.000042       0.000000
      0.000313      -0.000059       0.000000
      0.000323      -0.000076       0.000000
      0.000336      -0.000079       0.000000
      0.000332      -0.000063       0.000000
      0.000308      -0.000070       0.000000
      0.000318      -0.000077       0.000000
      0.000324      -0.000080       0.000000
      0.000316      -0.000073       0.000000
      0.000318      -0.000077       0.000000
      0.000328      -0.000082       0.000000
      0.000331      -0.000084       0.000000
      0.000324      -0.000080       0.000000
      0.000316      -0.000073       0.000000
      0.000324      -0.000080       0.000000
      0.000329      -0.000082       0.000000
      0.000323      -0.000076       0.000000
      0.000324      -0.000080       0.000000
      0.000331      -0.000084       0.000000
      0.000334      -0.000085       0.000000
      0.000329      -0.000082       0.000000
      0.000328      -0.000082       0.000000
      0.000337      -0.000084       0.000000
      0.000337      -0.000084       0.000000
      0.000331      -0.000084       0.000000
      0.000331      -0.000084       0.000000
      0.000337      -0.000084       0.000000
      0.000338      -0.000085       0.000000
      0.000334      -0.000085       0.000000
      0.000323      -0.000076       0.000000
      0.000329      -0.000082       0.000000
      0.000334      -0.000083       0.000000
      0.000330      -0.000078       0.000000
      0.000329      -0.000082       0.000000
      0.000334      -0.000085       0.000000
      0.000337      -0.000086       0.000000
      0.000334      -0.000083       0.000000
      0.000330      -0.000078       0.000000
      0.000334      -0.000083       0.000000
      0.000338      -0.000085       0.000000
      0.000336      -0.000079       0.000000
      0.000334      -0.000083       0.000000
      0.000337      -0.000086       0.000000
      0.000340      -0.000088       0.000000
      0.000338      -0.000085       0.000000
      0.000334      -0.000085       0.000000
      0.000336      -0.000086       0.000000
      0.000337      -0.000086       0.000000
      0.000335      -0.000086       0.000000
      0.000336      -0.000086       0.000000
      0.000338      -0.000085       0.000000
      0.000340      -0.000086       0.000000
      0.000337      -0.000086       0.000000
      0.000335      -0.000086       0.000000
      0.000337      -0.000086       0.000000
      0.000339      -0.000087       0.000000
      0.000337      -0.000086       0.000000
      0.000337      -0.000086       0.000000
      0.000340      -0.000086       0.000000
      0.000341      -0.000086       0.000000
      0.000339      -0.000087       0.000000
      0.000338      -0.000085       0.000000
      0.000341      -0.000084       0.000000
      0.000342      -0.000084       0.000000
      0.000340      -0.000086       0.000000
      0.000340      -0.000086       0.000000
      0.000342      -0.000084       0.000000
      0.000344      -0.000085       0.000000
      0.000341      -0.000086       0.000000
      0.000337      -0.000086       0.000000
      0.000339      -0.000087       0.000000
      0.000340      -0.000087       0.000000
      0.000339      -0.000087       0.000000
      0.000339      -0.000087       0.000000
      0.000341      -0.000086       0.000000
      0.000343      -0.000087       0.000000
      0.000340      -0.000087       0.000000
      0.000339      -0.000087       0.000000
      0.000340      -0.000087       0.000000
      0.000341      -0.000088       0.000000
      0.000340      -0.000088       0.000000
      0.000340      -0.000087       0.000000
      0.000343      -0.000087       0.000000
      0.000344      -0.000088       0.000000
      0.000341      -0.000088       0.000000
      0.000341      -0.000086       0.000000
      0.000342      -0.000086       0.000000
      0.000343      -0.000087       0.000000
      0.000342      -0.000087       0.000000
      0.000342      -0.000086       0.000000
      0.000344      -0.000085       0.000000
      0.000345      -0.000086       0.000000
      0.000343      -0.000087       0.000000
      0.000342      -0.000087       0.000000
      0.000343      -0.000087       0.000000
      0.000344      -0.000087       0.000000
      0.000343      -0.000087       0.000000
      0.000343      -0.000087       0.000000
      0.000345      -0.000086       0.000000
      0.000346      -0.000087       0.000000
      0.000344      -0.000087       0.000000
      0.000344      -0.000085       0.000000
      0.000346      -0.000084       0.000000
      0.000347      -0.000085       0.000000
      0.000345      -0.000086       0.000000
      0.000346      -0.000084       0.000000
      0.000350      -0.000082       0.000000
      0.000353      -0.000076       0.000000
      0.000347      -0.000085       0.000000
      0.000345      -0.000086       0.000000
      0.000347      -0.000085       0.000000
      0.000349      -0.000086       0.000000
      0.000346      -0.000087       0.000000
      0.000347      -0.000085       0.000000
      0.000353      -0.000076       0.000000
      0.000358      -0.000067       0.000000
      0.000349      -0.000086       0.000000
      0.000343      -0.000087       0.000000
      0.000344      -0.000087       0.000000
      0.000345      -0.000088       0.000000
      0.000343      -0.000088       0.000000
      0.000344      -0.000087       0.000000
      0.000346      -0.000087       0.000000
      0.000347      -0.000089       0.000000
      0.000345      -0.000088       0.000000
      0.000343      -0.000088       0.000000
      0.000345      -0.000088       0.000000
      0.000346      -0.000088       0.000000
      0.000344      -0.000088       0.000000
      0.000345      -0.000088       0.000000
      0.000347      -0.000089       0.000000
      0.000354      -0.000085       0.000000
      0.000346      -0.000088       0.000000
      0.000346      -0.000087       0.000000
      0.000349      -0.000086       0.000000
      0.000351      -0.000093       0.000000
      0.000347      -0.000089       0.000000
      0.000349      -0.000086       0.000000
      0.000358      -0.000067       0.000000
      0.000260       0.000051       0.000000
      0.000351      -0.000093       0.000000
      0.000347      -0.000089       0.000000
      0.000351      -0.000093       0.000000
      0.000422      -0.000073       0.000000
      0.000354      -0.000085       0.000000
      0.000351      -0.000093       0.000000
      0.000260       0.000051       0.000000
      0.009881       0.000923       0.000000
      0.000422      -0.000073       0.000000
      0.000342      -0.000084       0.000000
      0.000344      -0.000083       0.000000
      0.000345      -0.000084       0.000000
      0.000343      -0.000085       0.000000
      0.000344      -0.000083       0.000000
      0.000345      -0.000082       0.000000
      0.000347      -0.000083       0.000000
      0.000345      -0.000084       0.000000
      0.000343      -0.000085       0.000000
      0.000345      -0.000084       0.000000
      0.000346      -0.000084       0.000000
      0.000344      -0.000085       0.000000
      0.000345      -0.000084       0.000000
      0.000347      -0.000083       0.000000
      0.000350      -0.000082       0.000000
      0.000346      -0.000084       0.000000
      0.000337      -0.000084       0.000000
      0.000340      -0.000083       0.000000
      0.000340      -0.000083       0.000000
      0.000337      -0.000085       0.000000
      0.000340      -0.000083       0.000000
      0.000342      -0.000080       0.000000
      0.000342      -0.000081       0.000000
      0.000340      -0.000083       0.000000
      0.000337      -0.000085       0.000000
      0.000340      -0.000083       0.000000
      0.000341      -0.000084       0.000000
      0.000338      -0.000085       0.000000
      0.000341      -0.000084       0.000000
      0.000342      -0.000083       0.000000
      0.000343      -0.000083       0.000000
      0.000341      -0.000084       0.000000
      0.000342      -0.000083       0.000000
      0.000343      -0.000081       0.000000
      0.000344      -0.000082       0.000000
      0.000343      -0.000083       0.000000
      0.000341      -0.000084       0.000000
      0.000343      -0.000083       0.000000
      0.000344      -0.000083       0.000000
      0.000342      -0.000084       0.000000
      0.000343      -0.000083       0.000000
      0.000344      -0.000082       0.000000
      0.000345      -0.000082       0.000000
      0.000344      -0.000083       0.000000
      0.000340      -0.000083       0.000000
      0.000341      -0.000082       0.000000
      0.000341      -0.000082       0.000000
      0.000340      -0.000083       0.000000
      0.000341      -0.000082       0.000000
      0.000342      -0.000081       0.000000
      0.000343      -0.000081       0.000000
      0.000341      -0.000082       0.000000
      0.000340      -0.000083       0.000000
      0.000341      -0.000082       0.000000
      0.000342      -0.000083       0.000000
      0.000341      -0.000084       0.000000
      0.000341      -0.000082       0.000000
      0.000343      -0.000081       0.000000
      0.000343      -0.000081       0.000000
      0.000342      -0.000083       0.000000
      0.000320      -0.000071       0.000000
      0.000341      -0.000076       0.000000
      0.000339      -0.000081       0.000000
      0.000325      -0.000078       0.000000
      0.000341      -0.000076       0.000000
      0.000362      -0.000077       0.000000
      0.000352      -0.000080       0.000000
      0.000339      -0.000081       0.000000
      0.000325      -0.000078       0.000000
      0.000339      -0.000081       0.000000
      0.000337      -0.000084       0.000000
      0.000328      -0.000082       0.000000
      0.000337      -0.000084       0.000000
      0.000341      -0.000083       0.000000
      0.000340      -0.000083       0.000000
      0.000337      -0.000084       0.000000
      0.000341      -0.000083       0.000000
      0.000345      -0.000080       0.000000
      0.000343      -0.000080       0.000000
      0.000340      -0.000083       0.000000
      0.000337      -0.000084       0.000000
      0.000340      -0.000083       0.000000
      0.000340      -0.000083       0.000000
      0.000337      -0.000084       0.000000
      0.000340      -0.000083       0.000000
      0.000343      -0.000080       0.000000
      0.000342      -0.000080       0.000000
      0.000340      -0.000083       0.000000
      0.000339      -0.000081       0.000000
      0.000346      -0.000082       0.000000
      0.000343      -0.000082       0.000000
      0.000338      -0.000083       0.000000
      0.000346      -0.000082       0.000000
      0.000352      -0.000080       0.000000
      0.000348      -0.000080       0.000000
      0.000343      -0.000082       0.000000
      0.000338      -0.000083       0.000000
      0.000343      -0.000082       0.000000
      0.000341      -0.000083       0.000000
      0.000337      -0.000084       0.000000
      0.000343      -0.000082       0.000000
      0.000348      -0.000080       0.000000
      0.000345      -0.000080       0.000000
      0.000341      -0.000083       0.000000
      0.000284      -0.000044       0.000000
      0.000321      -0.000049       0.000000
      0.000337      -0.000065       0.000000
      0.000308      -0.000060       0.000000
      0.000321      -0.000049       0.000000
      0.000365      -0.000051       0.000000
      0.000370      -0.000068       0.000000
      0.000337      -0.000065       0.000000
      0.000308      -0.000060       0.000000
      0.000337      -0.000065       0.000000
      0.000341      -0.000076       0.000000
      0.000320      -0.000071       0.000000
      0.000337      -0.000065       0.000000
      0.000370      -0.000068       0.000000
      0.000362      -0.000077       0.000000
      0.000341      -0.000076       0.000000
      0.000000       0.000000       0.000000
      0.000000       0.000000       0.000000
      0.000391       0.000031       0.000000
      0.000260      -0.000005       0.000000
      0.000000       0.000000       0.000000
      0.000000       0.000000       0.000000
      0.000577       0.000183       0.000000
      0.000391       0.000031       0.000000
      0.000260      -0.000005       0.000000
      0.000391       0.000031       0.000000
      0.000485      -0.000026       0.000000
      0.000365      -0.000051       0.000000
      0.000000       0.000000       0.000000
      0.000000       0.000000       0.000000
      0.000685       0.000354       0.000000
      0.000577       0.000183       0.000000
      0.000000       0.000000       0.000000
      0.000000       0.000000       0.000000
      0.000789       0.000183       0.000000
      0.000685       0.000354       0.000000
      0.000000       0.000000       0.000000
      0.000000       0.000000       0.000000
      0.000903       0.000055       0.000000
      0.000789       0.000183       0.000000
      0.000000       0.000000       0.000000
      0.000000       0.000000       0.000000
      0.000945       0.000000       0.000000
      0.000903       0.000055       0.000000
      0.000789       0.000183       0.000000
      0.000903       0.000055       0.000000
      0.002250       0.000063       0.000000
      0.002117       0.000233       0.000000
      0.000903       0.000055       0.000000
      0.000945       0.000000       0.000000
      0.002288       0.000000       0.000000
      0.002250       0.000063       0.000000
      0.002117       0.000233       0.000000
      0.002250       0.000063       0.000000
      0.004021       0.000098       0.000000
      0.004096       0.000325       0.000000
      0.002250       0.000063       0.000000
      0.002288       0.000000       0.000000
      0.004001       0.000000       0.000000
      0.004021       0.000098       0.000000
      0.004096       0.000325       0.000000
      0.004021       0.000098       0.000000
      0.005779       0.000167       0.000000
      0.005914       0.000456       0.000000
      0.004021       0.000098       0.000000
      0.004001       0.000000       0.000000
      0.005733       0.000000       0.000000
      0.005779       0.000167       0.000000
      0.006091       0.001014       0.000000
      0.005914       0.000456       0.000000
      0.007395       0.000521       0.000000
      0.007546       0.000952       0.000000
      0.007659       0.001430       0.000000
      0.007546       0.000952       0.000000
      0.008715       0.000874       0.000000