# vtk DataFile Version 2.0
time_10.vtk
ASCII
DATASET UNSTRUCTURED_GRID
POINTS  1152 float
      0.000000       0.000000       0.000000
      0.083333       0.000000       0.000000
      0.083333       0.083333       0.000000
      0.000000       0.083333       0.000000
      0.083333       0.000000       0.000000
      0.166667       0.000000       0.000000
      0.166667       0.083333       0.000000
      0.083333       0.083333       0.000000
      0.000000       0.083333       0.000000
      0.083333       0.083333       0.000000
      0.083333       0.166667       0.000000
      0.000000       0.166667       0.000000
      0.083333       0.083333       0.000000
      0.166667       0.083333       0.000000
      0.166667       0.166667       0.000000
      0.083333       0.166667       0.000000
      0.166667       0.000000       0.000000
      0.250000       0.000000       0.000000
      0.250000       0.083333       0.000000
      0.166667       0.083333       0.000000
      0.250000       0.000000       0.000000
      0.333333       0.000000       0.000000
      0.333333       0.083333       0.000000
      0.250000       0.083333       0.000000
      0.166667       0.083333       0.000000
      0.250000       0.083333       0.000000
      0.250000       0.166667       0.000000
      0.166667       0.166667       0.000000
      0.250000       0.083333       0.000000
      0.333333       0.083333       0.000000
      0.333333       0.166667       0.000000
      0.250000       0.166667       0.000000
      0.333333       0.000000       0.000000
      0.416667      -0.000000       0.000000
      0.416667       0.083333       0.000000
      0.333333       0.083333       0.000000
      0.416667      -0.000000       0.000000
      0.500000       0.000000       0.000000
      0.500000       0.083333       0.000000
      0.416667       0.083333       0.000000
      0.333333       0.083333       0.000000
      0.416667       0.083333       0.000000
      0.416667       0.166667       0.000000
      0.333333       0.166667       0.000000
      0.416667       0.083333       0.000000
      0.500000       0.083333       0.000000
      0.500000       0.166667       0.000000
      0.416667       0.166667       0.000000
      0.000000       0.166667       0.000000
      0.083333       0.166667       0.000000
      0.083333       0.250000       0.000000
      0.000000       0.250000       0.000000
      0.083333       0.166667       0.000000
      0.166667       0.166667       0.000000
      0.166667       0.250000       0.000000
      0.083333       0.250000       0.000000
      0.000000       0.250000       0.000000
      0.083333       0.250000       0.000000
      0.083333       0.333333       0.000000
      0.000000       0.333333       0.000000
      0.083333       0.250000       0.000000
      0.166667       0.250000       0.000000
      0.166667       0.333333       0.000000
      0.083333       0.333333       0.000000
      0.166667       0.166667       0.000000
      0.250000       0.166667       0.000000
      0.250000       0.250000       0.000000
      0.166667       0.250000       0.000000
      0.250000       0.166667       0.000000
      0.333333       0.166667       0.000000
      0.333333       0.250000       0.000000
      0.250000       0.250000       0.000000
      0.166667       0.250000       0.000000
      0.250000       0.250000       0.000000
      0.250000       0.333333       0.000000
      0.166667       0.333333       0.000000
      0.250000       0.250000       0.000000
      0.333333       0.250000       0.000000
      0.333333       0.333333       0.000000
      0.250000       0.333333       0.000000
      0.333333       0.166667       0.000000
      0.416667       0.166667       0.000000
      0.416667       0.250000       0.000000
      0.333333       0.250000       0.000000
      0.416667       0.166667       0.000000
      0.500000       0.166667       0.000000
      0.500000       0.250000       0.000000
      0.416667       0.250000       0.000000
      0.333333       0.250000       0.000000
      0.416667       0.250000       0.000000
      0.416667       0.333333       0.000000
      0.333333       0.333333       0.000000
      0.416667       0.250000       0.000000
      0.500000       0.250000       0.000000
      0.500000       0.333333       0.000000
      0.416667       0.333333       0.000000
      0.000000       0.333333       0.000000
      0.083333       0.333333       0.000000
      0.083333       0.416667       0.000000
     -0.000000       0.416667       0.000000
      0.083333       0.333333       0.000000
      0.166667       0.333333       0.000000
      0.166667       0.416667       0.000000
      0.083333       0.416667       0.000000
     -0.000000       0.416667       0.000000
      0.083333       0.416667       0.000000
      0.083333       0.500000       0.000000
      0.000000       0.500000       0.000000
      0.083333       0.416667       0.000000
      0.166667       0.416667       0.000000
      0.166667       0.500000       0.000000
      0.083333       0.500000       0.000000
      0.166667       0.333333       0.000000
      0.250000       0.333333       0.000000
      0.250000       0.416667       0.000000
      0.166667       0.416667       0.000000
      0.250000       0.333333       0.000000
      0.333333       0.333333       0.000000
      0.333333       0.416667       0.000000
      0.250000       0.416667       0.000000
      0.166667       0.416667       0.000000
      0.250000       0.416667       0.000000
      0.250000       0.500000       0.000000
      0.166667       0.500000       0.000000
      0.250000       0.416667       0.000000
      0.333333       0.416667       0.000000
      0.333333       0.500000       0.000000
      0.250000       0.500000       0.000000
      0.333333       0.333333       0.000000
      0.375000       0.333333       0.000000
      0.375000       0.375000       0.000000
      0.333333       0.375000       0.000000
      0.375000       0.333333       0.000000
      0.416667       0.333333       0.000000
      0.416667       0.375000       0.000000
      0.375000       0.375000       0.000000
      0.333333       0.375000       0.000000
      0.375000       0.375000       0.000000
      0.375000       0.416667       0.000000
      0.333333       0.416667       0.000000
      0.375000       0.375000       0.000000
      0.416667       0.375000       0.000000
      0.416667       0.416667       0.000000
      0.375000       0.416667       0.000000
      0.416667       0.333333       0.000000
      0.458333       0.333333       0.000000
      0.458333       0.375000       0.000000
      0.416667       0.375000       0.000000
      0.458333       0.333333       0.000000
      0.500000       0.333333       0.000000
      0.500000       0.375000       0.000000
      0.458333       0.375000       0.000000
      0.416667       0.375000       0.000000
      0.458333       0.375000       0.000000
      0.458333       0.416667       0.000000
      0.416667       0.416667       0.000000
      0.458333       0.375000       0.000000
      0.500000       0.375000       0.000000
      0.500000       0.416667       0.000000
      0.458333       0.416667       0.000000
      0.333333       0.416667       0.000000
      0.375000       0.416667       0.000000
      0.375000       0.458333       0.000000
      0.333333       0.458333       0.000000
      0.375000       0.416667       0.000000
      0.416667       0.416667       0.000000
      0.416667       0.458333       0.000000
      0.375000       0.458333       0.000000
      0.333333       0.458333       0.000000
      0.375000       0.458333       0.000000
      0.375000       0.500000       0.000000
      0.333333       0.500000       0.000000
      0.375000       0.458333       0.000000
      0.416667       0.458333       0.000000
      0.416667       0.500000       0.000000
      0.375000       0.500000       0.000000
      0.416667       0.416667       0.000000
      0.437500       0.416667       0.000000
      0.437500       0.437500       0.000000
      0.416667       0.437500       0.000000
      0.437500       0.416667       0.000000
      0.458333       0.416667       0.000000
      0.458333       0.437500       0.000000
      0.437500       0.437500       0.000000
      0.416667       0.437500       0.000000
      0.437500       0.437500       0.000000
      0.437500       0.458333       0.000000
      0.416667       0.458333       0.000000
      0.437500       0.437500       0.000000
      0.458333       0.437500       0.000000
      0.458333       0.458333       0.000000
      0.437500       0.458333       0.000000
      0.458333       0.416667       0.000000
      0.479167       0.416667       0.000000
      0.479167       0.437500       0.000000
      0.458333       0.437500       0.000000
      0.479167       0.416667       0.000000
      0.500000       0.416667       0.000000
      0.500000       0.437500       0.000000
      0.479167       0.437500       0.000000
      0.458333       0.437500       0.000000
      0.479167       0.437500       0.000000
      0.479167       0.458333       0.000000
      0.458333       0.458333       0.000000
      0.479167       0.437500       0.000000
      0.500000       0.437500       0.000000
      0.500000       0.458333       0.000000
      0.479167       0.458333       0.000000
      0.416667       0.458333       0.000000
      0.437500       0.458333       0.000000
      0.437500       0.479167       0.000000
      0.416667       0.479167       0.000000
      0.437500       0.458333       0.000000
      0.458333       0.458333       0.000000
      0.458333       0.479167       0.000000
      0.437500       0.479167       0.000000
      0.416667       0.479167       0.000000
      0.437500       0.479167       0.000000
      0.437500       0.500000       0.000000
      0.416667       0.500000       0.000000
[...]
POINT_DATA  1152
VECTORS U float 
      0.000000       0.000000       0.000000
      0.000000       0.000000       0.000000
      0.000510       0.000020       0.000000
      0.000507       0.000000       0.000000
      0.000000       0.000000       0.000000
      0.000000       0.000000       0.000000
      0.000515       0.000042       0.000000
      0.000510       0.000020       0.000000
      0.000507       0.000000       0.000000
      0.000510       0.000020       0.000000
      0.000957       0.000036       0.000000
      0.000951       0.000000       0.000000
      0.000510       0.000020       0.000000
      0.000515       0.000042       0.000000
      0.000973       0.000076       0.000000
      0.000957       0.000036       0.000000
      0.000000       0.000000       0.000000
      0.000000       0.000000       0.000000
      0.000521       0.000063       0.000000
      0.000515       0.000042       0.000000
      0.000000       0.000000       0.000000
      0.000000       0.000000       0.000000
      0.000524       0.000083       0.000000
      0.000521       0.000063       0.000000
      0.000515       0.000042       0.000000
      0.000521       0.000063       0.000000
      0.000995       0.000119       0.000000
      0.000973       0.000076       0.000000
      0.000521       0.000063       0.000000
      0.000524       0.000083       0.000000
      0.001017       0.000162       0.000000
      0.000995       0.000119       0.000000
      0.000000       0.000000       0.000000
      0.000000       0.000000       0.000000
      0.000521       0.000096       0.000000
      0.000524       0.000083       0.000000
      0.000000       0.000000       0.000000
      0.000000       0.000000       0.000000
      0.000516       0.000096       0.000000
      0.000521       0.000096       0.000000
      0.000524       0.000083       0.000000
      0.000521       0.000096       0.000000
      0.001031       0.000191       0.000000
      0.001017       0.000162       0.000000
      0.000521       0.000096       0.000000
      0.000516       0.000096       0.000000
      0.001040       0.000191       0.000000
      0.001031       0.000191       0.000000
      0.000951       0.000000       0.000000
      0.000957       0.000036       0.000000
      0.001329       0.000045       0.000000
      0.001317       0.000000       0.000000
      0.000957       0.000036       0.000000
      0.000973       0.000076       0.000000
      0.001363       0.000096       0.000000
      0.001329       0.000045       0.000000
      0.001317       0.000000       0.000000
      0.001329       0.000045       0.000000
      0.001610       0.000042       0.000000
      0.001591       0.000000       0.000000
      0.001329       0.000045       0.000000
      0.001363       0.000096       0.000000
      0.001665       0.000093       0.000000
      0.001610       0.000042       0.000000
      0.000973       0.000076       0.000000
      0.000995       0.000119       0.000000
      0.001415       0.000156       0.000000
      0.001363       0.000096       0.000000
      0.000995       0.000119       0.000000
      0.001017       0.000162       0.000000
      0.001475       0.000223       0.000000
      0.001415       0.000156       0.000000
      0.001363       0.000096       0.000000
      0.001415       0.000156       0.000000
      0.001756       0.000161       0.000000
      0.001665       0.000093       0.000000
      0.001415       0.000156       0.000000
      0.001475       0.000223       0.000000
      0.001878       0.000248       0.000000
      0.001756       0.000161       0.000000
      0.001017       0.000162       0.000000
      0.001031       0.000191       0.000000
      0.001530       0.000278       0.000000
      0.001475       0.000223       0.000000
      0.001031       0.000191       0.000000
      0.001040       0.000191       0.000000
      0.001574       0.000281       0.000000
      0.001530       0.000278       0.000000
      0.001475       0.000223       0.000000
      0.001530       0.000278       0.000000
      0.002012       0.000340       0.000000
      0.001878       0.000248       0.000000
      0.001530       0.000278       0.000000
      0.001574       0.000281       0.000000
      0.002126       0.000360       0.000000
      0.002012       0.000340       0.000000
      0.001591       0.000000       0.000000
      0.001610       0.000042       0.000000
      0.001781       0.000029       0.000000
      0.001757       0.000000       0.000000
      0.001610       0.000042       0.000000
      0.001665       0.000093       0.000000
      0.001852       0.000067       0.000000
      0.001781       0.000029       0.000000
      0.001757       0.000000       0.000000
      0.001781       0.000029       0.000000
      0.001830       0.000009       0.000000
      0.001807       0.000000       0.000000
      0.001781       0.000029       0.000000
      0.001852       0.000067       0.000000
      0.001902       0.000025       0.000000
      0.001830       0.000009       0.000000
      0.001665       0.000093       0.000000
      0.001756       0.000161       0.000000
      0.001979       0.000123       0.000000
      0.001852       0.000067       0.000000
      0.001756       0.000161       0.000000
      0.001878       0.000248       0.000000
      0.002171       0.000208       0.000000
      0.001979       0.000123       0.000000
      0.001852       0.000067       0.000000
      0.001979       0.000123       0.000000
      0.002034       0.000055       0.000000
      0.001902       0.000025       0.000000
      0.001979       0.000123       0.000000
      0.002171       0.000208       0.000000
      0.002248       0.000105       0.000000
      0.002034       0.000055       0.000000
      0.001878       0.000248       0.000000
      0.001946       0.000296       0.000000
      0.002139       0.000293       0.000000
      0.002044       0.000238       0.000000
      0.001946       0.000296       0.000000
      0.002012       0.000340       0.000000
      0.002239       0.000350       0.000000
      0.002139       0.000293       0.000000
      0.002044       0.000238       0.000000
      0.002139       0.000293       0.000000
      0.002295       0.000265       0.000000
      0.002171       0.000208       0.000000
      0.002139       0.000293       0.000000
      0.002239       0.000350       0.000000
      0.002440       0.000334       0.000000
      0.002295       0.000265       0.000000
      0.002012       0.000340       0.000000
      0.002072       0.000366       0.000000
      0.002334       0.000395       0.000000
      0.002239       0.000350       0.000000
      0.002072       0.000366       0.000000
      0.002126       0.000360       0.000000
      0.002418       0.000394       0.000000
      0.002334       0.000395       0.000000
      0.002239       0.000350       0.000000
      0.002334       0.000395       0.000000
      0.002593       0.000405       0.000000
      0.002440       0.000334       0.000000
      0.002334       0.000395       0.000000
      0.002418       0.000394       0.000000
      0.002733       0.000423       0.000000
      0.002593       0.000405       0.000000
      0.002171       0.000208       0.000000
      0.002295       0.000265       0.000000
      0.002391       0.000211       0.000000
      0.002243       0.000161       0.000000
      0.002295       0.000265       0.000000
      0.002440       0.000334       0.000000
      0.002578       0.000276       0.000000
      0.002391       0.000211       0.000000
      0.002243       0.000161       0.000000
      0.002391       0.000211       0.000000
      0.002400       0.000139       0.000000
      0.002248       0.000105       0.000000
      0.002391       0.000211       0.000000
      0.002578       0.000276       0.000000
      0.002601       0.000181       0.000000
      0.002400       0.000139       0.000000
      0.002440       0.000334       0.000000
      0.002517       0.000371       0.000000
      0.002615       0.000352       0.000000
      0.002520       0.000311       0.000000
      0.002517       0.000371       0.000000
      0.002593       0.000405       0.000000
      0.002716       0.000396       0.000000
      0.002615       0.000352       0.000000
      0.002520       0.000311       0.000000
      0.002615       0.000352       0.000000
      0.002692       0.000317       0.000000
      0.002578       0.000276       0.000000
      0.002615       0.000352       0.000000
      0.002716       0.000396       0.000000
      0.002823       0.000369       0.000000
      0.002692       0.000317       0.000000
      0.002593       0.000405       0.000000
      0.002666       0.000427       0.000000
      0.002815       0.000433       0.000000
      0.002716       0.000396       0.000000
      0.002666       0.000427       0.000000
      0.002733       0.000423       0.000000
      0.002907       0.000435       0.000000
      0.002815       0.000433       0.000000
      0.002716       0.000396       0.000000
      0.002815       0.000433       0.000000
      0.002967       0.000426       0.000000
      0.002823       0.000369       0.000000
      0.002815       0.000433       0.000000
      0.002907       0.000435       0.000000
      0.003107       0.000444       0.000000
      0.002967       0.000426       0.000000
      0.002578       0.000276       0.000000
      0.002692       0.000317       0.000000
      0.002734       0.000266       0.000000
      0.002607       0.000231       0.000000
      0.002692       0.000317       0.000000
      0.002823       0.000369       0.000000
      0.002893       0.000313       0.000000
      0.002734       0.000266       0.000000
      0.002607       0.000231       0.000000
      0.002734       0.000266       0.000000
      0.002732       0.000205       0.000000
      0.002601       0.000181       0.000000
      0.002734       0.000266       0.000000
      0.002893       0.000313       0.000000
      0.002900       0.000232       0.000000
      0.002732       0.000205       0.000000
      0.002823       0.000369       0.000000
      0.002895       0.000398       0.000000
      0.002950       0.000377       0.000000
      0.002865       0.000345       0.000000
      0.002895       0.000398       0.000000
      0.002967       0.000426       0.000000
      0.003042       0.000413       0.000000
      0.002950       0.000377       0.000000
      0.002865       0.000345       0.000000
      0.002950       0.000377       0.000000
      0.002992       0.000344       0.000000
      0.002893       0.000313       0.000000
      0.002950       0.000377       0.000000
      0.003042       0.000413       0.000000
      0.003110       0.000386       0.000000
      0.002992       0.000344       0.000000
      0.002967       0.000426       0.000000
      0.003039       0.000445       0.000000
      0.003136       0.000443       0.000000
      0.003042       0.000413       0.000000
      0.003039       0.000445       0.000000
      0.003107       0.000444       0.000000
      0.003227       0.000445       0.000000
      0.003136       0.000443       0.000000
      0.003042       0.000413       0.000000
      0.003136       0.000443       0.000000
      0.003244       0.000434       0.000000
      0.003110       0.000386       0.000000
      0.003136       0.000443       0.000000
      0.003227       0.000445       0.000000
      0.003378       0.000444       0.000000
      0.003244       0.000434       0.000000
      0.002893       0.000313       0.000000
      0.002992       0.000344       0.000000
      0.003014       0.000299       0.000000
      0.002905       0.000274       0.000000
      0.002992       0.000344       0.000000
      0.003110       0.000386       0.000000
      0.003158       0.000336       0.000000
      0.003014       0.000299       0.000000
      0.002905       0.000274       0.000000
      0.003014       0.000299       0.000000
      0.003012       0.000246       0.000000
      0.002900       0.000232       0.000000
      0.003014       0.000299       0.000000
      0.003158       0.000336       0.000000
      0.003165       0.000259       0.000000
      0.003012       0.000246       0.000000
      0.003110       0.000386       0.000000
      0.003244       0.000434       0.000000
      0.003363       0.000402       0.000000
      0.003158       0.000336       0.000000
      0.003244       0.000434       0.000000
      0.003378       0.000444       0.000000
      0.003610       0.000434       0.000000
      0.003363       0.000402       0.000000
      0.003158       0.000336       0.000000
      0.003363       0.000402       0.000000
      0.003428       0.000277       0.000000
      0.003165       0.000259       0.000000
      0.003363       0.000402       0.000000
      0.003610       0.000434       0.000000
      0.004380       0.000345       0.000000
      0.003428       0.000277       0.000000
      0.000000       0.000000       0.000000
      0.000000       0.000000       0.000000
      0.000515       0.000081       0.000000
      0.000516       0.000096       0.000000
      0.000000       0.000000       0.000000
      0.000000       0.000000       0.000000
      0.000523       0.000059       0.000000
      0.000515       0.000081       0.000000
      0.000516       0.000096       0.000000
      0.000515       0.000081       0.000000
      0.001056       0.000157       0.000000
      0.001040       0.000191       0.000000
      0.000515       0.000081       0.000000
      0.000523       0.000059       0.000000
      0.001085       0.000106       0.000000
      0.001056       0.000157       0.000000
      0.000000       0.000000       0.000000
      0.000000       0.000000       0.000000
      0.000538       0.000038       0.000000
      0.000523       0.000059       0.000000
      0.000000       0.000000       0.000000
      0.000000       0.000000       0.000000
      0.000554       0.000021       0.000000
      0.000538       0.000038       0.000000
      0.000523       0.000059       0.000000
      0.000538       0.000038       0.000000
      0.001122       0.000061       0.000000
      0.001085       0.000106       0.000000
      0.000538       0.000038       0.000000
      0.000554       0.000021       0.000000
      0.001158       0.000030       0.000000
      0.001122       0.000061       0.000000
      0.000000       0.000000       0.000000
      0.000000       0.000000       0.000000
      0.000567       0.000009       0.000000
      0.000554       0.000021       0.000000
      0.000000       0.000000       0.000000
      0.000000       0.000000       0.000000
      0.000572       0.000000       0.000000
      0.000567       0.000009       0.000000
      0.000554       0.000021       0.000000
      0.000567       0.000009       0.000000
      0.001182       0.000011       0.000000
      0.001158       0.000030       0.000000
      0.000567       0.000009       0.000000
      0.000572       0.000000       0.000000
      0.001191       0.000000       0.000000
      0.001182       0.000011       0.000000
      0.001040       0.000191       0.000000
      0.001056       0.000157       0.000000
      0.001624       0.000218       0.000000
      0.001574       0.000281       0.000000
      0.001056       0.000157       0.000000
      0.001085       0.000106       0.000000
      0.001693       0.000130       0.000000
      0.001624       0.000218       0.000000
      0.001574       0.000281       0.000000
      0.001624       0.000218       0.000000
      0.002244       0.000247       0.000000
      0.002126       0.000360       0.000000
      0.001624       0.000218       0.000000
      0.001693       0.000130       0.000000
      0.002378       0.000114       0.000000
      0.002244       0.000247       0.000000
      0.001085       0.000106       0.000000
      0.001122       0.000061       0.000000
      0.001765       0.000062       0.000000
      0.001693       0.000130       0.000000
      0.001122       0.000061       0.000000
      0.001158       0.000030       0.000000
      0.001822       0.000024       0.000000
      0.001765       0.000062       0.000000
      0.001693       0.000130       0.000000
      0.001765       0.000062       0.000000
      0.002489       0.000035       0.000000
      0.002378       0.000114       0.000000
      0.001765       0.000062       0.000000
      0.001822       0.000024       0.000000
      0.002563       0.000002       0.000000
      0.002489       0.000035       0.000000
      0.001158       0.000030       0.000000
      0.001182       0.000011       0.000000
      0.001858       0.000007       0.000000
      0.001822       0.000024       0.000000
      0.001182       0.000011       0.000000
      0.001191       0.000000       0.000000
      0.001870       0.000000       0.000000
      0.001858       0.000007       0.000000
      0.001822       0.000024       0.000000
      0.001858       0.000007       0.000000
      0.002604      -0.000005       0.000000
      0.002563       0.000002       0.000000
      0.001858       0.000007       0.000000
      0.001870       0.000000       0.000000
      0.002617       0.000000       0.000000
      0.002604      -0.000005       0.000000
      0.002378       0.000114       0.000000
      0.002489       0.000035       0.000000
      0.003331      -0.000011       0.000000
      0.003219       0.000048       0.000000
      0.002489       0.000035       0.000000
      0.002563       0.000002       0.000000
      0.003390      -0.000025       0.000000
      0.003331      -0.000011       0.000000
      0.003219       0.000048       0.000000
      0.003331      -0.000011       0.000000
      0.004283      -0.000036       0.000000
      0.004286      -0.000003       0.000000
      0.003331      -0.000011       0.000000
      0.003390      -0.000025       0.000000
      0.004281      -0.000038       0.000000
      0.004283      -0.000036       0.000000
      0.002563       0.000002       0.000000
      0.002604      -0.000005       0.000000
      0.003419      -0.000017       0.000000
      0.003390      -0.000025       0.000000
      0.002604      -0.000005       0.000000
      0.002617       0.000000       0.000000
      0.003428       0.000000       0.000000
      0.003419      -0.000017       0.000000
      0.003390      -0.000025       0.000000
      0.003419      -0.000017       0.000000
      0.004280      -0.000023       0.000000
      0.004281      -0.000038       0.000000
      0.003419      -0.000017       0.000000
      0.003428       0.000000       0.000000
      0.004280       0.000000       0.000000
      0.004280      -0.000023       0.000000
      0.002126       0.000360       0.000000
      0.002181       0.000316       0.000000
      0.002502       0.000332       0.000000
      0.002418       0.000394       0.000000
      0.002181       0.000316       0.000000
      0.002244       0.000247       0.000000
      0.002595       0.000238       0.000000
      0.002502       0.000332       0.000000
      0.002418       0.000394       0.000000
      0.002502       0.000332       0.000000
      0.002869       0.000329       0.000000
      0.002733       0.000423       0.000000
      0.002502       0.000332       0.000000
      0.002595       0.000238       0.000000
      0.003011       0.000203       0.000000
      0.002869       0.000329       0.000000
      0.002244       0.000247       0.000000
      0.002312       0.000175       0.000000
      0.002689       0.000152       0.000000
      0.002595       0.000238       0.000000
      0.002312       0.000175       0.000000
      0.002378       0.000114       0.000000
      0.002773       0.000086       0.000000
      0.002689       0.000152       0.000000
      0.002595       0.000238       0.000000
      0.002689       0.000152       0.000000
      0.003131       0.000109       0.000000