# vtk DataFile Version 2.0
time_10.vtk
ASCII
DATASET UNSTRUCTURED_GRID
POINTS  1152 float
      0.000000       0.000000       0.000000
      0.083333       0.000000       0.000000
      0.083333       0.083333       0.000000
      0.000000       0.083333       0.000000
      0.083333       0.000000       0.000000
      0.166667       0.000000       0.000000
      0.166667       0.083333       0.000000
      0.083333       0.083333       0.000000
      0.000000       0.083333       0.000000
      0.083333       0.083333       0.000000
      0.083333       0.166667       0.000000
      0.000000       0.166667       0.000000
      0.083333       0.083333       0.000000
      0.166667       0.083333       0.000000
      0.166667       0.166667       0.000000
      0.083333       0.166667       0.000000
      0.166667       0.000000       0.000000
      0.250000       0.000000       0.000000
      0.250000       0.083333       0.000000
      0.166667       0.083333       0.000000
      0.250000       0.000000       0.000000
      0.333333       0.000000       0.000000
      0.333333       0.083333       0.000000
      0.250000       0.083333       0.000000
      0.166667       0.083333       0.000000
      0.250000       0.083333       0.000000
      0.250000       0.166667       0.000000
      0.166667       0.166667       0.000000
      0.250000       0.083333       0.000000
      0.333333       0.083333       0.000000
      0.333333       0.166667       0.000000
      0.250000       0.166667       0.000000
      0.333333       0.000000       0.000000
      0.416667      -0.000000       0.000000
      0.416667       0.083333       0.000000
      0.333333       0.083333       0.000000
      0.416667      -0.000000       0.000000
      0.500000       0.000000       0.000000
      0.500000       0.083333       0.000000
      0.416667       0.083333       0.000000
      0.333333       0.083333       0.000000
      0.416667       0.083333       0.000000
      0.416667       0.166667       0.000000
      0.333333       0.166667       0.000000
      0.416667       0.083333       0.000000
      0.500000       0.083333       0.000000
      0.500000       0.166667       0.000000
      0.416667       0.166667       0.000000
      0.000000       0.166667       0.000000
      0.083333       0.166667       0.000000
      0.083333       0.250000       0.000000
      0.000000       0.250000       0.000000
      0.083333       0.166667       0.000000
      0.166667       0.166667       0.000000
      0.166667       0.250000       0.000000
      0.083333       0.250000       0.000000
      0.000000       0.250000       0.000000
      0.083333       0.250000       0.000000
      0.083333       0.333333       0.000000
      0.000000       0.333333       0.000000
      0.083333       0.250000       0.000000
      0.166667       0.250000       0.000000
      0.166667       0.333333       0.000000
      0.083333       0.333333       0.000000
      0.166667       0.166667       0.000000
      0.250000       0.166667       0.000000
      0.250000       0.250000       0.000000
      0.166667       0.250000       0.000000
      0.250000       0.166667       0.000000
      0.333333       0.166667       0.000000
      0.333333       0.250000       0.000000
      0.250000       0.250000       0.000000
      0.166667       0.250000       0.000000
      0.250000       0.250000       0.000000
      0.250000       0.333333       0.000000
      0.166667       0.333333       0.000000
      0.250000       0.250000       0.000000
      0.333333       0.250000       0.000000
      0.333333       0.333333       0.000000
      0.250000       0.333333       0.000000
      0.333333       0.166667       0.000000
      0.416667       0.166667       0.000000
      0.416667       0.250000       0.000000
      0.333333       0.250000       0.000000
      0.416667       0.166667       0.000000
      0.500000       0.166667       0.000000
      0.500000       0.250000       0.000000
      0.416667       0.250000       0.000000
      0.333333       0.250000       0.000000
      0.416667       0.250000       0.000000
      0.416667       0.333333       0.000000
      0.333333       0.333333       0.000000
      0.416667       0.250000       0.000000
      0.500000       0.250000       0.000000
      0.500000       0.333333       0.000000
      0.416667       0.333333       0.000000
      0.000000       0.333333       0.000000
      0.083333       0.333333       0.000000
      0.083333       0.416667       0.000000
     -0.000000       0.416667       0.000000
      0.083333       0.333333       0.000000
      0.166667       0.333333       0.000000
      0.166667       0.416667       0.000000
      0.083333       0.416667       0.000000
     -0.000000       0.416667       0.000000
      0.083333       0.416667       0.000000
      0.083333       0.500000       0.000000
      0.000000       0.500000       0.000000
      0.083333       0.416667       0.000000
      0.166667       0.416667       0.000000
      0.166667       0.500000       0.000000
      0.083333       0.500000       0.000000
      0.166667       0.333333       0.000000
      0.250000       0.333333       0.000000
      0.250000       0.416667       0.000000
      0.166667       0.416667       0.000000
      0.250000       0.333333       0.000000
      0.333333       0.333333       0.000000
      0.333333       0.416667       0.000000
      0.250000       0.416667       0.000000
      0.166667       0.416667       0.000000
      0.250000       0.416667       0.000000
      0.250000       0.500000       0.000000
      0.166667       0.500000       0.000000
      0.250000       0.416667       0.000000
      0.333333       0.416667       0.000000
      0.333333       0.500000       0.000000
      0.250000       0.500000       0.000000
      0.333333       0.333333       0.000000
      0.375000       0.333333       0.000000
      0.375000       0.375000       0.000000
      0.333333       0.375000       0.000000
      0.375000       0.333333       0.000000
      0.416667       0.333333       0.000000
      0.416667       0.375000       0.000000
      0.375000       0.375000       0.000000
      0.333333       0.375000       0.000000
      0.375000       0.375000       0.000000
      0.375000       0.416667       0.000000
      0.333333       0.416667       0.000000
      0.375000       0.375000       0.000000
      0.416667       0.375000       0.000000
      0.416667       0.416667       0.000000
      0.375000       0.416667       0.000000
      0.416667       0.333333       0.000000
      0.458333       0.333333       0.000000
      0.458333       0.375000       0.000000
      0.416667       0.375000       0.000000
      0.458333       0.333333       0.000000
      0.500000       0.333333       0.000000
      0.500000       0.375000       0.000000
      0.458333       0.375000       0.000000
      0.416667       0.375000       0.000000
      0.458333       0.375000       0.000000
      0.458333       0.416667       0.000000
      0.416667       0.416667       0.000000
      0.458333       0.375000       0.000000
      0.500000       0.375000       0.000000
      0.500000       0.416667       0.000000
      0.458333       0.416667       0.000000
      0.333333       0.416667       0.000000
      0.375000       0.416667       0.000000
      0.375000       0.458333       0.000000
      0.333333       0.458333       0.000000
      0.375000       0.416667       0.000000
      0.416667       0.416667       0.000000
      0.416667       0.458333       0.000000
      0.375000       0.458333       0.000000
      0.333333       0.458333       0.000000
      0.375000       0.458333       0.000000
      0.375000       0.500000       0.000000
      0.333333       0.500000       0.000000
      0.375000       0.458333       0.000000
      0.416667       0.458333       0.000000
      0.416667       0.500000       0.000000
      0.375000       0.500000       0.000000
      0.416667       0.416667       0.000000
      0.437500       0.416667       0.000000
      0.437500       0.437500       0.000000
      0.416667       0.437500       0.000000
      0.437500       0.416667       0.000000
      0.458333       0.416667       0.000000
      0.458333       0.437500       0.000000
      0.437500       0.437500       0.000000
      0.416667       0.437500       0.000000
      0.437500       0.437500       0.000000
      0.437500       0.458333       0.000000
      0.416667       0.458333       0.000000
      0.437500       0.437500       0.000000
      0.458333       0.437500       0.000000
      0.458333       0.458333       0.000000
      0.437500       0.458333       0.000000
      0.458333       0.416667       0.000000
      0.479167       0.416667       0.000000
      0.479167       0.437500       0.000000
      0.458333       0.437500       0.000000
      0.479167       0.416667       0.000000
      0.500000       0.416667       0.000000
      0.500000       0.437500       0.000000
      0.479167       0.437500       0.000000
      0.458333       0.437500       0.000000
      0.479167       0.437500       0.000000
      0.479167       0.458333       0.000000
      0.458333       0.458333       0.000000
      0.479167       0.437500       0.000000
      0.500000       0.437500       0.000000
      0.500000       0.458333       0.000000
      0.479167       0.458333       0.000000
      0.416667       0.458333       0.000000
      0.437500       0.458333       0.000000
      0.437500       0.479167       0.000000
      0.416667       0.479167       0.000000
      0.437500       0.458333       0.000000
      0.458333       0.458333       0.000000
      0.458333       0.479167       0.000000
      0.437500       0.479167       0.000000
      0.416667       0.479167       0.000000
      0.437500       0.479167       0.000000
      0.437500       0.500000       0.000000
      0.416667       0.500000       0.000000
[...]
POINT_DATA  1152
VECTORS U float 
      0.000000       0.000000       0.000000
      0.000000       0.000000       0.000000
      0.000346       0.000015       0.000000
      0.000345       0.000000       0.000000
      0.000000       0.000000       0.000000
      0.000000       0.000000       0.000000
      0.000348       0.000029       0.000000
      0.000346       0.000015       0.000000
      0.000345       0.000000       0.000000
      0.000346       0.000015       0.000000
      0.000650       0.000027       0.000000
      0.000647       0.000000       0.000000
      0.000346       0.000015       0.000000
      0.000348       0.000029       0.000000
      0.000659       0.000055       0.000000
      0.000650       0.000027       0.000000
      0.000000       0.000000       0.000000
      0.000000       0.000000       0.000000
      0.000349       0.000044       0.000000
      0.000348       0.000029       0.000000
      0.000000       0.000000       0.000000
      0.000000       0.000000       0.000000
      0.000349       0.000055       0.000000
      0.000349       0.000044       0.000000
      0.000348       0.000029       0.000000
      0.000349       0.000044       0.000000
      0.000671       0.000084       0.000000
      0.000659       0.000055       0.000000
      0.000349       0.000044       0.000000
      0.000349       0.000055       0.000000
      0.000681       0.000110       0.000000
      0.000671       0.000084       0.000000
      0.000000       0.000000       0.000000
      0.000000       0.000000       0.000000
      0.000345       0.000061       0.000000
      0.000349       0.000055       0.000000
      0.000000       0.000000       0.000000
      0.000000       0.000000       0.000000
      0.000342       0.000058       0.000000
      0.000345       0.000061       0.000000
      0.000349       0.000055       0.000000
      0.000345       0.000061       0.000000
      0.000687       0.000123       0.000000
      0.000681       0.000110       0.000000
      0.000345       0.000061       0.000000
      0.000342       0.000058       0.000000
      0.000692       0.000116       0.000000
      0.000687       0.000123       0.000000
      0.000647       0.000000       0.000000
      0.000650       0.000027       0.000000
      0.000907       0.000034       0.000000
      0.000899       0.000000       0.000000
      0.000650       0.000027       0.000000
      0.000659       0.000055       0.000000
      0.000928       0.000072       0.000000
      0.000907       0.000034       0.000000
      0.000899       0.000000       0.000000
      0.000907       0.000034       0.000000
      0.001102       0.000034       0.000000
      0.001089       0.000000       0.000000
      0.000907       0.000034       0.000000
      0.000928       0.000072       0.000000
      0.001139       0.000073       0.000000
      0.001102       0.000034       0.000000
      0.000659       0.000055       0.000000
      0.000671       0.000084       0.000000
      0.000959       0.000114       0.000000
      0.000928       0.000072       0.000000
      0.000671       0.000084       0.000000
      0.000681       0.000110       0.000000
      0.000994       0.000155       0.000000
      0.000959       0.000114       0.000000
      0.000928       0.000072       0.000000
      0.000959       0.000114       0.000000
      0.001200       0.000122       0.000000
      0.001139       0.000073       0.000000
      0.000959       0.000114       0.000000
      0.000994       0.000155       0.000000
      0.001277       0.000179       0.000000
      0.001200       0.000122       0.000000
      0.000681       0.000110       0.000000
      0.000687       0.000123       0.000000
      0.001024       0.000181       0.000000
      0.000994       0.000155       0.000000
      0.000687       0.000123       0.000000
      0.000692       0.000116       0.000000
      0.001049       0.000169       0.000000
      0.001024       0.000181       0.000000
      0.000994       0.000155       0.000000
      0.001024       0.000181       0.000000
      0.001356       0.000227       0.000000
      0.001277       0.000179       0.000000
      0.001024       0.000181       0.000000
      0.001049       0.000169       0.000000
      0.001422       0.000214       0.000000
      0.001356       0.000227       0.000000
      0.001089       0.000000       0.000000
      0.001102       0.000034       0.000000
      0.001221       0.000025       0.000000
      0.001204       0.000000       0.000000
      0.001102       0.000034       0.000000
      0.001139       0.000073       0.000000
      0.001272       0.000055       0.000000
      0.001221       0.000025       0.000000
      0.001204       0.000000       0.000000
      0.001221       0.000025       0.000000
      0.001253       0.000010       0.000000
      0.001236       0.000000       0.000000
      0.001221       0.000025       0.000000
      0.001272       0.000055       0.000000
      0.001306       0.000026       0.000000
      0.001253       0.000010       0.000000
      0.001139       0.000073       0.000000
      0.001200       0.000122       0.000000
      0.001362       0.000099       0.000000
      0.001272       0.000055       0.000000
      0.001200       0.000122       0.000000
      0.001277       0.000179       0.000000
      0.001496       0.000160       0.000000
      0.001362       0.000099       0.000000
      0.001272       0.000055       0.000000
      0.001362       0.000099       0.000000
      0.001403       0.000049       0.000000
      0.001306       0.000026       0.000000
      0.001362       0.000099       0.000000
      0.001496       0.000160       0.000000
      0.001563       0.000086       0.000000
      0.001403       0.000049       0.000000
      0.001277       0.000179       0.000000
      0.001318       0.000207       0.000000
      0.001459       0.000211       0.000000
      0.001399       0.000177       0.000000
      0.001318       0.000207       0.000000
      0.001356       0.000227       0.000000
      0.001519       0.000241       0.000000
      0.001459       0.000211       0.000000
      0.001399       0.000177       0.000000
      0.001459       0.000211       0.000000
      0.001581       0.000198       0.000000
      0.001496       0.000160       0.000000
      0.001459       0.000211       0.000000
      0.001519       0.000241       0.000000
      0.001673       0.000239       0.000000
      0.001581       0.000198       0.000000
      0.001356       0.000227       0.000000
      0.001390       0.000232       0.000000
      0.001573       0.000252       0.000000
      0.001519       0.000241       0.000000
      0.001390       0.000232       0.000000
      0.001422       0.000214       0.000000
      0.001622       0.000231       0.000000
      0.001573       0.000252       0.000000
      0.001519       0.000241       0.000000
      0.001573       0.000252       0.000000
      0.001764       0.000266       0.000000
      0.001673       0.000239       0.000000
      0.001573       0.000252       0.000000
      0.001622       0.000231       0.000000
      0.001841       0.000244       0.000000
      0.001764       0.000266       0.000000
      0.001496       0.000160       0.000000
      0.001581       0.000198       0.000000
      0.001663       0.000163       0.000000
      0.001555       0.000128       0.000000
      0.001581       0.000198       0.000000
      0.001673       0.000239       0.000000
      0.001797       0.000207       0.000000
      0.001663       0.000163       0.000000
      0.001555       0.000128       0.000000
      0.001663       0.000163       0.000000
      0.001678       0.000110       0.000000
      0.001563       0.000086       0.000000
      0.001663       0.000163       0.000000
      0.001797       0.000207       0.000000
      0.001833       0.000138       0.000000
      0.001678       0.000110       0.000000
      0.001673       0.000239       0.000000
      0.001720       0.000256       0.000000
      0.001802       0.000250       0.000000
      0.001742       0.000228       0.000000
      0.001720       0.000256       0.000000
      0.001764       0.000266       0.000000
      0.001861       0.000267       0.000000
      0.001802       0.000250       0.000000
      0.001742       0.000228       0.000000
      0.001802       0.000250       0.000000
      0.001875       0.000233       0.000000
      0.001797       0.000207       0.000000
      0.001802       0.000250       0.000000
      0.001861       0.000267       0.000000
      0.001958       0.000258       0.000000
      0.001875       0.000233       0.000000
      0.001764       0.000266       0.000000
      0.001803       0.000264       0.000000
      0.001915       0.000270       0.000000
      0.001861       0.000267       0.000000
      0.001803       0.000264       0.000000
      0.001841       0.000244       0.000000
      0.001965       0.000248       0.000000
      0.001915       0.000270       0.000000
      0.001861       0.000267       0.000000
      0.001915       0.000270       0.000000
      0.002037       0.000273       0.000000
      0.001958       0.000258       0.000000
      0.001915       0.000270       0.000000
      0.001965       0.000248       0.000000
      0.002107       0.000249       0.000000
      0.002037       0.000273       0.000000
      0.001797       0.000207       0.000000
      0.001875       0.000233       0.000000
      0.001926       0.000200       0.000000
      0.001831       0.000176       0.000000
      0.001875       0.000233       0.000000
      0.001958       0.000258       0.000000
      0.002039       0.000229       0.000000
      0.001926       0.000200       0.000000
      0.001831       0.000176       0.000000
      0.001926       0.000200       0.000000
      0.001935       0.000154       0.000000
      0.001833       0.000138       0.000000
      0.001926       0.000200       0.000000
      0.002039       0.000229       0.000000
      0.002065       0.000172       0.000000
      0.001935       0.000154       0.000000
      0.001958       0.000258       0.000000
      0.001999       0.000268       0.000000
      0.002053       0.000261       0.000000
      0.002002       0.000247       0.000000
      0.001999       0.000268       0.000000
      0.002037       0.000273       0.000000
      0.002103       0.000270       0.000000
      0.002053       0.000261       0.000000
      0.002002       0.000247       0.000000
      0.002053       0.000261       0.000000
      0.002103       0.000245       0.000000
      0.002039       0.000229       0.000000
      0.002053       0.000261       0.000000
      0.002103       0.000270       0.000000
      0.002171       0.000261       0.000000
      0.002103       0.000245       0.000000
      0.002037       0.000273       0.000000
      0.002073       0.000267       0.000000
      0.002149       0.000269       0.000000
      0.002103       0.000270       0.000000
      0.002073       0.000267       0.000000
      0.002107       0.000249       0.000000
      0.002191       0.000249       0.000000
      0.002149       0.000269       0.000000
      0.002103       0.000270       0.000000
      0.002149       0.000269       0.000000
      0.002234       0.000268       0.000000
      0.002171       0.000261       0.000000
      0.002149       0.000269       0.000000
      0.002191       0.000249       0.000000
      0.002291       0.000246       0.000000
      0.002234       0.000268       0.000000
      0.002039       0.000229       0.000000
      0.002103       0.000245       0.000000
      0.002140       0.000219       0.000000
      0.002062       0.000203       0.000000
      0.002103       0.000245       0.000000
      0.002171       0.000261       0.000000
      0.002231       0.000238       0.000000
      0.002140       0.000219       0.000000
      0.002062       0.000203       0.000000
      0.002140       0.000219       0.000000
      0.002148       0.000181       0.000000
      0.002065       0.000172       0.000000
      0.002140       0.000219       0.000000
      0.002231       0.000238       0.000000
      0.002252       0.000192       0.000000
      0.002148       0.000181       0.000000
      0.002171       0.000261       0.000000
      0.002234       0.000268       0.000000
      0.002333       0.000259       0.000000
      0.002231       0.000238       0.000000
      0.002234       0.000268       0.000000
      0.002291       0.000246       0.000000
      0.002428       0.000239       0.000000
      0.002333       0.000259       0.000000
      0.002231       0.000238       0.000000
      0.002333       0.000259       0.000000
      0.002399       0.000205       0.000000
      0.002252       0.000192       0.000000
      0.002333       0.000259       0.000000
      0.002428       0.000239       0.000000
      0.002758       0.000203       0.000000
      0.002399       0.000205       0.000000
      0.000000       0.000000       0.000000
      0.000000       0.000000       0.000000
      0.000343       0.000047       0.000000
      0.000342       0.000058       0.000000
      0.000000       0.000000       0.000000
      0.000000       0.000000       0.000000
      0.000350       0.000033       0.000000
      0.000343       0.000047       0.000000
      0.000342       0.000058       0.000000
      0.000343       0.000047       0.000000
      0.000703       0.000090       0.000000
      0.000692       0.000116       0.000000
      0.000343       0.000047       0.000000
      0.000350       0.000033       0.000000
      0.000724       0.000058       0.000000
      0.000703       0.000090       0.000000
      0.000000       0.000000       0.000000
      0.000000       0.000000       0.000000
      0.000360       0.000020       0.000000
      0.000350       0.000033       0.000000
      0.000000       0.000000       0.000000
      0.000000       0.000000       0.000000
      0.000372       0.000011       0.000000
      0.000360       0.000020       0.000000
      0.000350       0.000033       0.000000
      0.000360       0.000020       0.000000
      0.000749       0.000031       0.000000
      0.000724       0.000058       0.000000
      0.000360       0.000020       0.000000
      0.000372       0.000011       0.000000
      0.000771       0.000015       0.000000
      0.000749       0.000031       0.000000
      0.000000       0.000000       0.000000
      0.000000       0.000000       0.000000
      0.000380       0.000005       0.000000
      0.000372       0.000011       0.000000
      0.000000       0.000000       0.000000
      0.000000       0.000000       0.000000
      0.000382       0.000000       0.000000
      0.000380       0.000005       0.000000
      0.000372       0.000011       0.000000
      0.000380       0.000005       0.000000
      0.000786       0.000005       0.000000
      0.000771       0.000015       0.000000
      0.000380       0.000005       0.000000
      0.000382       0.000000       0.000000
      0.000792       0.000000       0.000000
      0.000786       0.000005       0.000000
      0.000692       0.000116       0.000000
      0.000703       0.000090       0.000000
      0.001083       0.000121       0.000000
      0.001049       0.000169       0.000000
      0.000703       0.000090       0.000000
      0.000724       0.000058       0.000000
      0.001128       0.000067       0.000000
      0.001083       0.000121       0.000000
      0.001049       0.000169       0.000000
      0.001083       0.000121       0.000000
      0.001497       0.000130       0.000000
      0.001422       0.000214       0.000000
      0.001083       0.000121       0.000000
      0.001128       0.000067       0.000000
      0.001578       0.000053       0.000000
      0.001497       0.000130       0.000000
      0.000724       0.000058       0.000000
      0.000749       0.000031       0.000000
      0.001172       0.000029       0.000000
      0.001128       0.000067       0.000000
      0.000749       0.000031       0.000000
      0.000771       0.000015       0.000000
      0.001206       0.000009       0.000000
      0.001172       0.000029       0.000000
      0.001128       0.000067       0.000000
      0.001172       0.000029       0.000000
      0.001641       0.000012       0.000000
      0.001578       0.000053       0.000000
      0.001172       0.000029       0.000000
      0.001206       0.000009       0.000000
      0.001682      -0.000003       0.000000
      0.001641       0.000012       0.000000
      0.000771       0.000015       0.000000
      0.000786       0.000005       0.000000
      0.001227       0.000002       0.000000
      0.001206       0.000009       0.000000
      0.000786       0.000005       0.000000
      0.000792       0.000000       0.000000
      0.001234       0.000000       0.000000
      0.001227       0.000002       0.000000
      0.001206       0.000009       0.000000
      0.001227       0.000002       0.000000
      0.001704      -0.000005       0.000000
      0.001682      -0.000003       0.000000
      0.001227       0.000002       0.000000
      0.001234       0.000000       0.000000
      0.001712       0.000000       0.000000
      0.001704      -0.000005       0.000000
      0.001578       0.000053       0.000000
      0.001641       0.000012       0.000000
      0.002170      -0.000014       0.000000
      0.002112       0.000014       0.000000
      0.001641       0.000012       0.000000
      0.001682      -0.000003       0.000000
      0.002201      -0.000019       0.000000
      0.002170      -0.000014       0.000000
      0.002112       0.000014       0.000000
      0.002170      -0.000014       0.000000
      0.002752      -0.000028       0.000000
      0.002752      -0.000014       0.000000
      0.002170      -0.000014       0.000000
      0.002201      -0.000019       0.000000
      0.002751      -0.000026       0.000000
      0.002752      -0.000028       0.000000
      0.001682      -0.000003       0.000000
      0.001704      -0.000005       0.000000
      0.002217      -0.000012       0.000000
      0.002201      -0.000019       0.000000
      0.001704      -0.000005       0.000000
      0.001712       0.000000       0.000000
      0.002222       0.000000       0.000000
      0.002217      -0.000012       0.000000
      0.002201      -0.000019       0.000000
      0.002217      -0.000012       0.000000
      0.002751      -0.000015       0.000000
      0.002751      -0.000026       0.000000
      0.002217      -0.000012       0.000000
      0.002222       0.000000       0.000000
      0.002751       0.000000       0.000000
      0.002751      -0.000015       0.000000
      0.001422       0.000214       0.000000
      0.001458       0.000176       0.000000
      0.001674       0.000179       0.000000
      0.001622       0.000231       0.000000
      0.001458       0.000176       0.000000
      0.001497       0.000130       0.000000
      0.001731       0.000120       0.000000
      0.001674       0.000179       0.000000
      0.001622       0.000231       0.000000
      0.001674       0.000179       0.000000
      0.001921       0.000168       0.000000
      0.001841       0.000244       0.000000
      0.001674       0.000179       0.000000
      0.001731       0.000120       0.000000
      0.002001       0.000094       0.000000
      0.001921       0.000168       0.000000
      0.001497       0.000130       0.000000
      0.001539       0.000087       0.000000
      0.001785       0.000071       0.000000
      0.001731       0.000120       0.000000
      0.001539       0.000087       0.000000
      0.001578       0.000053       0.000000
      0.001832       0.000036       0.000000
      0.001785       0.000071       0.000000
      0.001731       0.000120       0.000000
      0.001785       0.000071       0.000000
      0.002065       0.000045       0.000000