# vtk DataFile Version 2.0
time_10.vtk
ASCII
DATASET UNSTRUCTURED_GRID
POINTS  1152 float
      0.000000       0.000000       0.000000
      0.083333       0.000000       0.000000
      0.083333       0.083333       0.000000
      0.000000       0.083333       0.000000
      0.083333       0.000000       0.000000
      0.166667       0.000000       0.000000
      0.166667       0.083333       0.000000
      0.083333       0.083333       0.000000
      0.000000       0.083333       0.000000
      0.083333       0.083333       0.000000
      0.083333       0.166667       0.000000
      0.000000       0.166667       0.000000
      0.083333       0.083333       0.000000
      0.166667       0.083333       0.000000
      0.166667       0.166667       0.000000
      0.083333       0.166667       0.000000
      0.166667       0.000000       0.000000
      0.250000       0.000000       0.000000
      0.250000       0.083333       0.000000
      0.166667       0.083333       0.000000
      0.250000       0.000000       0.000000
      0.333333       0.000000       0.000000
      0.333333       0.083333       0.000000
      0.250000       0.083333       0.000000
      0.166667       0.083333       0.000000
      0.250000       0.083333       0.000000
      0.250000       0.166667       0.000000
      0.166667       0.166667       0.000000
      0.250000       0.083333       0.000000
      0.333333       0.083333       0.000000
      0.333333       0.166667       0.000000
      0.250000       0.166667       0.000000
      0.333333       0.000000       0.000000
      0.416667      -0.000000       0.000000
      0.416667       0.083333       0.000000
      0.333333       0.083333       0.000000
      0.416667      -0.000000       0.000000
      0.500000       0.000000       0.000000
      0.500000       0.083333       0.000000
      0.416667       0.083333       0.000000
      0.333333       0.083333       0.000000
      0.416667       0.083333       0.000000
      0.416667       0.166667       0.000000
      0.333333       0.166667       0.000000
      0.416667       0.083333       0.000000
      0.500000       0.083333       0.000000
      0.500000       0.166667       0.000000
      0.416667       0.166667       0.000000
      0.000000       0.166667       0.000000
      0.083333       0.166667       0.000000
      0.083333       0.250000       0.000000
      0.000000       0.250000       0.000000
      0.083333       0.166667       0.000000
      0.166667       0.166667       0.000000
      0.166667       0.250000       0.000000
      0.083333       0.250000       0.000000
      0.000000       0.250000       0.000000
      0.083333       0.250000       0.000000
      0.083333       0.333333       0.000000
      0.000000       0.333333       0.000000
      0.083333       0.250000       0.000000
      0.166667       0.250000       0.000000
      0.166667       0.333333       0.000000
      0.083333       0.333333       0.000000
      0.166667       0.166667       0.000000
      0.250000       0.166667       0.000000
      0.250000       0.250000       0.000000
      0.166667       0.250000       0.000000
      0.250000       0.166667       0.000000
      0.333333       0.166667       0.000000
      0.333333       0.250000       0.000000
      0.250000       0.250000       0.000000
      0.166667       0.250000       0.000000
      0.250000       0.250000       0.000000
      0.250000       0.333333       0.000000
      0.166667       0.333333       0.000000
      0.250000       0.250000       0.000000
      0.333333       0.250000       0.000000
      0.333333       0.333333       0.000000
      0.250000       0.333333       0.000000
      0.333333       0.166667       0.000000
      0.416667       0.166667       0.000000
      0.416667       0.250000       0.000000
      0.333333       0.250000       0.000000
      0.416667       0.166667       0.000000
      0.500000       0.166667       0.000000
      0.500000       0.250000       0.000000
      0.416667       0.250000       0.000000
      0.333333       0.250000       0.000000
      0.416667       0.250000       0.000000
      0.416667       0.333333       0.000000
      0.333333       0.333333       0.000000
      0.416667       0.250000       0.000000
      0.500000       0.250000       0.000000
      0.500000       0.333333       0.000000
      0.416667       0.333333       0.000000
      0.000000       0.333333       0.000000
      0.083333       0.333333       0.000000
      0.083333       0.416667       0.000000
     -0.000000       0.416667       0.000000
      0.083333       0.333333       0.000000
      0.166667       0.333333       0.000000
      0.166667       0.416667       0.000000
      0.083333       0.416667       0.000000
     -0.000000       0.416667       0.000000
      0.083333       0.416667       0.000000
      0.083333       0.500000       0.000000
      0.000000       0.500000       0.000000
      0.083333       0.416667       0.000000
      0.166667       0.416667       0.000000
      0.166667       0.500000       0.000000
      0.083333       0.500000       0.000000
      0.166667       0.333333       0.000000
      0.250000       0.333333       0.000000
      0.250000       0.416667       0.000000
      0.166667       0.416667       0.000000
      0.250000       0.333333       0.000000
      0.333333       0.333333       0.000000
      0.333333       0.416667       0.000000
      0.250000       0.416667       0.000000
      0.166667       0.416667       0.000000
      0.250000       0.416667       0.000000
      0.250000       0.500000       0.000000
      0.166667       0.500000       0.000000
      0.250000       0.416667       0.000000
      0.333333       0.416667       0.000000
      0.333333       0.500000       0.000000
      0.250000       0.500000       0.000000
      0.333333       0.333333       0.000000
      0.375000       0.333333       0.000000
      0.375000       0.375000       0.000000
      0.333333       0.375000       0.000000
      0.375000       0.333333       0.000000
      0.416667       0.333333       0.000000
      0.416667       0.375000       0.000000
      0.375000       0.375000       0.000000
      0.333333       0.375000       0.000000
      0.375000       0.375000       0.000000
      0.375000       0.416667       0.000000
      0.333333       0.416667       0.000000
      0.375000       0.375000       0.000000
      0.416667       0.375000       0.000000
      0.416667       0.416667       0.000000
      0.375000       0.416667       0.000000
      0.416667       0.333333       0.000000
      0.458333       0.333333       0.000000
      0.458333       0.375000       0.000000
      0.416667       0.375000       0.000000
      0.458333       0.333333       0.000000
      0.500000       0.333333       0.000000
      0.500000       0.375000       0.000000
      0.458333       0.375000       0.000000
      0.416667       0.375000       0.000000
      0.458333       0.375000       0.000000
      0.458333       0.416667       0.000000
      0.416667       0.416667       0.000000
      0.458333       0.375000       0.000000
      0.500000       0.375000       0.000000
      0.500000       0.416667       0.000000
      0.458333       0.416667       0.000000
      0.333333       0.416667       0.000000
      0.375000       0.416667       0.000000
      0.375000       0.458333       0.000000
      0.333333       0.458333       0.000000
      0.375000       0.416667       0.000000
      0.416667       0.416667       0.000000
      0.416667       0.458333       0.000000
      0.375000       0.458333       0.000000
      0.333333       0.458333       0.000000
      0.375000       0.458333       0.000000
      0.375000       0.500000       0.000000
      0.333333       0.500000       0.000000
      0.375000       0.458333       0.000000
      0.416667       0.458333       0.000000
      0.416667       0.500000       0.000000
      0.375000       0.500000       0.000000
      0.416667       0.416667       0.000000
      0.437500       0.416667       0.000000
      0.437500       0.437500       0.000000
      0.416667       0.437500       0.000000
      0.437500       0.416667       0.000000
      0.458333       0.416667       0.000000
      0.458333       0.437500       0.000000
      0.437500       0.437500       0.000000
      0.416667       0.437500       0.000000
      0.437500       0.437500       0.000000
      0.437500       0.458333       0.000000
      0.416667       0.458333       0.000000
      0.437500       0.437500       0.000000
      0.458333       0.437500       0.000000
      0.458333       0.458333       0.000000
      0.437500       0.458333       0.000000
      0.458333       0.416667       0.000000
      0.479167       0.416667       0.000000
      0.479167       0.437500       0.000000
      0.458333       0.437500       0.000000
      0.479167       0.416667       0.000000
      0.500000       0.416667       0.000000
      0.500000       0.437500       0.000000
      0.479167       0.437500       0.000000
      0.458333       0.437500       0.000000
      0.479167       0.437500       0.000000
      0.479167       0.458333       0.000000
      0.458333       0.458333       0.000000
      0.479167       0.437500       0.000000
      0.500000       0.437500       0.000000
      0.500000       0.458333       0.000000
      0.479167       0.458333       0.000000
      0.416667       0.458333       0.000000
      0.437500       0.458333       0.000000
      0.437500       0.479167       0.000000
      0.416667       0.479167       0.000000
      0.437500       0.458333       0.000000
      0.458333       0.458333       0.000000
      0.458333       0.479167       0.000000
      0.437500       0.479167       0.000000
      0.416667       0.479167       0.000000
      0.437500       0.479167       0.000000
      0.437500       0.500000       0.000000
      0.416667       0.500000       0.000000
[...]
POINT_DATA  1152
VECTORS U float 
      0.000000       0.000000       0.000000
      0.000000       0.000000       0.000000
      0.000511       0.000019       0.000000
      0.000508       0.000000       0.000000
      0.000000       0.000000       0.000000
      0.000000       0.000000       0.000000
      0.000520       0.000039       0.000000
      0.000511       0.000019       0.000000
      0.000508       0.000000       0.000000
      0.000511       0.000019       0.000000
      0.000956       0.000032       0.000000
      0.000949       0.000000       0.000000
      0.000511       0.000019       0.000000
      0.000520       0.000039       0.000000
      0.000978       0.000068       0.000000
      0.000956       0.000032       0.000000
      0.000000       0.000000       0.000000
      0.000000       0.000000       0.000000
      0.000532       0.000061       0.000000
      0.000520       0.000039       0.000000
      0.000000       0.000000       0.000000
      0.000000       0.000000       0.000000
      0.000542       0.000085       0.000000
      0.000532       0.000061       0.000000
      0.000520       0.000039       0.000000
      0.000532       0.000061       0.000000
      0.001010       0.000111       0.000000
      0.000978       0.000068       0.000000
      0.000532       0.000061       0.000000
      0.000542       0.000085       0.000000
      0.001044       0.000160       0.000000
      0.001010       0.000111       0.000000
      0.000000       0.000000       0.000000
      0.000000       0.000000       0.000000
      0.000544       0.000104       0.000000
      0.000542       0.000085       0.000000
      0.000000       0.000000       0.000000
      0.000000       0.000000       0.000000
      0.000540       0.000111       0.000000
      0.000544       0.000104       0.000000
      0.000542       0.000085       0.000000
      0.000544       0.000104       0.000000
      0.001070       0.000205       0.000000
      0.001044       0.000160       0.000000
      0.000544       0.000104       0.000000
      0.000540       0.000111       0.000000
      0.001084       0.000223       0.000000
      0.001070       0.000205       0.000000
      0.000949       0.000000       0.000000
      0.000956       0.000032       0.000000
      0.001323       0.000036       0.000000
      0.001310       0.000000       0.000000
      0.000956       0.000032       0.000000
      0.000978       0.000068       0.000000
      0.001362       0.000080       0.000000
      0.001323       0.000036       0.000000
      0.001310       0.000000       0.000000
      0.001323       0.000036       0.000000
      0.001596       0.000031       0.000000
      0.001577       0.000000       0.000000
      0.001323       0.000036       0.000000
      0.001362       0.000080       0.000000
      0.001652       0.000071       0.000000
      0.001596       0.000031       0.000000
      0.000978       0.000068       0.000000
      0.001010       0.000111       0.000000
      0.001424       0.000137       0.000000
      0.001362       0.000080       0.000000
      0.001010       0.000111       0.000000
      0.001044       0.000160       0.000000
      0.001500       0.000211       0.000000
      0.001424       0.000137       0.000000
      0.001362       0.000080       0.000000
      0.001424       0.000137       0.000000
      0.001747       0.000130       0.000000
      0.001652       0.000071       0.000000
      0.001424       0.000137       0.000000
      0.001500       0.000211       0.000000
      0.001882       0.000216       0.000000
      0.001747       0.000130       0.000000
      0.001044       0.000160       0.000000
      0.001070       0.000205       0.000000
      0.001576       0.000290       0.000000
      0.001500       0.000211       0.000000
      0.001070       0.000205       0.000000
      0.001084       0.000223       0.000000
      0.001633       0.000330       0.000000
      0.001576       0.000290       0.000000
      0.001500       0.000211       0.000000
      0.001576       0.000290       0.000000
      0.002046       0.000336       0.000000
      0.001882       0.000216       0.000000
      0.001576       0.000290       0.000000
      0.001633       0.000330       0.000000
      0.002192       0.000429       0.000000
      0.002046       0.000336       0.000000
      0.001577       0.000000       0.000000
      0.001596       0.000031       0.000000
      0.001761       0.000017       0.000000
      0.001739       0.000000       0.000000
      0.001596       0.000031       0.000000
      0.001652       0.000071       0.000000
      0.001828       0.000043       0.000000
      0.001761       0.000017       0.000000
      0.001739       0.000000       0.000000
      0.001761       0.000017       0.000000
      0.001814      -0.000001       0.000000
      0.001793       0.000000       0.000000
      0.001761       0.000017       0.000000
      0.001828       0.000043       0.000000
      0.001879       0.000005       0.000000
      0.001814      -0.000001       0.000000
      0.001652       0.000071       0.000000
      0.001747       0.000130       0.000000
      0.001946       0.000086       0.000000
      0.001828       0.000043       0.000000
      0.001747       0.000130       0.000000
      0.001882       0.000216       0.000000
      0.002127       0.000159       0.000000
      0.001946       0.000086       0.000000
      0.001828       0.000043       0.000000
      0.001946       0.000086       0.000000
      0.001994       0.000025       0.000000
      0.001879       0.000005       0.000000
      0.001946       0.000086       0.000000
      0.002127       0.000159       0.000000
      0.002172       0.000066       0.000000
      0.001994       0.000025       0.000000
      0.001882       0.000216       0.000000
      0.001962       0.000272       0.000000
      0.002130       0.000254       0.000000
      0.002027       0.000195       0.000000
      0.001962       0.000272       0.000000
      0.002046       0.000336       0.000000
      0.002248       0.000328       0.000000
      0.002130       0.000254       0.000000
      0.002027       0.000195       0.000000
      0.002130       0.000254       0.000000
      0.002248       0.000212       0.000000
      0.002127       0.000159       0.000000
      0.002130       0.000254       0.000000
      0.002248       0.000328       0.000000
      0.002399       0.000287       0.000000
      0.002248       0.000212       0.000000
      0.002046       0.000336       0.000000
      0.002125       0.000396       0.000000
      0.002371       0.000414       0.000000
      0.002248       0.000328       0.000000
      0.002125       0.000396       0.000000
      0.002192       0.000429       0.000000
      0.002479       0.000474       0.000000
      0.002371       0.000414       0.000000
      0.002248       0.000328       0.000000
      0.002371       0.000414       0.000000
      0.002582       0.000398       0.000000
      0.002399       0.000287       0.000000
      0.002371       0.000414       0.000000
      0.002479       0.000474       0.000000
      0.002770       0.000514       0.000000
      0.002582       0.000398       0.000000
      0.002127       0.000159       0.000000
      0.002248       0.000212       0.000000
      0.002301       0.000155       0.000000
      0.002175       0.000113       0.000000
      0.002248       0.000212       0.000000
      0.002399       0.000287       0.000000
      0.002459       0.000213       0.000000
      0.002301       0.000155       0.000000
      0.002175       0.000113       0.000000
      0.002301       0.000155       0.000000
      0.002290       0.000098       0.000000
      0.002172       0.000066       0.000000
      0.002301       0.000155       0.000000
      0.002459       0.000213       0.000000
      0.002431       0.000141       0.000000
      0.002290       0.000098       0.000000
      0.002399       0.000287       0.000000
      0.002487       0.000337       0.000000
      0.002540       0.000301       0.000000
      0.002442       0.000252       0.000000
      0.002487       0.000337       0.000000
      0.002582       0.000398       0.000000
      0.002655       0.000366       0.000000
      0.002540       0.000301       0.000000
      0.002442       0.000252       0.000000
      0.002540       0.000301       0.000000
      0.002558       0.000254       0.000000
      0.002459       0.000213       0.000000
      0.002540       0.000301       0.000000
      0.002655       0.000366       0.000000
      0.002682       0.000313       0.000000
      0.002558       0.000254       0.000000
      0.002582       0.000398       0.000000
      0.002679       0.000464       0.000000
      0.002785       0.000452       0.000000
      0.002655       0.000366       0.000000
      0.002679       0.000464       0.000000
      0.002770       0.000514       0.000000
      0.002917       0.000531       0.000000
      0.002785       0.000452       0.000000
      0.002655       0.000366       0.000000
      0.002785       0.000452       0.000000
      0.002848       0.000411       0.000000
      0.002682       0.000313       0.000000
      0.002785       0.000452       0.000000
      0.002917       0.000531       0.000000
      0.003063       0.000541       0.000000
      0.002848       0.000411       0.000000
      0.002459       0.000213       0.000000
      0.002558       0.000254       0.000000
      0.002541       0.000207       0.000000
      0.002452       0.000175       0.000000
      0.002558       0.000254       0.000000
      0.002682       0.000313       0.000000
      0.002648       0.000251       0.000000
      0.002541       0.000207       0.000000
      0.002452       0.000175       0.000000
      0.002541       0.000207       0.000000
      0.002509       0.000169       0.000000
      0.002431       0.000141       0.000000
      0.002541       0.000207       0.000000
      0.002648       0.000251       0.000000
      0.002593       0.000206       0.000000
      0.002509       0.000169       0.000000
      0.002682       0.000313       0.000000
      0.002758       0.000356       0.000000
      0.002748       0.000320       0.000000
      0.002672       0.000282       0.000000
      0.002758       0.000356       0.000000
      0.002848       0.000411       0.000000
      0.002846       0.000374       0.000000
      0.002748       0.000320       0.000000
      0.002672       0.000282       0.000000
      0.002748       0.000320       0.000000
      0.002717       0.000282       0.000000
      0.002648       0.000251       0.000000
      0.002748       0.000320       0.000000
      0.002846       0.000374       0.000000
      0.002808       0.000328       0.000000
      0.002717       0.000282       0.000000
      0.002848       0.000411       0.000000
      0.002951       0.000478       0.000000
      0.002974       0.000452       0.000000
      0.002846       0.000374       0.000000
      0.002951       0.000478       0.000000
      0.003063       0.000541       0.000000
      0.003135       0.000540       0.000000
      0.002974       0.000452       0.000000
      0.002846       0.000374       0.000000
      0.002974       0.000452       0.000000
      0.002952       0.000404       0.000000
      0.002808       0.000328       0.000000
      0.002974       0.000452       0.000000
      0.003135       0.000540       0.000000
      0.003204       0.000526       0.000000
      0.002952       0.000404       0.000000
      0.002648       0.000251       0.000000
      0.002717       0.000282       0.000000
      0.002673       0.000251       0.000000
      0.002619       0.000226       0.000000
      0.002717       0.000282       0.000000
      0.002808       0.000328       0.000000
      0.002741       0.000283       0.000000
      0.002673       0.000251       0.000000
      0.002619       0.000226       0.000000
      0.002673       0.000251       0.000000
      0.002638       0.000229       0.000000
      0.002593       0.000206       0.000000
      0.002673       0.000251       0.000000
      0.002741       0.000283       0.000000
      0.002687       0.000258       0.000000
      0.002638       0.000229       0.000000
      0.002808       0.000328       0.000000
      0.002952       0.000404       0.000000
      0.002855       0.000334       0.000000
      0.002741       0.000283       0.000000
      0.002952       0.000404       0.000000
      0.003204       0.000526       0.000000
      0.003292       0.000462       0.000000
      0.002855       0.000334       0.000000
      0.002741       0.000283       0.000000
      0.002855       0.000334       0.000000
      0.002765       0.000300       0.000000
      0.002687       0.000258       0.000000
      0.002855       0.000334       0.000000
      0.003292       0.000462       0.000000
      0.005754       0.000397       0.000000
      0.002765       0.000300       0.000000
      0.000000       0.000000       0.000000
      0.000000       0.000000       0.000000
      0.000536       0.000101       0.000000
      0.000540       0.000111       0.000000
      0.000000       0.000000       0.000000
      0.000000       0.000000       0.000000
      0.000541       0.000077       0.000000
      0.000536       0.000101       0.000000
      0.000540       0.000111       0.000000
      0.000536       0.000101       0.000000
      0.001098       0.000198       0.000000
      0.001084       0.000223       0.000000
      0.000536       0.000101       0.000000
      0.000541       0.000077       0.000000
      0.001125       0.000142       0.000000
      0.001098       0.000198       0.000000
      0.000000       0.000000       0.000000
      0.000000       0.000000       0.000000
      0.000555       0.000051       0.000000
      0.000541       0.000077       0.000000
      0.000000       0.000000       0.000000
      0.000000       0.000000       0.000000
      0.000573       0.000029       0.000000
      0.000555       0.000051       0.000000
      0.000541       0.000077       0.000000
      0.000555       0.000051       0.000000
      0.001165       0.000085       0.000000
      0.001125       0.000142       0.000000
      0.000555       0.000051       0.000000
      0.000573       0.000029       0.000000
      0.001205       0.000043       0.000000
      0.001165       0.000085       0.000000
      0.000000       0.000000       0.000000
      0.000000       0.000000       0.000000
      0.000587       0.000012       0.000000
      0.000573       0.000029       0.000000
      0.000000       0.000000       0.000000
      0.000000       0.000000       0.000000
      0.000592       0.000000       0.000000
      0.000587       0.000012       0.000000
      0.000573       0.000029       0.000000
      0.000587       0.000012       0.000000
      0.001234       0.000017       0.000000
      0.001205       0.000043       0.000000
      0.000587       0.000012       0.000000
      0.000592       0.000000       0.000000
      0.001244       0.000000       0.000000
      0.001234       0.000017       0.000000
      0.001084       0.000223       0.000000
      0.001098       0.000198       0.000000
      0.001685       0.000283       0.000000
      0.001633       0.000330       0.000000
      0.001098       0.000198       0.000000
      0.001125       0.000142       0.000000
      0.001760       0.000182       0.000000
      0.001685       0.000283       0.000000
      0.001633       0.000330       0.000000
      0.001685       0.000283       0.000000
      0.002322       0.000339       0.000000
      0.002192       0.000429       0.000000
      0.001685       0.000283       0.000000
      0.001760       0.000182       0.000000
      0.002484       0.000173       0.000000
      0.002322       0.000339       0.000000
      0.001125       0.000142       0.000000
      0.001165       0.000085       0.000000
      0.001843       0.000093       0.000000
      0.001760       0.000182       0.000000
      0.001165       0.000085       0.000000
      0.001205       0.000043       0.000000
      0.001913       0.000039       0.000000
      0.001843       0.000093       0.000000
      0.001760       0.000182       0.000000
      0.001843       0.000093       0.000000
      0.002624       0.000064       0.000000
      0.002484       0.000173       0.000000
      0.001843       0.000093       0.000000
      0.001913       0.000039       0.000000
      0.002719       0.000014       0.000000
      0.002624       0.000064       0.000000
      0.001205       0.000043       0.000000
      0.001234       0.000017       0.000000
      0.001957       0.000013       0.000000
      0.001913       0.000039       0.000000
      0.001234       0.000017       0.000000
      0.001244       0.000000       0.000000
      0.001972       0.000000       0.000000
      0.001957       0.000013       0.000000
      0.001913       0.000039       0.000000
      0.001957       0.000013       0.000000
      0.002771      -0.000001       0.000000
      0.002719       0.000014       0.000000
      0.001957       0.000013       0.000000
      0.001972       0.000000       0.000000
      0.002788       0.000000       0.000000
      0.002771      -0.000001       0.000000
      0.002484       0.000173       0.000000
      0.002624       0.000064       0.000000
      0.003564       0.000005       0.000000
      0.003415       0.000092       0.000000
      0.002624       0.000064       0.000000
      0.002719       0.000014       0.000000
      0.003640      -0.000021       0.000000
      0.003564       0.000005       0.000000
      0.003415       0.000092       0.000000
      0.003564       0.000005       0.000000
      0.004657      -0.000025       0.000000
      0.004676       0.000029       0.000000
      0.003564       0.000005       0.000000
      0.003640      -0.000021       0.000000
      0.004649      -0.000035       0.000000
      0.004657      -0.000025       0.000000
      0.002719       0.000014       0.000000
      0.002771      -0.000001       0.000000
      0.003678      -0.000017       0.000000
      0.003640      -0.000021       0.000000
      0.002771      -0.000001       0.000000
      0.002788       0.000000       0.000000
      0.003689       0.000000       0.000000
      0.003678      -0.000017       0.000000
      0.003640      -0.000021       0.000000
      0.003678      -0.000017       0.000000
      0.004645      -0.000023       0.000000
      0.004649      -0.000035       0.000000
      0.003678      -0.000017       0.000000
      0.003689       0.000000       0.000000
      0.004644       0.000000       0.000000
      0.004645      -0.000023       0.000000
      0.002192       0.000429       0.000000
      0.002254       0.000408       0.000000
      0.002575       0.000446       0.000000
      0.002479       0.000474       0.000000
      0.002254       0.000408       0.000000
      0.002322       0.000339       0.000000
      0.002685       0.000344       0.000000
      0.002575       0.000446       0.000000
      0.002479       0.000474       0.000000
      0.002575       0.000446       0.000000
      0.002943       0.000470       0.000000
      0.002770       0.000514       0.000000
      0.002575       0.000446       0.000000
      0.002685       0.000344       0.000000
      0.003130       0.000312       0.000000
      0.002943       0.000470       0.000000
      0.002322       0.000339       0.000000
      0.002402       0.000253       0.000000
      0.002804       0.000231       0.000000
      0.002685       0.000344       0.000000
      0.002402       0.000253       0.000000
      0.002484       0.000173       0.000000
      0.002912       0.000141       0.000000
      0.002804       0.000231       0.000000
      0.002685       0.000344       0.000000
      0.002804       0.000231       0.000000
      0.003294       0.000179       0.000000