# vtk DataFile Version 2.0
time_10.vtk
ASCII
DATASET UNSTRUCTURED_GRID
POINTS  3336 float
      0.000000       0.000000       0.000000
      0.083333       0.000000       0.000000
      0.083333       0.083333       0.000000
      0.000000       0.083333       0.000000
      0.083333       0.000000       0.000000
      0.166667       0.000000       0.000000
      0.166667       0.083333       0.000000
      0.083333       0.083333       0.000000
      0.000000       0.083333       0.000000
      0.083333       0.083333       0.000000
      0.083333       0.166667       0.000000
      0.000000       0.166667       0.000000
      0.083333       0.083333       0.000000
      0.166667       0.083333       0.000000
      0.166667       0.166667       0.000000
      0.083333       0.166667       0.000000
      0.166667       0.000000       0.000000
      0.250000       0.000000       0.000000
      0.250000       0.083333       0.000000
      0.166667       0.083333       0.000000
      0.250000       0.000000       0.000000
      0.333333       0.000000       0.000000
      0.333333       0.083333       0.000000
      0.250000       0.083333       0.000000
      0.166667       0.083333       0.000000
      0.250000       0.083333       0.000000
      0.250000       0.166667       0.000000
      0.166667       0.166667       0.000000
      0.250000       0.083333       0.000000
      0.333333       0.083333       0.000000
      0.333333       0.166667       0.000000
      0.250000       0.166667       0.000000
      0.333333       0.000000       0.000000
      0.416667      -0.000000       0.000000
      0.416667       0.083333       0.000000
      0.333333       0.083333       0.000000
      0.416667      -0.000000       0.000000
      0.500000       0.000000       0.000000
      0.500000       0.083333       0.000000
      0.416667       0.083333       0.000000
      0.333333       0.083333       0.000000
      0.416667       0.083333       0.000000
      0.416667       0.166667       0.000000
      0.333333       0.166667       0.000000
      0.416667       0.083333       0.000000
      0.500000       0.083333       0.000000
      0.500000       0.166667       0.000000
      0.416667       0.166667       0.000000
      0.000000       0.166667       0.000000
      0.083333       0.166667       0.000000
      0.083333       0.250000       0.000000
      0.000000       0.250000       0.000000
      0.083333       0.166667       0.000000
      0.166667       0.166667       0.000000
      0.166667       0.250000       0.000000
      0.083333       0.250000       0.000000
      0.000000       0.250000       0.000000
      0.083333       0.250000       0.000000
      0.083333       0.333333       0.000000
      0.000000       0.333333       0.000000
      0.083333       0.250000       0.000000
      0.166667       0.250000       0.000000
      0.166667       0.333333       0.000000
      0.083333       0.333333       0.000000
      0.166667       0.166667       0.000000
      0.250000       0.166667       0.000000
      0.250000       0.250000       0.000000
      0.166667       0.250000       0.000000
      0.250000       0.166667       0.000000
      0.333333       0.166667       0.000000
      0.333333       0.250000       0.000000
      0.250000       0.250000       0.000000
      0.166667       0.250000       0.000000
      0.250000       0.250000       0.000000
      0.250000       0.333333       0.000000
      0.166667       0.333333       0.000000
      0.250000       0.250000       0.000000
      0.333333       0.250000       0.000000
      0.333333       0.333333       0.000000
      0.250000       0.333333       0.000000
      0.333333       0.166667       0.000000
      0.416667       0.166667       0.000000
      0.416667       0.250000       0.000000
      0.333333       0.250000       0.000000
      0.333333       0.250000       0.000000
      0.416667       0.250000       0.000000
      0.416667       0.333333       0.000000
      0.333333       0.333333       0.000000
      0.000000       0.333333       0.000000
      0.083333       0.333333       0.000000
      0.083333       0.416667       0.000000
     -0.000000       0.416667       0.000000
      0.083333       0.333333       0.000000
      0.166667       0.333333       0.000000
      0.166667       0.416667       0.000000
      0.083333       0.416667       0.000000
     -0.000000       0.416667       0.000000
      0.083333       0.416667       0.000000
      0.083333       0.500000       0.000000
      0.000000       0.500000       0.000000
      0.083333       0.416667       0.000000
      0.166667       0.416667       0.000000
      0.166667       0.500000       0.000000
      0.083333       0.500000       0.000000
      0.166667       0.333333       0.000000
      0.250000       0.333333       0.000000
      0.250000       0.416667       0.000000
      0.166667       0.416667       0.000000
      0.250000       0.333333       0.000000
      0.333333       0.333333       0.000000
      0.333333       0.416667       0.000000
      0.250000       0.416667       0.000000
      0.166667       0.416667       0.000000
      0.250000       0.416667       0.000000
      0.250000       0.500000       0.000000
      0.166667       0.500000       0.000000
      0.250000       0.416667       0.000000
      0.333333       0.416667       0.000000
      0.333333       0.500000       0.000000
      0.250000       0.500000       0.000000
      0.333333       0.333333       0.000000
      0.375000       0.333333       0.000000
      0.375000       0.375000       0.000000
      0.333333       0.375000       0.000000
      0.375000       0.333333       0.000000
      0.416667       0.333333       0.000000
      0.416667       0.375000       0.000000
      0.375000       0.375000       0.000000
      0.333333       0.375000       0.000000
      0.375000       0.375000       0.000000
      0.375000       0.416667       0.000000
      0.333333       0.416667       0.000000
      0.375000       0.375000       0.000000
      0.416667       0.375000       0.000000
      0.416667       0.416667       0.000000
      0.375000       0.416667       0.000000
      0.416667       0.333333       0.000000
      0.458333       0.333333       0.000000
      0.458333       0.375000       0.000000
      0.416667       0.375000       0.000000
      0.416667       0.375000       0.000000
      0.458333       0.375000       0.000000
      0.458333       0.416667       0.000000
      0.416667       0.416667       0.000000
      0.333333       0.416667       0.000000
      0.375000       0.416667       0.000000
      0.375000       0.458333       0.000000
      0.333333       0.458333       0.000000
      0.375000       0.416667       0.000000
      0.416667       0.416667       0.000000
      0.416667       0.458333       0.000000
      0.375000       0.458333       0.000000
      0.333333       0.458333       0.000000
      0.375000       0.458333       0.000000
      0.375000       0.500000       0.000000
      0.333333       0.500000       0.000000
      0.375000       0.458333       0.000000
      0.416667       0.458333       0.000000
      0.416667       0.500000       0.000000
      0.375000       0.500000       0.000000
      0.416667       0.416667       0.000000
      0.437500       0.416667       0.000000
      0.437500       0.437500       0.000000
      0.416667       0.437500       0.000000
      0.437500       0.416667       0.000000
      0.458333       0.416667       0.000000
      0.458333       0.437500       0.000000
      0.437500       0.437500       0.000000
      0.416667       0.437500       0.000000
      0.437500       0.437500       0.000000
      0.437500       0.458333       0.000000
      0.416667       0.458333       0.000000
      0.437500       0.437500       0.000000
      0.458333       0.437500       0.000000
      0.458333       0.458333       0.000000
      0.437500       0.458333       0.000000
      0.458333       0.416667       0.000000
      0.479167       0.416667       0.000000
      0.479167       0.437500       0.000000
      0.458333       0.437500       0.000000
      0.458333       0.437500       0.000000
      0.479167       0.437500       0.000000
      0.479167       0.458333       0.000000
      0.458333       0.458333       0.000000
      0.416667       0.458333       0.000000
      0.437500       0.458333       0.000000
      0.437500       0.479167       0.000000
      0.416667       0.479167       0.000000
      0.437500       0.458333       0.000000
      0.458333       0.458333       0.000000
      0.458333       0.479167       0.000000
      0.437500       0.479167       0.000000
      0.416667       0.479167       0.000000
      0.437500       0.479167       0.000000
      0.437500       0.500000       0.000000
      0.416667       0.500000       0.000000
      0.437500       0.479167       0.000000
      0.458333       0.479167       0.000000
      0.458333       0.500000       0.000000
      0.437500       0.500000       0.000000
      0.458333       0.458333       0.000000
      0.468750       0.458333       0.000000
      0.468750       0.468750       0.000000
      0.458333       0.468750       0.000000
      0.468750       0.458333       0.000000
      0.479167       0.458333       0.000000
      0.479167       0.468750       0.000000
      0.468750       0.468750       0.000000
      0.458333       0.468750       0.000000
      0.468750       0.468750       0.000000
      0.468750       0.479167       0.000000
      0.458333       0.479167       0.000000
      0.468750       0.468750       0.000000
      0.479167       0.468750       0.000000
      0.479167       0.479167       0.000000
      0.468750       0.479167       0.000000
      0.479167       0.458333       0.000000
      0.489583       0.458333       0.000000
      0.489583       0.468750       0.000000
      0.479167       0.468750       0.000000
[...]
POINT_DATA  3336
VECTORS U float 
      0.000000       0.000000       0.000000
      0.000000       0.000000       0.000000
      0.000021       0.000000       0.000000
      0.000021       0.000000       0.000000
      0.000000       0.000000       0.000000
      0.000000       0.000000       0.000000
      0.000022       0.000000       0.000000
      0.000021       0.000000       0.000000
      0.000021       0.000000       0.000000
      0.000021       0.000000       0.000000
      0.000040      -0.000000       0.000000
      0.000039       0.000000       0.000000
      0.000021       0.000000       0.000000
      0.000022       0.000000       0.000000
      0.000041      -0.000000       0.000000
      0.000040      -0.000000       0.000000
      0.000000       0.000000       0.000000
      0.000000       0.000000       0.000000
      0.000024       0.000000       0.000000
      0.000022       0.000000       0.000000
      0.000000       0.000000       0.000000
      0.000000       0.000000       0.000000
      0.000026       0.000001       0.000000
      0.000024       0.000000       0.000000
      0.000022       0.000000       0.000000
      0.000024       0.000000       0.000000
      0.000045      -0.000001       0.000000
      0.000041      -0.000000       0.000000
      0.000024       0.000000       0.000000
      0.000026       0.000001       0.000000
      0.000049      -0.000001       0.000000
      0.000045      -0.000001       0.000000
      0.000000       0.000000       0.000000
      0.000000       0.000000       0.000000
      0.000031       0.000001       0.000000
      0.000026       0.000001       0.000000
      0.000000       0.000000       0.000000
      0.000000       0.000000       0.000000
      0.000037       0.000000       0.000000
      0.000031       0.000001       0.000000
      0.000026       0.000001       0.000000
      0.000031       0.000001       0.000000
      0.000056      -0.000002       0.000000
      0.000049      -0.000001       0.000000
      0.000031       0.000001       0.000000
      0.000037       0.000000       0.000000
      0.000065      -0.000003       0.000000
      0.000056      -0.000002       0.000000
      0.000039       0.000000       0.000000
      0.000040      -0.000000       0.000000
      0.000055      -0.000001       0.000000
      0.000055       0.000000       0.000000
      0.000040      -0.000000       0.000000
      0.000041      -0.000000       0.000000
      0.000058      -0.000001       0.000000
      0.000055      -0.000001       0.000000
      0.000055       0.000000       0.000000
      0.000055      -0.000001       0.000000
      0.000068      -0.000001       0.000000
      0.000067       0.000000       0.000000
      0.000055      -0.000001       0.000000
      0.000058      -0.000001       0.000000
      0.000070      -0.000003       0.000000
      0.000068      -0.000001       0.000000
      0.000041      -0.000000       0.000000
      0.000045      -0.000001       0.000000
      0.000061      -0.000002       0.000000
      0.000058      -0.000001       0.000000
      0.000045      -0.000001       0.000000
      0.000049      -0.000001       0.000000
      0.000067      -0.000003       0.000000
      0.000061      -0.000002       0.000000
      0.000058      -0.000001       0.000000
      0.000061      -0.000002       0.000000
      0.000074      -0.000004       0.000000
      0.000070      -0.000003       0.000000
      0.000061      -0.000002       0.000000
      0.000067      -0.000003       0.000000
      0.000080      -0.000006       0.000000
      0.000074      -0.000004       0.000000
      0.000049      -0.000001       0.000000
      0.000056      -0.000002       0.000000
      0.000074      -0.000005       0.000000
      0.000067      -0.000003       0.000000
      0.000067      -0.000003       0.000000
      0.000074      -0.000005       0.000000
      0.000087      -0.000008       0.000000
      0.000080      -0.000006       0.000000
      0.000067       0.000000       0.000000
      0.000068      -0.000001       0.000000
      0.000076      -0.000002       0.000000
      0.000075       0.000000       0.000000
      0.000068      -0.000001       0.000000
      0.000070      -0.000003       0.000000
      0.000079      -0.000004       0.000000
      0.000076      -0.000002       0.000000
      0.000075       0.000000       0.000000
      0.000076      -0.000002       0.000000
      0.000081      -0.000003       0.000000
      0.000080       0.000000       0.000000
      0.000076      -0.000002       0.000000
      0.000079      -0.000004       0.000000
      0.000083      -0.000006       0.000000
      0.000081      -0.000003       0.000000
      0.000070      -0.000003       0.000000
      0.000074      -0.000004       0.000000
      0.000083      -0.000007       0.000000
      0.000079      -0.000004       0.000000
      0.000074      -0.000004       0.000000
      0.000080      -0.000006       0.000000
      0.000088      -0.000009       0.000000
      0.000083      -0.000007       0.000000
      0.000079      -0.000004       0.000000
      0.000083      -0.000007       0.000000
      0.000087      -0.000009       0.000000
      0.000083      -0.000006       0.000000
      0.000083      -0.000007       0.000000
      0.000088      -0.000009       0.000000
      0.000092      -0.000011       0.000000
      0.000087      -0.000009       0.000000
      0.000080      -0.000006       0.000000
      0.000083      -0.000007       0.000000
      0.000088      -0.000008       0.000000
      0.000085      -0.000007       0.000000
      0.000083      -0.000007       0.000000
      0.000087      -0.000008       0.000000
      0.000092      -0.000009       0.000000
      0.000088      -0.000008       0.000000
      0.000085      -0.000007       0.000000
      0.000088      -0.000008       0.000000
      0.000091      -0.000010       0.000000
      0.000088      -0.000009       0.000000
      0.000088      -0.000008       0.000000
      0.000092      -0.000009       0.000000
      0.000095      -0.000010       0.000000
      0.000091      -0.000010       0.000000
      0.000087      -0.000008       0.000000
      0.000091      -0.000008       0.000000
      0.000096      -0.000009       0.000000
      0.000092      -0.000009       0.000000
      0.000092      -0.000009       0.000000
      0.000096      -0.000009       0.000000
      0.000099      -0.000011       0.000000
      0.000095      -0.000010       0.000000
      0.000088      -0.000009       0.000000
      0.000091      -0.000010       0.000000
      0.000094      -0.000011       0.000000
      0.000091      -0.000010       0.000000
      0.000091      -0.000010       0.000000
      0.000095      -0.000010       0.000000
      0.000098      -0.000012       0.000000
      0.000094      -0.000011       0.000000
      0.000091      -0.000010       0.000000
      0.000094      -0.000011       0.000000
      0.000096      -0.000013       0.000000
      0.000092      -0.000011       0.000000
      0.000094      -0.000011       0.000000
      0.000098      -0.000012       0.000000
      0.000099      -0.000014       0.000000
      0.000096      -0.000013       0.000000
      0.000095      -0.000010       0.000000
      0.000097      -0.000011       0.000000
      0.000098      -0.000011       0.000000
      0.000096      -0.000011       0.000000
      0.000097      -0.000011       0.000000
      0.000099      -0.000011       0.000000
      0.000101      -0.000012       0.000000
      0.000098      -0.000011       0.000000
      0.000096      -0.000011       0.000000
      0.000098      -0.000011       0.000000
      0.000100      -0.000012       0.000000
      0.000098      -0.000012       0.000000
      0.000098      -0.000011       0.000000
      0.000101      -0.000012       0.000000
      0.000102      -0.000012       0.000000
      0.000100      -0.000012       0.000000
      0.000099      -0.000011       0.000000
      0.000101      -0.000011       0.000000
      0.000103      -0.000011       0.000000
      0.000101      -0.000012       0.000000
      0.000101      -0.000012       0.000000
      0.000103      -0.000011       0.000000
      0.000104      -0.000012       0.000000
      0.000102      -0.000012       0.000000
      0.000098      -0.000012       0.000000
      0.000100      -0.000012       0.000000
      0.000100      -0.000013       0.000000
      0.000098      -0.000013       0.000000
      0.000100      -0.000012       0.000000
      0.000102      -0.000012       0.000000
      0.000103      -0.000013       0.000000
      0.000100      -0.000013       0.000000
      0.000098      -0.000013       0.000000
      0.000100      -0.000013       0.000000
      0.000101      -0.000014       0.000000
      0.000099      -0.000014       0.000000
      0.000100      -0.000013       0.000000
      0.000103      -0.000013       0.000000
      0.000104      -0.000014       0.000000
      0.000101      -0.000014       0.000000
      0.000102      -0.000012       0.000000
      0.000103      -0.000012       0.000000
      0.000103      -0.000013       0.000000
      0.000102      -0.000013       0.000000
      0.000103      -0.000012       0.000000
      0.000104      -0.000012       0.000000
      0.000105      -0.000013       0.000000
      0.000103      -0.000013       0.000000
      0.000102      -0.000013       0.000000
      0.000103      -0.000013       0.000000
      0.000104      -0.000013       0.000000
      0.000103      -0.000013       0.000000
      0.000103      -0.000013       0.000000
      0.000105      -0.000013       0.000000
      0.000106      -0.000014       0.000000
      0.000104      -0.000013       0.000000
      0.000104      -0.000012       0.000000
      0.000106      -0.000012       0.000000
      0.000108      -0.000012       0.000000
      0.000105      -0.000013       0.000000
      0.000106      -0.000012       0.000000
      0.000110      -0.000011       0.000000
      0.000114      -0.000005       0.000000
      0.000108      -0.000012       0.000000
      0.000105      -0.000013       0.000000
      0.000108      -0.000012       0.000000
      0.000109      -0.000013       0.000000
      0.000106      -0.000014       0.000000
      0.000108      -0.000012       0.000000
      0.000114      -0.000005       0.000000
      0.000137       0.000007       0.000000
      0.000109      -0.000013       0.000000
      0.000103      -0.000013       0.000000
      0.000104      -0.000013       0.000000
      0.000105      -0.000014       0.000000
      0.000103      -0.000014       0.000000
      0.000104      -0.000013       0.000000
      0.000106      -0.000014       0.000000
      0.000107      -0.000016       0.000000
      0.000105      -0.000014       0.000000
      0.000103      -0.000014       0.000000
      0.000105      -0.000014       0.000000
      0.000107      -0.000014       0.000000
      0.000104      -0.000014       0.000000
      0.000105      -0.000014       0.000000
      0.000107      -0.000016       0.000000
      0.000115      -0.000011       0.000000
      0.000107      -0.000014       0.000000
      0.000106      -0.000014       0.000000
      0.000109      -0.000013       0.000000
      0.000113      -0.000020       0.000000
      0.000107      -0.000016       0.000000
      0.000109      -0.000013       0.000000
      0.000137       0.000007       0.000000
      0.000349       0.000185       0.000000
      0.000113      -0.000020       0.000000
      0.000107      -0.000016       0.000000
      0.000113      -0.000020       0.000000
      0.000193      -0.000000       0.000000
      0.000115      -0.000011       0.000000
      0.000113      -0.000020       0.000000
      0.000349       0.000185       0.000000
      0.010896       0.000799       0.000000
      0.000193      -0.000000       0.000000
      0.000103      -0.000011       0.000000
      0.000104      -0.000011       0.000000
      0.000105      -0.000011       0.000000
      0.000104      -0.000012       0.000000
      0.000104      -0.000011       0.000000
      0.000106      -0.000011       0.000000
      0.000107      -0.000011       0.000000
      0.000105      -0.000011       0.000000
      0.000104      -0.000012       0.000000
      0.000105      -0.000011       0.000000
      0.000106      -0.000012       0.000000
      0.000104      -0.000012       0.000000
      0.000105      -0.000011       0.000000
      0.000107      -0.000011       0.000000
      0.000110      -0.000011       0.000000
      0.000106      -0.000012       0.000000
      0.000096      -0.000009       0.000000
      0.000098      -0.000010       0.000000
      0.000100      -0.000010       0.000000
      0.000098      -0.000010       0.000000
      0.000098      -0.000010       0.000000
      0.000100      -0.000010       0.000000
      0.000102      -0.000010       0.000000
      0.000100      -0.000010       0.000000
      0.000098      -0.000010       0.000000
      0.000100      -0.000010       0.000000
      0.000101      -0.000011       0.000000
      0.000099      -0.000011       0.000000
      0.000101      -0.000011       0.000000
      0.000103      -0.000011       0.000000
      0.000103      -0.000011       0.000000
      0.000102      -0.000011       0.000000
      0.000103      -0.000011       0.000000
      0.000104      -0.000010       0.000000
      0.000105      -0.000011       0.000000
      0.000103      -0.000011       0.000000
      0.000102      -0.000011       0.000000
      0.000103      -0.000011       0.000000
      0.000104      -0.000011       0.000000
      0.000103      -0.000011       0.000000
      0.000103      -0.000011       0.000000
      0.000105      -0.000011       0.000000
      0.000106      -0.000011       0.000000
      0.000104      -0.000011       0.000000
      0.000100      -0.000010       0.000000
      0.000101      -0.000010       0.000000
      0.000102      -0.000010       0.000000
      0.000101      -0.000010       0.000000
      0.000101      -0.000010       0.000000
      0.000102      -0.000010       0.000000
      0.000103      -0.000010       0.000000
      0.000102      -0.000010       0.000000
      0.000101      -0.000010       0.000000
      0.000102      -0.000010       0.000000
      0.000103      -0.000011       0.000000
      0.000101      -0.000011       0.000000
      0.000102      -0.000010       0.000000
      0.000103      -0.000010       0.000000
      0.000104      -0.000010       0.000000
      0.000103      -0.000011       0.000000
      0.000074      -0.000005       0.000000
      0.000079      -0.000005       0.000000
      0.000086      -0.000007       0.000000
      0.000081      -0.000006       0.000000
      0.000079      -0.000005       0.000000
      0.000083      -0.000006       0.000000
      0.000090      -0.000008       0.000000
      0.000086      -0.000007       0.000000
      0.000081      -0.000006       0.000000
      0.000086      -0.000007       0.000000
      0.000091      -0.000008       0.000000
      0.000087      -0.000008       0.000000
      0.000091      -0.000008       0.000000
      0.000093      -0.000008       0.000000
      0.000096      -0.000009       0.000000
      0.000094      -0.000009       0.000000
      0.000093      -0.000008       0.000000
      0.000095      -0.000009       0.000000
      0.000098      -0.000009       0.000000
      0.000096      -0.000009       0.000000
      0.000094      -0.000009       0.000000
      0.000096      -0.000009       0.000000
      0.000098      -0.000010       0.000000
      0.000096      -0.000009       0.000000
      0.000096      -0.000009       0.000000
      0.000098      -0.000009       0.000000
      0.000100      -0.000010       0.000000
      0.000098      -0.000010       0.000000
      0.000086      -0.000007       0.000000
      0.000088      -0.000007       0.000000
      0.000091      -0.000008       0.000000
      0.000089      -0.000008       0.000000
      0.000088      -0.000007       0.000000
      0.000090      -0.000008       0.000000
      0.000093      -0.000008       0.000000
      0.000091      -0.000008       0.000000
      0.000089      -0.000008       0.000000
      0.000091      -0.000008       0.000000
      0.000093      -0.000008       0.000000
      0.000091      -0.000008       0.000000
      0.000091      -0.000008       0.000000
      0.000093      -0.000008       0.000000
      0.000095      -0.000009       0.000000
      0.000093      -0.000008       0.000000
      0.000056      -0.000002       0.000000
      0.000060      -0.000002       0.000000
      0.000070      -0.000004       0.000000
      0.000066      -0.000003       0.000000
      0.000060      -0.000002       0.000000
      0.000065      -0.000003       0.000000
      0.000075      -0.000005       0.000000
      0.000070      -0.000004       0.000000
      0.000066      -0.000003       0.000000
      0.000070      -0.000004       0.000000
      0.000079      -0.000005       0.000000
      0.000074      -0.000005       0.000000
      0.000070      -0.000004       0.000000
      0.000075      -0.000005       0.000000
      0.000083      -0.000006       0.000000
      0.000079      -0.000005       0.000000
      0.000000       0.000000       0.000000
      0.000000       0.000000       0.000000
      0.000048      -0.000001       0.000000
      0.000037       0.000000       0.000000
      0.000000       0.000000       0.000000
      0.000000       0.000000       0.000000
      0.000067      -0.000006       0.000000
      0.000048      -0.000001       0.000000
      0.000037       0.000000       0.000000
      0.000048      -0.000001       0.000000
      0.000077      -0.000006       0.000000
      0.000065      -0.000003       0.000000
      0.005238       0.000554       0.000000
      0.005124       0.000000       0.000000
      0.006940       0.000000       0.000000
      0.006992       0.000592       0.000000
      0.007077       0.001255       0.000000
      0.006992       0.000592       0.000000
      0.008315       0.000542       0.000000
      0.008341       0.001067       0.000000
      0.006992       0.000592       0.000000
      0.006940       0.000000       0.000000
      0.008298       0.000000       0.000000
      0.008315       0.000542       0.000000
      0.008356       0.001476       0.000000
      0.008341       0.001067       0.000000
      0.009361       0.000892       0.000000
      0.009371       0.001227       0.000000
      0.009400       0.001444       0.000000
      0.009371       0.001227       0.000000
      0.010185       0.001021       0.000000
      0.010230       0.001198       0.000000
      0.009371       0.001227       0.000000
      0.009361       0.000892       0.000000
      0.010173       0.000741       0.000000
      0.010185       0.001021       0.000000
      0.008341       0.001067       0.000000
      0.008315       0.000542       0.000000
      0.009355       0.000465       0.000000
      0.009361       0.000892       0.000000
      0.008315       0.000542       0.000000
      0.008298       0.000000       0.000000
      0.009351       0.000000       0.000000
      0.009355       0.000465       0.000000
      0.009361       0.000892       0.000000
      0.009355       0.000465       0.000000
      0.010173       0.000388       0.000000
      0.010173       0.000741       0.000000
      0.009355       0.000465       0.000000
      0.009351       0.000000       0.000000
      0.010174       0.000000       0.000000
      0.010173       0.000388       0.000000
      0.009417       0.001512       0.000000
      0.009400       0.001444       0.000000
      0.009845       0.001312       0.000000
      0.009878       0.001361       0.000000
      0.009916       0.001372       0.000000
      0.009878       0.001361       0.000000
      0.010276       0.001237       0.000000