# vtk DataFile Version 2.0
time_10.vtk
ASCII
DATASET UNSTRUCTURED_GRID
POINTS  1992 float
      0.000000       0.000000       0.000000
      0.083333       0.000000       0.000000
      0.083333       0.083333       0.000000
      0.000000       0.083333       0.000000
      0.083333       0.000000       0.000000
      0.166667       0.000000       0.000000
      0.166667       0.083333       0.000000
      0.083333       0.083333       0.000000
      0.000000       0.083333       0.000000
      0.083333       0.083333       0.000000
      0.083333       0.166667       0.000000
      0.000000       0.166667       0.000000
      0.083333       0.083333       0.000000
      0.166667       0.083333       0.000000
      0.166667       0.166667       0.000000
      0.083333       0.166667       0.000000
      0.166667       0.000000       0.000000
      0.250000       0.000000       0.000000
      0.250000       0.083333       0.000000
      0.166667       0.083333       0.000000
      0.250000       0.000000       0.000000
      0.333333       0.000000       0.000000
      0.333333       0.083333       0.000000
      0.250000       0.083333       0.000000
      0.166667       0.083333       0.000000
      0.250000       0.083333       0.000000
      0.250000       0.166667       0.000000
      0.166667       0.166667       0.000000
      0.250000       0.083333       0.000000
      0.333333       0.083333       0.000000
      0.333333       0.166667       0.000000
      0.250000       0.166667       0.000000
      0.333333       0.000000       0.000000
      0.416667      -0.000000       0.000000
      0.416667       0.083333       0.000000
      0.333333       0.083333       0.000000
      0.416667      -0.000000       0.000000
      0.500000       0.000000       0.000000
      0.500000       0.083333       0.000000
      0.416667       0.083333       0.000000
      0.333333       0.083333       0.000000
      0.416667       0.083333       0.000000
      0.416667       0.166667       0.000000
      0.333333       0.166667       0.000000
      0.416667       0.083333       0.000000
      0.500000       0.083333       0.000000
      0.500000       0.166667       0.000000
      0.416667       0.166667       0.000000
      0.000000       0.166667       0.000000
      0.083333       0.166667       0.000000
      0.083333       0.250000       0.000000
      0.000000       0.250000       0.000000
      0.083333       0.166667       0.000000
      0.166667       0.166667       0.000000
      0.166667       0.250000       0.000000
      0.083333       0.250000       0.000000
      0.000000       0.250000       0.000000
      0.083333       0.250000       0.000000
      0.083333       0.333333       0.000000
      0.000000       0.333333       0.000000
      0.083333       0.250000       0.000000
      0.166667       0.250000       0.000000
      0.166667       0.333333       0.000000
      0.083333       0.333333       0.000000
      0.166667       0.166667       0.000000
      0.250000       0.166667       0.000000
      0.250000       0.250000       0.000000
      0.166667       0.250000       0.000000
      0.250000       0.166667       0.000000
      0.333333       0.166667       0.000000
      0.333333       0.250000       0.000000
      0.250000       0.250000       0.000000
      0.166667       0.250000       0.000000
      0.250000       0.250000       0.000000
      0.250000       0.333333       0.000000
      0.166667       0.333333       0.000000
      0.250000       0.250000       0.000000
      0.333333       0.250000       0.000000
      0.333333       0.333333       0.000000
      0.250000       0.333333       0.000000
      0.333333       0.166667       0.000000
      0.416667       0.166667       0.000000
      0.416667       0.250000       0.000000
      0.333333       0.250000       0.000000
      0.333333       0.250000       0.000000
      0.416667       0.250000       0.000000
      0.416667       0.333333       0.000000
      0.333333       0.333333       0.000000
      0.000000       0.333333       0.000000
      0.083333       0.333333       0.000000
      0.083333       0.416667       0.000000
     -0.000000       0.416667       0.000000
      0.083333       0.333333       0.000000
      0.166667       0.333333       0.000000
      0.166667       0.416667       0.000000
      0.083333       0.416667       0.000000
     -0.000000       0.416667       0.000000
      0.083333       0.416667       0.000000
      0.083333       0.500000       0.000000
      0.000000       0.500000       0.000000
      0.083333       0.416667       0.000000
      0.166667       0.416667       0.000000
      0.166667       0.500000       0.000000
      0.083333       0.500000       0.000000
      0.166667       0.333333       0.000000
      0.250000       0.333333       0.000000
      0.250000       0.416667       0.000000
      0.166667       0.416667       0.000000
      0.250000       0.333333       0.000000
      0.333333       0.333333       0.000000
      0.333333       0.416667       0.000000
      0.250000       0.416667       0.000000
      0.166667       0.416667       0.000000
      0.250000       0.416667       0.000000
      0.250000       0.500000       0.000000
      0.166667       0.500000       0.000000
      0.250000       0.416667       0.000000
      0.333333       0.416667       0.000000
      0.333333       0.500000       0.000000
      0.250000       0.500000       0.000000
      0.333333       0.333333       0.000000
      0.375000       0.333333       0.000000
      0.375000       0.375000       0.000000
      0.333333       0.375000       0.000000
      0.375000       0.333333       0.000000
      0.416667       0.333333       0.000000
      0.416667       0.375000       0.000000
      0.375000       0.375000       0.000000
      0.333333       0.375000       0.000000
      0.375000       0.375000       0.000000
      0.375000       0.416667       0.000000
      0.333333       0.416667       0.000000
      0.375000       0.375000       0.000000
      0.416667       0.375000       0.000000
      0.416667       0.416667       0.000000
      0.375000       0.416667       0.000000
      0.416667       0.333333       0.000000
      0.458333       0.333333       0.000000
      0.458333       0.375000       0.000000
      0.416667       0.375000       0.000000
      0.416667       0.375000       0.000000
      0.458333       0.375000       0.000000
      0.458333       0.416667       0.000000
      0.416667       0.416667       0.000000
      0.333333       0.416667       0.000000
      0.375000       0.416667       0.000000
      0.375000       0.458333       0.000000
      0.333333       0.458333       0.000000
      0.375000       0.416667       0.000000
      0.416667       0.416667       0.000000
      0.416667       0.458333       0.000000
      0.375000       0.458333       0.000000
      0.333333       0.458333       0.000000
      0.375000       0.458333       0.000000
      0.375000       0.500000       0.000000
      0.333333       0.500000       0.000000
      0.375000       0.458333       0.000000
      0.416667       0.458333       0.000000
      0.416667       0.500000       0.000000
      0.375000       0.500000       0.000000
      0.416667       0.416667       0.000000
      0.437500       0.416667       0.000000
      0.437500       0.437500       0.000000
      0.416667       0.437500       0.000000
      0.437500       0.416667       0.000000
      0.458333       0.416667       0.000000
      0.458333       0.437500       0.000000
      0.437500       0.437500       0.000000
      0.416667       0.437500       0.000000
      0.437500       0.437500       0.000000
      0.437500       0.458333       0.000000
      0.416667       0.458333       0.000000
      0.437500       0.437500       0.000000
      0.458333       0.437500       0.000000
      0.458333       0.458333       0.000000
      0.437500       0.458333       0.000000
      0.458333       0.416667       0.000000
      0.479167       0.416667       0.000000
      0.479167       0.437500       0.000000
      0.458333       0.437500       0.000000
      0.458333       0.437500       0.000000
      0.479167       0.437500       0.000000
      0.479167       0.458333       0.000000
      0.458333       0.458333       0.000000
      0.416667       0.458333       0.000000
      0.437500       0.458333       0.000000
      0.437500       0.479167       0.000000
      0.416667       0.479167       0.000000
      0.437500       0.458333       0.000000
      0.458333       0.458333       0.000000
      0.458333       0.479167       0.000000
      0.437500       0.479167       0.000000
      0.416667       0.479167       0.000000
      0.437500       0.479167       0.000000
      0.437500       0.500000       0.000000
      0.416667       0.500000       0.000000
      0.437500       0.479167       0.000000
      0.458333       0.479167       0.000000
      0.458333       0.500000       0.000000
      0.437500       0.500000       0.000000
      0.458333       0.458333       0.000000
      0.468750       0.458333       0.000000
      0.468750       0.468750       0.000000
      0.458333       0.468750       0.000000
      0.468750       0.458333       0.000000
      0.479167       0.458333       0.000000
      0.479167       0.468750       0.000000
      0.468750       0.468750       0.000000
      0.458333       0.468750       0.000000
      0.468750       0.468750       0.000000
      0.468750       0.479167       0.000000
      0.458333       0.479167       0.000000
      0.468750       0.468750       0.000000
      0.479167       0.468750       0.000000
      0.479167       0.479167       0.000000
      0.468750       0.479167       0.000000
      0.479167       0.458333       0.000000
      0.489583       0.458333       0.000000
      0.489583       0.468750       0.000000
      0.479167       0.468750       0.000000
[...]
POINT_DATA  1992
VECTORS U float 
      0.000000       0.000000       0.000000
      0.000000       0.000000       0.000000
      0.000208      -0.000002       0.000000
      0.000201       0.000000       0.000000
      0.000000       0.000000       0.000000
      0.000000       0.000000       0.000000
      0.000230      -0.000003       0.000000
      0.000208      -0.000002       0.000000
      0.000201       0.000000       0.000000
      0.000208      -0.000002       0.000000
      0.000382      -0.000012       0.000000
      0.000372       0.000000       0.000000
      0.000208      -0.000002       0.000000
      0.000230      -0.000003       0.000000
      0.000414      -0.000022       0.000000
      0.000382      -0.000012       0.000000
      0.000000       0.000000       0.000000
      0.000000       0.000000       0.000000
      0.000270      -0.000000       0.000000
      0.000230      -0.000003       0.000000
      0.000000       0.000000       0.000000
      0.000000       0.000000       0.000000
      0.000331       0.000011       0.000000
      0.000270      -0.000000       0.000000
      0.000230      -0.000003       0.000000
      0.000270      -0.000000       0.000000
      0.000471      -0.000028       0.000000
      0.000414      -0.000022       0.000000
      0.000270      -0.000000       0.000000
      0.000331       0.000011       0.000000
      0.000560      -0.000021       0.000000
      0.000471      -0.000028       0.000000
      0.000000       0.000000       0.000000
      0.000000       0.000000       0.000000
      0.000416       0.000040       0.000000
      0.000331       0.000011       0.000000
      0.000000       0.000000       0.000000
      0.000000       0.000000       0.000000
      0.000513       0.000106       0.000000
      0.000416       0.000040       0.000000
      0.000331       0.000011       0.000000
      0.000416       0.000040       0.000000
      0.000688       0.000016       0.000000
      0.000560      -0.000021       0.000000
      0.000416       0.000040       0.000000
      0.000513       0.000106       0.000000
      0.000870       0.000126       0.000000
      0.000688       0.000016       0.000000
      0.000372       0.000000       0.000000
      0.000382      -0.000012       0.000000
      0.000511      -0.000024       0.000000
      0.000501       0.000000       0.000000
      0.000382      -0.000012       0.000000
      0.000414      -0.000022       0.000000
      0.000541      -0.000047       0.000000
      0.000511      -0.000024       0.000000
      0.000501       0.000000       0.000000
      0.000511      -0.000024       0.000000
      0.000597      -0.000035       0.000000
      0.000590       0.000000       0.000000
      0.000511      -0.000024       0.000000
      0.000541      -0.000047       0.000000
      0.000619      -0.000067       0.000000
      0.000597      -0.000035       0.000000
      0.000414      -0.000022       0.000000
      0.000471      -0.000028       0.000000
      0.000595      -0.000064       0.000000
      0.000541      -0.000047       0.000000
      0.000471      -0.000028       0.000000
      0.000560      -0.000021       0.000000
      0.000674      -0.000068       0.000000
      0.000595      -0.000064       0.000000
      0.000541      -0.000047       0.000000
      0.000595      -0.000064       0.000000
      0.000655      -0.000092       0.000000
      0.000619      -0.000067       0.000000
      0.000595      -0.000064       0.000000
      0.000674      -0.000068       0.000000
      0.000702      -0.000101       0.000000
      0.000655      -0.000092       0.000000
      0.000560      -0.000021       0.000000
      0.000688       0.000016       0.000000
      0.000787      -0.000044       0.000000
      0.000674      -0.000068       0.000000
      0.000674      -0.000068       0.000000
      0.000787      -0.000044       0.000000
      0.000757      -0.000081       0.000000
      0.000702      -0.000101       0.000000
      0.000590       0.000000       0.000000
      0.000597      -0.000035       0.000000
      0.000654      -0.000041       0.000000
      0.000651       0.000000       0.000000
      0.000597      -0.000035       0.000000
      0.000619      -0.000067       0.000000
      0.000664      -0.000078       0.000000
      0.000654      -0.000041       0.000000
      0.000651       0.000000       0.000000
      0.000654      -0.000041       0.000000
      0.000697      -0.000042       0.000000
      0.000697       0.000000       0.000000
      0.000654      -0.000041       0.000000
      0.000664      -0.000078       0.000000
      0.000697      -0.000080       0.000000
      0.000697      -0.000042       0.000000
      0.000619      -0.000067       0.000000
      0.000655      -0.000092       0.000000
      0.000679      -0.000106       0.000000
      0.000664      -0.000078       0.000000
      0.000655      -0.000092       0.000000
      0.000702      -0.000101       0.000000
      0.000695      -0.000113       0.000000
      0.000679      -0.000106       0.000000
      0.000664      -0.000078       0.000000
      0.000679      -0.000106       0.000000
      0.000694      -0.000108       0.000000
      0.000697      -0.000080       0.000000
      0.000679      -0.000106       0.000000
      0.000695      -0.000113       0.000000
      0.000683      -0.000113       0.000000
      0.000694      -0.000108       0.000000
      0.000702      -0.000101       0.000000
      0.000730      -0.000096       0.000000
      0.000717      -0.000103       0.000000
      0.000701      -0.000109       0.000000
      0.000730      -0.000096       0.000000
      0.000757      -0.000081       0.000000
      0.000731      -0.000085       0.000000
      0.000717      -0.000103       0.000000
      0.000701      -0.000109       0.000000
      0.000717      -0.000103       0.000000
      0.000703      -0.000105       0.000000
      0.000695      -0.000113       0.000000
      0.000717      -0.000103       0.000000
      0.000731      -0.000085       0.000000
      0.000709      -0.000085       0.000000
      0.000703      -0.000105       0.000000
      0.000757      -0.000081       0.000000
      0.000785      -0.000052       0.000000
      0.000743      -0.000055       0.000000
      0.000731      -0.000085       0.000000
      0.000731      -0.000085       0.000000
      0.000743      -0.000055       0.000000
      0.000714      -0.000055       0.000000
      0.000709      -0.000085       0.000000
      0.000695      -0.000113       0.000000
      0.000703      -0.000105       0.000000
      0.000690      -0.000105       0.000000
      0.000689      -0.000114       0.000000
      0.000703      -0.000105       0.000000
      0.000709      -0.000085       0.000000
      0.000691      -0.000085       0.000000
      0.000690      -0.000105       0.000000
      0.000689      -0.000114       0.000000
      0.000690      -0.000105       0.000000
      0.000677      -0.000103       0.000000
      0.000683      -0.000113       0.000000
      0.000690      -0.000105       0.000000
      0.000691      -0.000085       0.000000
      0.000671      -0.000084       0.000000
      0.000677      -0.000103       0.000000
      0.000709      -0.000085       0.000000
      0.000711      -0.000072       0.000000
      0.000701      -0.000071       0.000000
      0.000700      -0.000085       0.000000
      0.000711      -0.000072       0.000000
      0.000714      -0.000055       0.000000
      0.000703      -0.000055       0.000000
      0.000701      -0.000071       0.000000
      0.000700      -0.000085       0.000000
      0.000701      -0.000071       0.000000
      0.000691      -0.000071       0.000000
      0.000691      -0.000085       0.000000
      0.000701      -0.000071       0.000000
      0.000703      -0.000055       0.000000
      0.000693      -0.000055       0.000000
      0.000691      -0.000071       0.000000
      0.000714      -0.000055       0.000000
      0.000716      -0.000035       0.000000
      0.000705      -0.000036       0.000000
      0.000703      -0.000055       0.000000
      0.000703      -0.000055       0.000000
      0.000705      -0.000036       0.000000
      0.000695      -0.000038       0.000000
      0.000693      -0.000055       0.000000
      0.000691      -0.000085       0.000000
      0.000691      -0.000071       0.000000
      0.000682      -0.000071       0.000000
      0.000682      -0.000084       0.000000
      0.000691      -0.000071       0.000000
      0.000693      -0.000055       0.000000
      0.000682      -0.000056       0.000000
      0.000682      -0.000071       0.000000
      0.000682      -0.000084       0.000000
      0.000682      -0.000071       0.000000
      0.000670      -0.000071       0.000000
      0.000671      -0.000084       0.000000
      0.000682      -0.000071       0.000000
      0.000682      -0.000056       0.000000
      0.000670      -0.000057       0.000000
      0.000670      -0.000071       0.000000
      0.000693      -0.000055       0.000000
      0.000693      -0.000047       0.000000
      0.000689      -0.000048       0.000000
      0.000688      -0.000056       0.000000
      0.000693      -0.000047       0.000000
      0.000695      -0.000038       0.000000
      0.000690      -0.000039       0.000000
      0.000689      -0.000048       0.000000
      0.000688      -0.000056       0.000000
      0.000689      -0.000048       0.000000
      0.000683      -0.000048       0.000000
      0.000682      -0.000056       0.000000
      0.000689      -0.000048       0.000000
      0.000690      -0.000039       0.000000
      0.000685      -0.000041       0.000000
      0.000683      -0.000048       0.000000
      0.000695      -0.000038       0.000000
      0.000697      -0.000029       0.000000
      0.000693      -0.000030       0.000000
      0.000690      -0.000039       0.000000
      0.000697      -0.000029       0.000000
      0.000702      -0.000017       0.000000
      0.000698      -0.000012       0.000000
      0.000693      -0.000030       0.000000
      0.000690      -0.000039       0.000000
      0.000693      -0.000030       0.000000
      0.000688      -0.000032       0.000000
      0.000685      -0.000041       0.000000
      0.000693      -0.000030       0.000000
      0.000698      -0.000012       0.000000
      0.000686      -0.000006       0.000000
      0.000688      -0.000032       0.000000
      0.000682      -0.000056       0.000000
      0.000683      -0.000048       0.000000
      0.000678      -0.000049       0.000000
      0.000677      -0.000057       0.000000
      0.000683      -0.000048       0.000000
      0.000685      -0.000041       0.000000
      0.000680      -0.000043       0.000000
      0.000678      -0.000049       0.000000
      0.000677      -0.000057       0.000000
      0.000678      -0.000049       0.000000
      0.000673      -0.000049       0.000000
      0.000670      -0.000057       0.000000
      0.000678      -0.000049       0.000000
      0.000680      -0.000043       0.000000
      0.000680      -0.000039       0.000000
      0.000673      -0.000049       0.000000
      0.000685      -0.000041       0.000000
      0.000688      -0.000032       0.000000
      0.000683      -0.000039       0.000000
      0.000680      -0.000043       0.000000
      0.000688      -0.000032       0.000000
      0.000686      -0.000006       0.000000
      0.000429       0.000026       0.000000
      0.000683      -0.000039       0.000000
      0.000680      -0.000043       0.000000
      0.000683      -0.000039       0.000000
      0.000738      -0.000021       0.000000
      0.000680      -0.000039       0.000000
      0.000683      -0.000039       0.000000
      0.000429       0.000026       0.000000
      0.008946       0.000899       0.000000
      0.000738      -0.000021       0.000000
      0.000705      -0.000036       0.000000
      0.000706      -0.000026       0.000000
      0.000702      -0.000027       0.000000
      0.000700      -0.000037       0.000000
      0.000706      -0.000026       0.000000
      0.000709      -0.000015       0.000000
      0.000704      -0.000017       0.000000
      0.000702      -0.000027       0.000000
      0.000700      -0.000037       0.000000
      0.000702      -0.000027       0.000000
      0.000697      -0.000029       0.000000
      0.000695      -0.000038       0.000000
      0.000702      -0.000027       0.000000
      0.000704      -0.000017       0.000000
      0.000702      -0.000017       0.000000
      0.000697      -0.000029       0.000000
      0.000743      -0.000055       0.000000
      0.000748      -0.000033       0.000000
      0.000730      -0.000033       0.000000
      0.000727      -0.000055       0.000000
      0.000748      -0.000033       0.000000
      0.000752      -0.000005       0.000000
      0.000733      -0.000008       0.000000
      0.000730      -0.000033       0.000000
      0.000727      -0.000055       0.000000
      0.000730      -0.000033       0.000000
      0.000716      -0.000035       0.000000
      0.000714      -0.000055       0.000000
      0.000716      -0.000035       0.000000
      0.000717      -0.000023       0.000000
      0.000712      -0.000025       0.000000
      0.000710      -0.000035       0.000000
      0.000717      -0.000023       0.000000
      0.000719      -0.000011       0.000000
      0.000714      -0.000013       0.000000
      0.000712      -0.000025       0.000000
      0.000710      -0.000035       0.000000
      0.000712      -0.000025       0.000000
      0.000706      -0.000026       0.000000
      0.000705      -0.000036       0.000000
      0.000712      -0.000025       0.000000
      0.000714      -0.000013       0.000000
      0.000709      -0.000015       0.000000
      0.000706      -0.000026       0.000000
      0.000730      -0.000033       0.000000
      0.000731      -0.000021       0.000000
      0.000724      -0.000022       0.000000
      0.000722      -0.000034       0.000000
      0.000731      -0.000021       0.000000
      0.000733      -0.000008       0.000000
      0.000726      -0.000009       0.000000
      0.000724      -0.000022       0.000000
      0.000722      -0.000034       0.000000
      0.000724      -0.000022       0.000000
      0.000717      -0.000023       0.000000
      0.000716      -0.000035       0.000000
      0.000724      -0.000022       0.000000
      0.000726      -0.000009       0.000000
      0.000719      -0.000011       0.000000
      0.000717      -0.000023       0.000000
      0.000787      -0.000044       0.000000
      0.000862      -0.000012       0.000000
      0.000832      -0.000039       0.000000
      0.000781      -0.000068       0.000000
      0.000862      -0.000012       0.000000
      0.000957       0.000046       0.000000
      0.000890       0.000011       0.000000
      0.000832      -0.000039       0.000000
      0.000781      -0.000068       0.000000
      0.000832      -0.000039       0.000000
      0.000785      -0.000052       0.000000
      0.000757      -0.000081       0.000000
      0.000785      -0.000052       0.000000
      0.000797      -0.000030       0.000000
      0.000770      -0.000032       0.000000
      0.000762      -0.000054       0.000000
      0.000797      -0.000030       0.000000
      0.000809      -0.000001       0.000000
      0.000777      -0.000003       0.000000
      0.000770      -0.000032       0.000000
      0.000762      -0.000054       0.000000
      0.000770      -0.000032       0.000000
      0.000748      -0.000033       0.000000
      0.000743      -0.000055       0.000000
      0.000770      -0.000032       0.000000
      0.000777      -0.000003       0.000000
      0.000752      -0.000005       0.000000
      0.000748      -0.000033       0.000000
      0.000832      -0.000039       0.000000
      0.000860      -0.000018       0.000000
      0.000828      -0.000026       0.000000
      0.000809      -0.000047       0.000000
      0.000860      -0.000018       0.000000
      0.000890       0.000011       0.000000
      0.000848       0.000003       0.000000
      0.000828      -0.000026       0.000000
      0.000809      -0.000047       0.000000
      0.000828      -0.000026       0.000000
      0.000797      -0.000030       0.000000
      0.000785      -0.000052       0.000000
      0.000828      -0.000026       0.000000
      0.000848       0.000003       0.000000
      0.000809      -0.000001       0.000000
      0.000797      -0.000030       0.000000
      0.000688       0.000016       0.000000
      0.000772       0.000057       0.000000
      0.000846       0.000026       0.000000
      0.000759      -0.000013       0.000000
      0.000772       0.000057       0.000000
      0.000870       0.000126       0.000000
      0.000957       0.000093       0.000000
      0.000846       0.000026       0.000000
      0.000759      -0.000013       0.000000
      0.000846       0.000026       0.000000
      0.000862      -0.000012       0.000000
      0.000787      -0.000044       0.000000
      0.000846       0.000026       0.000000
      0.000957       0.000093       0.000000
      0.000957       0.000046       0.000000
      0.000862      -0.000012       0.000000
      0.000000       0.000000       0.000000
      0.000000       0.000000       0.000000
      0.000581       0.000206       0.000000
      0.000513       0.000106       0.000000
      0.000000       0.000000       0.000000
      0.000000       0.000000       0.000000
      0.000593       0.000248       0.000000
      0.000581       0.000206       0.000000
      0.000513       0.000106       0.000000
      0.000581       0.000206       0.000000
      0.001089       0.000371       0.000000
      0.000870       0.000126       0.000000
      0.000581       0.000206       0.000000
      0.000593       0.000248       0.000000
      0.001228       0.000495       0.000000
      0.001089       0.000371       0.000000
      0.000000       0.000000       0.000000
      0.000000       0.000000       0.000000
      0.000616       0.000174       0.000000
      0.000593       0.000248       0.000000
      0.000000       0.000000       0.000000
      0.000000       0.000000       0.000000
      0.000674       0.000086       0.000000
      0.000616       0.000174       0.000000
      0.000593       0.000248       0.000000
      0.000616       0.000174       0.000000
      0.001394       0.000282       0.000000
      0.001228       0.000495       0.000000
      0.000616       0.000174       0.000000
      0.000674       0.000086       0.000000
      0.001559       0.000114       0.000000
      0.001394       0.000282       0.000000
      0.000000       0.000000       0.000000
      0.000000       0.000000       0.000000
      0.000727       0.000032       0.000000
      0.000674       0.000086       0.000000
      0.000000       0.000000       0.000000
      0.000000       0.000000       0.000000
      0.000748       0.000000       0.000000
      0.000727       0.000032       0.000000
      0.000674       0.000086       0.000000
      0.000727       0.000032       0.000000
      0.001661       0.000036       0.000000
      0.001559       0.000114       0.000000
      0.000727       0.000032       0.000000
      0.000748       0.000000       0.000000
      0.001695       0.000000       0.000000
      0.001661       0.000036       0.000000
      0.001394       0.000282       0.000000
      0.001559       0.000114       0.000000
      0.002765       0.000086       0.000000
      0.002570       0.000265       0.000000
      0.002570       0.000265       0.000000
      0.002765       0.000086       0.000000
      0.004294       0.000080       0.000000
      0.004301       0.000268       0.000000
      0.001559       0.000114       0.000000
      0.001661       0.000036       0.000000
      0.002861       0.000021       0.000000