# vtk DataFile Version 2.0
time_10.vtk
ASCII
DATASET UNSTRUCTURED_GRID
POINTS  2544 float
      0.000000       0.000000       0.000000
      0.083333       0.000000       0.000000
      0.083333       0.083333       0.000000
      0.000000       0.083333       0.000000
      0.083333       0.000000       0.000000
      0.166667       0.000000       0.000000
      0.166667       0.083333       0.000000
      0.083333       0.083333       0.000000
      0.000000       0.083333       0.000000
      0.083333       0.083333       0.000000
      0.083333       0.166667       0.000000
      0.000000       0.166667       0.000000
      0.083333       0.083333       0.000000
      0.166667       0.083333       0.000000
      0.166667       0.166667       0.000000
      0.083333       0.166667       0.000000
      0.166667       0.000000       0.000000
      0.250000       0.000000       0.000000
      0.250000       0.083333       0.000000
      0.166667       0.083333       0.000000
      0.250000       0.000000       0.000000
      0.333333       0.000000       0.000000
      0.333333       0.083333       0.000000
      0.250000       0.083333       0.000000
      0.166667       0.083333       0.000000
      0.250000       0.083333       0.000000
      0.250000       0.166667       0.000000
      0.166667       0.166667       0.000000
      0.250000       0.083333       0.000000
      0.333333       0.083333       0.000000
      0.333333       0.166667       0.000000
      0.250000       0.166667       0.000000
      0.333333       0.000000       0.000000
      0.416667      -0.000000       0.000000
      0.416667       0.083333       0.000000
      0.333333       0.083333       0.000000
      0.416667      -0.000000       0.000000
      0.500000       0.000000       0.000000
      0.500000       0.083333       0.000000
      0.416667       0.083333       0.000000
      0.333333       0.083333       0.000000
      0.416667       0.083333       0.000000
      0.416667       0.166667       0.000000
      0.333333       0.166667       0.000000
      0.416667       0.083333       0.000000
      0.500000       0.083333       0.000000
      0.500000       0.166667       0.000000
      0.416667       0.166667       0.000000
      0.000000       0.166667       0.000000
      0.083333       0.166667       0.000000
      0.083333       0.250000       0.000000
      0.000000       0.250000       0.000000
      0.083333       0.166667       0.000000
      0.166667       0.166667       0.000000
      0.166667       0.250000       0.000000
      0.083333       0.250000       0.000000
      0.000000       0.250000       0.000000
      0.083333       0.250000       0.000000
      0.083333       0.333333       0.000000
      0.000000       0.333333       0.000000
      0.083333       0.250000       0.000000
      0.166667       0.250000       0.000000
      0.166667       0.333333       0.000000
      0.083333       0.333333       0.000000
      0.166667       0.166667       0.000000
      0.250000       0.166667       0.000000
      0.250000       0.250000       0.000000
      0.166667       0.250000       0.000000
      0.250000       0.166667       0.000000
      0.333333       0.166667       0.000000
      0.333333       0.250000       0.000000
      0.250000       0.250000       0.000000
      0.166667       0.250000       0.000000
      0.250000       0.250000       0.000000
      0.250000       0.333333       0.000000
      0.166667       0.333333       0.000000
      0.250000       0.250000       0.000000
      0.333333       0.250000       0.000000
      0.333333       0.333333       0.000000
      0.250000       0.333333       0.000000
      0.333333       0.166667       0.000000
      0.416667       0.166667       0.000000
      0.416667       0.250000       0.000000
      0.333333       0.250000       0.000000
      0.333333       0.250000       0.000000
      0.416667       0.250000       0.000000
      0.416667       0.333333       0.000000
      0.333333       0.333333       0.000000
      0.000000       0.333333       0.000000
      0.083333       0.333333       0.000000
      0.083333       0.416667       0.000000
     -0.000000       0.416667       0.000000
      0.083333       0.333333       0.000000
      0.166667       0.333333       0.000000
      0.166667       0.416667       0.000000
      0.083333       0.416667       0.000000
     -0.000000       0.416667       0.000000
      0.083333       0.416667       0.000000
      0.083333       0.500000       0.000000
      0.000000       0.500000       0.000000
      0.083333       0.416667       0.000000
      0.166667       0.416667       0.000000
      0.166667       0.500000       0.000000
      0.083333       0.500000       0.000000
      0.166667       0.333333       0.000000
      0.250000       0.333333       0.000000
      0.250000       0.416667       0.000000
      0.166667       0.416667       0.000000
      0.250000       0.333333       0.000000
      0.333333       0.333333       0.000000
      0.333333       0.416667       0.000000
      0.250000       0.416667       0.000000
      0.166667       0.416667       0.000000
      0.250000       0.416667       0.000000
      0.250000       0.500000       0.000000
      0.166667       0.500000       0.000000
      0.250000       0.416667       0.000000
      0.333333       0.416667       0.000000
      0.333333       0.500000       0.000000
      0.250000       0.500000       0.000000
      0.333333       0.333333       0.000000
      0.375000       0.333333       0.000000
      0.375000       0.375000       0.000000
      0.333333       0.375000       0.000000
      0.375000       0.333333       0.000000
      0.416667       0.333333       0.000000
      0.416667       0.375000       0.000000
      0.375000       0.375000       0.000000
      0.333333       0.375000       0.000000
      0.375000       0.375000       0.000000
      0.375000       0.416667       0.000000
      0.333333       0.416667       0.000000
      0.375000       0.375000       0.000000
      0.416667       0.375000       0.000000
      0.416667       0.416667       0.000000
      0.375000       0.416667       0.000000
      0.416667       0.333333       0.000000
      0.458333       0.333333       0.000000
      0.458333       0.375000       0.000000
      0.416667       0.375000       0.000000
      0.416667       0.375000       0.000000
      0.458333       0.375000       0.000000
      0.458333       0.416667       0.000000
      0.416667       0.416667       0.000000
      0.333333       0.416667       0.000000
      0.375000       0.416667       0.000000
      0.375000       0.458333       0.000000
      0.333333       0.458333       0.000000
      0.375000       0.416667       0.000000
      0.416667       0.416667       0.000000
      0.416667       0.458333       0.000000
      0.375000       0.458333       0.000000
      0.333333       0.458333       0.000000
      0.375000       0.458333       0.000000
      0.375000       0.500000       0.000000
      0.333333       0.500000       0.000000
      0.375000       0.458333       0.000000
      0.416667       0.458333       0.000000
      0.416667       0.500000       0.000000
      0.375000       0.500000       0.000000
      0.416667       0.416667       0.000000
      0.437500       0.416667       0.000000
      0.437500       0.437500       0.000000
      0.416667       0.437500       0.000000
      0.437500       0.416667       0.000000
      0.458333       0.416667       0.000000
      0.458333       0.437500       0.000000
      0.437500       0.437500       0.000000
      0.416667       0.437500       0.000000
      0.437500       0.437500       0.000000
      0.437500       0.458333       0.000000
      0.416667       0.458333       0.000000
      0.437500       0.437500       0.000000
      0.458333       0.437500       0.000000
      0.458333       0.458333       0.000000
      0.437500       0.458333       0.000000
      0.458333       0.416667       0.000000
      0.479167       0.416667       0.000000
      0.479167       0.437500       0.000000
      0.458333       0.437500       0.000000
      0.458333       0.437500       0.000000
      0.479167       0.437500       0.000000
      0.479167       0.458333       0.000000
      0.458333       0.458333       0.000000
      0.416667       0.458333       0.000000
      0.437500       0.458333       0.000000
      0.437500       0.479167       0.000000
      0.416667       0.479167       0.000000
      0.437500       0.458333       0.000000
      0.458333       0.458333       0.000000
      0.458333       0.479167       0.000000
      0.437500       0.479167       0.000000
      0.416667       0.479167       0.000000
      0.437500       0.479167       0.000000
      0.437500       0.500000       0.000000
      0.416667       0.500000       0.000000
      0.437500       0.479167       0.000000
      0.458333       0.479167       0.000000
      0.458333       0.500000       0.000000
      0.437500       0.500000       0.000000
      0.458333       0.458333       0.000000
      0.468750       0.458333       0.000000
      0.468750       0.468750       0.000000
      0.458333       0.468750       0.000000
      0.468750       0.458333       0.000000
      0.479167       0.458333       0.000000
      0.479167       0.468750       0.000000
      0.468750       0.468750       0.000000
      0.458333       0.468750       0.000000
      0.468750       0.468750       0.000000
      0.468750       0.479167       0.000000
      0.458333       0.479167       0.000000
      0.468750       0.468750       0.000000
      0.479167       0.468750       0.000000
      0.479167       0.479167       0.000000
      0.468750       0.479167       0.000000
      0.479167       0.458333       0.000000
      0.489583       0.458333       0.000000
      0.489583       0.468750       0.000000
      0.479167       0.468750       0.000000
[...]
POINT_DATA  2544
VECTORS U float 
      0.000000       0.000000       0.000000
      0.000000       0.000000       0.000000
      0.000098      -0.000002       0.000000
      0.000094       0.000000       0.000000
      0.000000       0.000000       0.000000
      0.000000       0.000000       0.000000
      0.000108      -0.000004       0.000000
      0.000098      -0.000002       0.000000
      0.000094       0.000000       0.000000
      0.000098      -0.000002       0.000000
      0.000183      -0.000008       0.000000
      0.000178       0.000000       0.000000
      0.000098      -0.000002       0.000000
      0.000108      -0.000004       0.000000
      0.000198      -0.000016       0.000000
      0.000183      -0.000008       0.000000
      0.000000       0.000000       0.000000
      0.000000       0.000000       0.000000
      0.000127      -0.000007       0.000000
      0.000108      -0.000004       0.000000
      0.000000       0.000000       0.000000
      0.000000       0.000000       0.000000
      0.000159      -0.000008       0.000000
      0.000127      -0.000007       0.000000
      0.000108      -0.000004       0.000000
      0.000127      -0.000007       0.000000
      0.000225      -0.000026       0.000000
      0.000198      -0.000016       0.000000
      0.000127      -0.000007       0.000000
      0.000159      -0.000008       0.000000
      0.000267      -0.000036       0.000000
      0.000225      -0.000026       0.000000
      0.000000       0.000000       0.000000
      0.000000       0.000000       0.000000
      0.000213      -0.000008       0.000000
      0.000159      -0.000008       0.000000
      0.000000       0.000000       0.000000
      0.000000       0.000000       0.000000
      0.000302       0.000003       0.000000
      0.000213      -0.000008       0.000000
      0.000159      -0.000008       0.000000
      0.000213      -0.000008       0.000000
      0.000331      -0.000046       0.000000
      0.000267      -0.000036       0.000000
      0.000213      -0.000008       0.000000
      0.000302       0.000003       0.000000
      0.000427      -0.000046       0.000000
      0.000331      -0.000046       0.000000
      0.000178       0.000000       0.000000
      0.000183      -0.000008       0.000000
      0.000251      -0.000014       0.000000
      0.000247       0.000000       0.000000
      0.000183      -0.000008       0.000000
      0.000198      -0.000016       0.000000
      0.000265      -0.000029       0.000000
      0.000251      -0.000014       0.000000
      0.000247       0.000000       0.000000
      0.000251      -0.000014       0.000000
      0.000302      -0.000020       0.000000
      0.000298       0.000000       0.000000
      0.000251      -0.000014       0.000000
      0.000265      -0.000029       0.000000
      0.000312      -0.000040       0.000000
      0.000302      -0.000020       0.000000
      0.000198      -0.000016       0.000000
      0.000225      -0.000026       0.000000
      0.000289      -0.000046       0.000000
      0.000265      -0.000029       0.000000
      0.000225      -0.000026       0.000000
      0.000267      -0.000036       0.000000
      0.000324      -0.000063       0.000000
      0.000289      -0.000046       0.000000
      0.000265      -0.000029       0.000000
      0.000289      -0.000046       0.000000
      0.000329      -0.000060       0.000000
      0.000312      -0.000040       0.000000
      0.000289      -0.000046       0.000000
      0.000324      -0.000063       0.000000
      0.000351      -0.000078       0.000000
      0.000329      -0.000060       0.000000
      0.000267      -0.000036       0.000000
      0.000331      -0.000046       0.000000
      0.000369      -0.000077       0.000000
      0.000324      -0.000063       0.000000
      0.000324      -0.000063       0.000000
      0.000369      -0.000077       0.000000
      0.000374      -0.000090       0.000000
      0.000351      -0.000078       0.000000
      0.000298       0.000000       0.000000
      0.000302      -0.000020       0.000000
      0.000339      -0.000023       0.000000
      0.000337       0.000000       0.000000
      0.000302      -0.000020       0.000000
      0.000312      -0.000040       0.000000
      0.000345      -0.000046       0.000000
      0.000339      -0.000023       0.000000
      0.000337       0.000000       0.000000
      0.000339      -0.000023       0.000000
      0.000366      -0.000024       0.000000
      0.000365       0.000000       0.000000
      0.000339      -0.000023       0.000000
      0.000345      -0.000046       0.000000
      0.000370      -0.000048       0.000000
      0.000366      -0.000024       0.000000
      0.000312      -0.000040       0.000000
      0.000329      -0.000060       0.000000
      0.000354      -0.000068       0.000000
      0.000345      -0.000046       0.000000
      0.000329      -0.000060       0.000000
      0.000351      -0.000078       0.000000
      0.000365      -0.000085       0.000000
      0.000354      -0.000068       0.000000
      0.000345      -0.000046       0.000000
      0.000354      -0.000068       0.000000
      0.000375      -0.000071       0.000000
      0.000370      -0.000048       0.000000
      0.000354      -0.000068       0.000000
      0.000365      -0.000085       0.000000
      0.000378      -0.000088       0.000000
      0.000375      -0.000071       0.000000
      0.000351      -0.000078       0.000000
      0.000362      -0.000085       0.000000
      0.000367      -0.000089       0.000000
      0.000359      -0.000083       0.000000
      0.000362      -0.000085       0.000000
      0.000374      -0.000090       0.000000
      0.000374      -0.000092       0.000000
      0.000367      -0.000089       0.000000
      0.000359      -0.000083       0.000000
      0.000367      -0.000089       0.000000
      0.000371      -0.000091       0.000000
      0.000365      -0.000085       0.000000
      0.000367      -0.000089       0.000000
      0.000374      -0.000092       0.000000
      0.000376      -0.000093       0.000000
      0.000371      -0.000091       0.000000
      0.000374      -0.000090       0.000000
      0.000384      -0.000090       0.000000
      0.000380      -0.000090       0.000000
      0.000374      -0.000092       0.000000
      0.000374      -0.000092       0.000000
      0.000380      -0.000090       0.000000
      0.000380      -0.000091       0.000000
      0.000376      -0.000093       0.000000
      0.000365      -0.000085       0.000000
      0.000371      -0.000091       0.000000
      0.000375      -0.000092       0.000000
      0.000371      -0.000087       0.000000
      0.000371      -0.000091       0.000000
      0.000376      -0.000093       0.000000
      0.000378      -0.000094       0.000000
      0.000375      -0.000092       0.000000
      0.000371      -0.000087       0.000000
      0.000375      -0.000092       0.000000
      0.000378      -0.000093       0.000000
      0.000378      -0.000088       0.000000
      0.000375      -0.000092       0.000000
      0.000378      -0.000094       0.000000
      0.000380      -0.000094       0.000000
      0.000378      -0.000093       0.000000
      0.000376      -0.000093       0.000000
      0.000378      -0.000092       0.000000
      0.000379      -0.000093       0.000000
      0.000377      -0.000093       0.000000
      0.000378      -0.000092       0.000000
      0.000380      -0.000091       0.000000
      0.000381      -0.000091       0.000000
      0.000379      -0.000093       0.000000
      0.000377      -0.000093       0.000000
      0.000379      -0.000093       0.000000
      0.000380      -0.000093       0.000000
      0.000378      -0.000094       0.000000
      0.000379      -0.000093       0.000000
      0.000381      -0.000091       0.000000
      0.000382      -0.000092       0.000000
      0.000380      -0.000093       0.000000
      0.000380      -0.000091       0.000000
      0.000382      -0.000088       0.000000
      0.000383      -0.000089       0.000000
      0.000381      -0.000091       0.000000
      0.000381      -0.000091       0.000000
      0.000383      -0.000089       0.000000
      0.000384      -0.000090       0.000000
      0.000382      -0.000092       0.000000
      0.000378      -0.000094       0.000000
      0.000380      -0.000093       0.000000
      0.000380      -0.000094       0.000000
      0.000379      -0.000094       0.000000
      0.000380      -0.000093       0.000000
      0.000382      -0.000092       0.000000
      0.000382      -0.000093       0.000000
      0.000380      -0.000094       0.000000
      0.000379      -0.000094       0.000000
      0.000380      -0.000094       0.000000
      0.000381      -0.000094       0.000000
      0.000380      -0.000094       0.000000
      0.000380      -0.000094       0.000000
      0.000382      -0.000093       0.000000
      0.000383      -0.000093       0.000000
      0.000381      -0.000094       0.000000
      0.000382      -0.000092       0.000000
      0.000383      -0.000091       0.000000
      0.000383      -0.000091       0.000000
      0.000382      -0.000092       0.000000
      0.000383      -0.000091       0.000000
      0.000384      -0.000090       0.000000
      0.000385      -0.000090       0.000000
      0.000383      -0.000091       0.000000
      0.000382      -0.000092       0.000000
      0.000383      -0.000091       0.000000
      0.000384      -0.000092       0.000000
      0.000382      -0.000093       0.000000
      0.000383      -0.000091       0.000000
      0.000385      -0.000090       0.000000
      0.000385      -0.000091       0.000000
      0.000384      -0.000092       0.000000
      0.000384      -0.000090       0.000000
      0.000386      -0.000088       0.000000
      0.000387      -0.000089       0.000000
      0.000385      -0.000090       0.000000
      0.000386      -0.000088       0.000000
      0.000390      -0.000085       0.000000
      0.000393      -0.000080       0.000000
      0.000387      -0.000089       0.000000
      0.000385      -0.000090       0.000000
      0.000387      -0.000089       0.000000
      0.000389      -0.000090       0.000000
      0.000385      -0.000091       0.000000
      0.000387      -0.000089       0.000000
      0.000393      -0.000080       0.000000
      0.000396      -0.000070       0.000000
      0.000389      -0.000090       0.000000
      0.000382      -0.000093       0.000000
      0.000384      -0.000092       0.000000
      0.000384      -0.000093       0.000000
      0.000383      -0.000093       0.000000
      0.000384      -0.000092       0.000000
      0.000385      -0.000091       0.000000
      0.000386      -0.000093       0.000000
      0.000384      -0.000093       0.000000
      0.000383      -0.000093       0.000000
      0.000384      -0.000093       0.000000
      0.000385      -0.000092       0.000000
      0.000383      -0.000093       0.000000
      0.000384      -0.000093       0.000000
      0.000386      -0.000093       0.000000
      0.000393      -0.000089       0.000000
      0.000385      -0.000092       0.000000
      0.000385      -0.000091       0.000000
      0.000389      -0.000090       0.000000
      0.000390      -0.000097       0.000000
      0.000386      -0.000093       0.000000
      0.000389      -0.000090       0.000000
      0.000396      -0.000070       0.000000
      0.000274       0.000039       0.000000
      0.000390      -0.000097       0.000000
      0.000386      -0.000093       0.000000
      0.000390      -0.000097       0.000000
      0.000460      -0.000077       0.000000
      0.000393      -0.000089       0.000000
      0.000390      -0.000097       0.000000
      0.000274       0.000039       0.000000
      0.009796       0.000923       0.000000
      0.000460      -0.000077       0.000000
      0.000383      -0.000089       0.000000
      0.000384      -0.000087       0.000000
      0.000385      -0.000087       0.000000
      0.000384      -0.000089       0.000000
      0.000384      -0.000087       0.000000
      0.000386      -0.000085       0.000000
      0.000387      -0.000086       0.000000
      0.000385      -0.000087       0.000000
      0.000384      -0.000089       0.000000
      0.000385      -0.000087       0.000000
      0.000386      -0.000088       0.000000
      0.000384      -0.000090       0.000000
      0.000385      -0.000087       0.000000
      0.000387      -0.000086       0.000000
      0.000390      -0.000085       0.000000
      0.000386      -0.000088       0.000000
      0.000380      -0.000090       0.000000
      0.000383      -0.000087       0.000000
      0.000382      -0.000087       0.000000
      0.000380      -0.000090       0.000000
      0.000383      -0.000087       0.000000
      0.000386      -0.000083       0.000000
      0.000385      -0.000083       0.000000
      0.000382      -0.000087       0.000000
      0.000380      -0.000090       0.000000
      0.000382      -0.000087       0.000000
      0.000382      -0.000088       0.000000
      0.000380      -0.000091       0.000000
      0.000382      -0.000088       0.000000
      0.000384      -0.000086       0.000000
      0.000384      -0.000086       0.000000
      0.000383      -0.000088       0.000000
      0.000384      -0.000086       0.000000
      0.000385      -0.000084       0.000000
      0.000385      -0.000084       0.000000
      0.000384      -0.000086       0.000000
      0.000383      -0.000088       0.000000
      0.000384      -0.000086       0.000000
      0.000384      -0.000087       0.000000
      0.000383      -0.000089       0.000000
      0.000384      -0.000086       0.000000
      0.000385      -0.000084       0.000000
      0.000386      -0.000085       0.000000
      0.000384      -0.000087       0.000000
      0.000382      -0.000087       0.000000
      0.000383      -0.000086       0.000000
      0.000383      -0.000086       0.000000
      0.000382      -0.000088       0.000000
      0.000383      -0.000086       0.000000
      0.000385      -0.000083       0.000000
      0.000385      -0.000084       0.000000
      0.000383      -0.000086       0.000000
      0.000382      -0.000088       0.000000
      0.000383      -0.000086       0.000000
      0.000384      -0.000086       0.000000
      0.000382      -0.000088       0.000000
      0.000383      -0.000086       0.000000
      0.000385      -0.000084       0.000000
      0.000385      -0.000084       0.000000
      0.000384      -0.000086       0.000000
      0.000369      -0.000077       0.000000
      0.000395      -0.000081       0.000000
      0.000389      -0.000087       0.000000
      0.000373      -0.000085       0.000000
      0.000395      -0.000081       0.000000
      0.000421      -0.000078       0.000000
      0.000404      -0.000083       0.000000
      0.000389      -0.000087       0.000000
      0.000373      -0.000085       0.000000
      0.000389      -0.000087       0.000000
      0.000384      -0.000090       0.000000
      0.000374      -0.000090       0.000000
      0.000384      -0.000090       0.000000
      0.000388      -0.000087       0.000000
      0.000385      -0.000087       0.000000
      0.000382      -0.000090       0.000000
      0.000388      -0.000087       0.000000
      0.000392      -0.000083       0.000000
      0.000388      -0.000083       0.000000
      0.000385      -0.000087       0.000000
      0.000382      -0.000090       0.000000
      0.000385      -0.000087       0.000000
      0.000383      -0.000087       0.000000
      0.000380      -0.000090       0.000000
      0.000385      -0.000087       0.000000
      0.000388      -0.000083       0.000000
      0.000386      -0.000083       0.000000
      0.000383      -0.000087       0.000000
      0.000389      -0.000087       0.000000
      0.000397      -0.000086       0.000000
      0.000392      -0.000087       0.000000
      0.000386      -0.000089       0.000000
      0.000397      -0.000086       0.000000
      0.000404      -0.000083       0.000000
      0.000397      -0.000083       0.000000
      0.000392      -0.000087       0.000000
      0.000386      -0.000089       0.000000
      0.000392      -0.000087       0.000000
      0.000388      -0.000087       0.000000
      0.000384      -0.000090       0.000000
      0.000392      -0.000087       0.000000
      0.000397      -0.000083       0.000000
      0.000392      -0.000083       0.000000
      0.000388      -0.000087       0.000000
      0.000331      -0.000046       0.000000
      0.000375      -0.000048       0.000000
      0.000393      -0.000068       0.000000
      0.000358      -0.000064       0.000000
      0.000375      -0.000048       0.000000
      0.000427      -0.000046       0.000000
      0.000433      -0.000067       0.000000
      0.000393      -0.000068       0.000000
      0.000358      -0.000064       0.000000
      0.000393      -0.000068       0.000000
      0.000395      -0.000081       0.000000
      0.000369      -0.000077       0.000000
      0.000393      -0.000068       0.000000
      0.000433      -0.000067       0.000000
      0.000421      -0.000078       0.000000
      0.000395      -0.000081       0.000000
      0.000000       0.000000       0.000000
      0.000000       0.000000       0.000000
      0.000440       0.000056       0.000000
      0.000302       0.000003       0.000000
      0.000000       0.000000       0.000000
      0.000000       0.000000       0.000000
      0.000604       0.000224       0.000000
      0.000440       0.000056       0.000000
      0.000302       0.000003       0.000000
      0.000440       0.000056       0.000000
      0.000577       0.000002       0.000000
      0.000427      -0.000046       0.000000
      0.000000       0.000000       0.000000
      0.000000       0.000000       0.000000
      0.000673       0.000327       0.000000
      0.000604       0.000224       0.000000
      0.000000       0.000000       0.000000
      0.000000       0.000000       0.000000
      0.000764       0.000164       0.000000
      0.000673       0.000327       0.000000
      0.000000       0.000000       0.000000
      0.000000       0.000000       0.000000
      0.000865       0.000052       0.000000
      0.000764       0.000164       0.000000
      0.000000       0.000000       0.000000
      0.000000       0.000000       0.000000
      0.000903       0.000000       0.000000
      0.000865       0.000052       0.000000
      0.000764       0.000164       0.000000
      0.000865       0.000052       0.000000
      0.002127       0.000057       0.000000
      0.001982       0.000208       0.000000
      0.000865       0.000052       0.000000
      0.000903       0.000000       0.000000
      0.002169       0.000000       0.000000
      0.002127       0.000057       0.000000
      0.001982       0.000208       0.000000
      0.002127       0.000057       0.000000
      0.003812       0.000077       0.000000
      0.003847       0.000261       0.000000
      0.002127       0.000057       0.000000
      0.002169       0.000000       0.000000
      0.003805       0.000000       0.000000
      0.003812       0.000077       0.000000
      0.003847       0.000261       0.000000
      0.003812       0.000077       0.000000
      0.005565       0.000136       0.000000
      0.005691       0.000385       0.000000
      0.003812       0.000077       0.000000
      0.003805       0.000000       0.000000
      0.005524       0.000000       0.000000
      0.005565       0.000136       0.000000
      0.005874       0.000910       0.000000
      0.005691       0.000385       0.000000
      0.007215       0.000465       0.000000
      0.007379       0.000886       0.000000
      0.007505       0.001390       0.000000
      0.007379       0.000886       0.000000
      0.008584       0.000830       0.000000