# vtk DataFile Version 2.0
time_10.vtk
ASCII
DATASET UNSTRUCTURED_GRID
POINTS  1560 float
      0.000000       0.000000       0.000000
      0.083333       0.000000       0.000000
      0.083333       0.083333       0.000000
      0.000000       0.083333       0.000000
      0.083333       0.000000       0.000000
      0.166667       0.000000       0.000000
      0.166667       0.083333       0.000000
      0.083333       0.083333       0.000000
      0.000000       0.083333       0.000000
      0.083333       0.083333       0.000000
      0.083333       0.166667       0.000000
      0.000000       0.166667       0.000000
      0.083333       0.083333       0.000000
      0.166667       0.083333       0.000000
      0.166667       0.166667       0.000000
      0.083333       0.166667       0.000000
      0.166667       0.000000       0.000000
      0.250000       0.000000       0.000000
      0.250000       0.083333       0.000000
      0.166667       0.083333       0.000000
      0.250000       0.000000       0.000000
      0.333333       0.000000       0.000000
      0.333333       0.083333       0.000000
      0.250000       0.083333       0.000000
      0.166667       0.083333       0.000000
      0.250000       0.083333       0.000000
      0.250000       0.166667       0.000000
      0.166667       0.166667       0.000000
      0.250000       0.083333       0.000000
      0.333333       0.083333       0.000000
      0.333333       0.166667       0.000000
      0.250000       0.166667       0.000000
      0.333333       0.000000       0.000000
      0.416667      -0.000000       0.000000
      0.416667       0.083333       0.000000
      0.333333       0.083333       0.000000
      0.416667      -0.000000       0.000000
      0.500000       0.000000       0.000000
      0.500000       0.083333       0.000000
      0.416667       0.083333       0.000000
      0.333333       0.083333       0.000000
      0.416667       0.083333       0.000000
      0.416667       0.166667       0.000000
      0.333333       0.166667       0.000000
      0.416667       0.083333       0.000000
      0.500000       0.083333       0.000000
      0.500000       0.166667       0.000000
      0.416667       0.166667       0.000000
      0.000000       0.166667       0.000000
      0.083333       0.166667       0.000000
      0.083333       0.250000       0.000000
      0.000000       0.250000       0.000000
      0.083333       0.166667       0.000000
      0.166667       0.166667       0.000000
      0.166667       0.250000       0.000000
      0.083333       0.250000       0.000000
      0.000000       0.250000       0.000000
      0.083333       0.250000       0.000000
      0.083333       0.333333       0.000000
      0.000000       0.333333       0.000000
      0.083333       0.250000       0.000000
      0.166667       0.250000       0.000000
      0.166667       0.333333       0.000000
      0.083333       0.333333       0.000000
      0.166667       0.166667       0.000000
      0.250000       0.166667       0.000000
      0.250000       0.250000       0.000000
      0.166667       0.250000       0.000000
      0.250000       0.166667       0.000000
      0.333333       0.166667       0.000000
      0.333333       0.250000       0.000000
      0.250000       0.250000       0.000000
      0.166667       0.250000       0.000000
      0.250000       0.250000       0.000000
      0.250000       0.333333       0.000000
      0.166667       0.333333       0.000000
      0.250000       0.250000       0.000000
      0.333333       0.250000       0.000000
      0.333333       0.333333       0.000000
      0.250000       0.333333       0.000000
      0.333333       0.166667       0.000000
      0.416667       0.166667       0.000000
      0.416667       0.250000       0.000000
      0.333333       0.250000       0.000000
      0.416667       0.166667       0.000000
      0.500000       0.166667       0.000000
      0.500000       0.250000       0.000000
      0.416667       0.250000       0.000000
      0.333333       0.250000       0.000000
      0.416667       0.250000       0.000000
      0.416667       0.333333       0.000000
      0.333333       0.333333       0.000000
      0.000000       0.333333       0.000000
      0.083333       0.333333       0.000000
      0.083333       0.416667       0.000000
     -0.000000       0.416667       0.000000
      0.083333       0.333333       0.000000
      0.166667       0.333333       0.000000
      0.166667       0.416667       0.000000
      0.083333       0.416667       0.000000
     -0.000000       0.416667       0.000000
      0.083333       0.416667       0.000000
      0.083333       0.500000       0.000000
      0.000000       0.500000       0.000000
      0.083333       0.416667       0.000000
      0.166667       0.416667       0.000000
      0.166667       0.500000       0.000000
      0.083333       0.500000       0.000000
      0.166667       0.333333       0.000000
      0.250000       0.333333       0.000000
      0.250000       0.416667       0.000000
      0.166667       0.416667       0.000000
      0.250000       0.333333       0.000000
      0.333333       0.333333       0.000000
      0.333333       0.416667       0.000000
      0.250000       0.416667       0.000000
      0.166667       0.416667       0.000000
      0.250000       0.416667       0.000000
      0.250000       0.500000       0.000000
      0.166667       0.500000       0.000000
      0.250000       0.416667       0.000000
      0.333333       0.416667       0.000000
      0.333333       0.500000       0.000000
      0.250000       0.500000       0.000000
      0.333333       0.333333       0.000000
      0.375000       0.333333       0.000000
      0.375000       0.375000       0.000000
      0.333333       0.375000       0.000000
      0.375000       0.333333       0.000000
      0.416667       0.333333       0.000000
      0.416667       0.375000       0.000000
      0.375000       0.375000       0.000000
      0.333333       0.375000       0.000000
      0.375000       0.375000       0.000000
      0.375000       0.416667       0.000000
      0.333333       0.416667       0.000000
      0.375000       0.375000       0.000000
      0.416667       0.375000       0.000000
      0.416667       0.416667       0.000000
      0.375000       0.416667       0.000000
      0.416667       0.333333       0.000000
      0.458333       0.333333       0.000000
      0.458333       0.375000       0.000000
      0.416667       0.375000       0.000000
      0.416667       0.375000       0.000000
      0.458333       0.375000       0.000000
      0.458333       0.416667       0.000000
      0.416667       0.416667       0.000000
      0.333333       0.416667       0.000000
      0.375000       0.416667       0.000000
      0.375000       0.458333       0.000000
      0.333333       0.458333       0.000000
      0.375000       0.416667       0.000000
      0.416667       0.416667       0.000000
      0.416667       0.458333       0.000000
      0.375000       0.458333       0.000000
      0.333333       0.458333       0.000000
      0.375000       0.458333       0.000000
      0.375000       0.500000       0.000000
      0.333333       0.500000       0.000000
      0.375000       0.458333       0.000000
      0.416667       0.458333       0.000000
      0.416667       0.500000       0.000000
      0.375000       0.500000       0.000000
      0.416667       0.416667       0.000000
      0.437500       0.416667       0.000000
      0.437500       0.437500       0.000000
      0.416667       0.437500       0.000000
      0.437500       0.416667       0.000000
      0.458333       0.416667       0.000000
      0.458333       0.437500       0.000000
      0.437500       0.437500       0.000000
      0.416667       0.437500       0.000000
      0.437500       0.437500       0.000000
      0.437500       0.458333       0.000000
      0.416667       0.458333       0.000000
      0.437500       0.437500       0.000000
      0.458333       0.437500       0.000000
      0.458333       0.458333       0.000000
      0.437500       0.458333       0.000000
      0.458333       0.416667       0.000000
      0.479167       0.416667       0.000000
      0.479167       0.437500       0.000000
      0.458333       0.437500       0.000000
      0.458333       0.437500       0.000000
      0.479167       0.437500       0.000000
      0.479167       0.458333       0.000000
      0.458333       0.458333       0.000000
      0.416667       0.458333       0.000000
      0.437500       0.458333       0.000000
      0.437500       0.479167       0.000000
      0.416667       0.479167       0.000000
      0.437500       0.458333       0.000000
      0.458333       0.458333       0.000000
      0.458333       0.479167       0.000000
      0.437500       0.479167       0.000000
      0.416667       0.479167       0.000000
      0.437500       0.479167       0.000000
      0.437500       0.500000       0.000000
      0.416667       0.500000       0.000000
      0.437500       0.479167       0.000000
      0.458333       0.479167       0.000000
      0.458333       0.500000       0.000000
      0.437500       0.500000       0.000000
      0.458333       0.458333       0.000000
      0.468750       0.458333       0.000000
      0.468750       0.468750       0.000000
      0.458333       0.468750       0.000000
      0.468750       0.458333       0.000000
      0.479167       0.458333       0.000000
      0.479167       0.468750       0.000000
      0.468750       0.468750       0.000000
      0.458333       0.468750       0.000000
      0.468750       0.468750       0.000000
      0.468750       0.479167       0.000000
      0.458333       0.479167       0.000000
      0.468750       0.468750       0.000000
      0.479167       0.468750       0.000000
      0.479167       0.479167       0.000000
      0.468750       0.479167       0.000000
[...]
POINT_DATA  1560
VECTORS U float 
      0.000000       0.000000       0.000000
      0.000000       0.000000       0.000000
      0.000369       0.000005       0.000000
      0.000360       0.000000       0.000000
      0.000000       0.000000       0.000000
      0.000000       0.000000       0.000000
      0.000395       0.000013       0.000000
      0.000369       0.000005       0.000000
      0.000360       0.000000       0.000000
      0.000369       0.000005       0.000000
      0.000678      -0.000001       0.000000
      0.000664       0.000000       0.000000
      0.000369       0.000005       0.000000
      0.000395       0.000013       0.000000
      0.000720       0.000003       0.000000
      0.000678      -0.000001       0.000000
      0.000000       0.000000       0.000000
      0.000000       0.000000       0.000000
      0.000437       0.000028       0.000000
      0.000395       0.000013       0.000000
      0.000000       0.000000       0.000000
      0.000000       0.000000       0.000000
      0.000489       0.000057       0.000000
      0.000437       0.000028       0.000000
      0.000395       0.000013       0.000000
      0.000437       0.000028       0.000000
      0.000791       0.000024       0.000000
      0.000720       0.000003       0.000000
      0.000437       0.000028       0.000000
      0.000489       0.000057       0.000000
      0.000888       0.000072       0.000000
      0.000791       0.000024       0.000000
      0.000000       0.000000       0.000000
      0.000000       0.000000       0.000000
      0.000539       0.000102       0.000000
      0.000489       0.000057       0.000000
      0.000000       0.000000       0.000000
      0.000000       0.000000       0.000000
      0.000569       0.000155       0.000000
      0.000539       0.000102       0.000000
      0.000489       0.000057       0.000000
      0.000539       0.000102       0.000000
      0.001000       0.000164       0.000000
      0.000888       0.000072       0.000000
      0.000539       0.000102       0.000000
      0.000569       0.000155       0.000000
      0.001098       0.000291       0.000000
      0.001000       0.000164       0.000000
      0.000664       0.000000       0.000000
      0.000678      -0.000001       0.000000
      0.000913      -0.000014       0.000000
      0.000897       0.000000       0.000000
      0.000678      -0.000001       0.000000
      0.000720       0.000003       0.000000
      0.000961      -0.000021       0.000000
      0.000913      -0.000014       0.000000
      0.000897       0.000000       0.000000
      0.000913      -0.000014       0.000000
      0.001072      -0.000029       0.000000
      0.001058       0.000000       0.000000
      0.000913      -0.000014       0.000000
      0.000961      -0.000021       0.000000
      0.001114      -0.000051       0.000000
      0.001072      -0.000029       0.000000
      0.000720       0.000003       0.000000
      0.000791       0.000024       0.000000
      0.001045      -0.000009       0.000000
      0.000961      -0.000021       0.000000
      0.000791       0.000024       0.000000
      0.000888       0.000072       0.000000
      0.001171       0.000040       0.000000
      0.001045      -0.000009       0.000000
      0.000961      -0.000021       0.000000
      0.001045      -0.000009       0.000000
      0.001188      -0.000055       0.000000
      0.001114      -0.000051       0.000000
      0.001045      -0.000009       0.000000
      0.001171       0.000040       0.000000
      0.001303      -0.000025       0.000000
      0.001188      -0.000055       0.000000
      0.000888       0.000072       0.000000
      0.001000       0.000164       0.000000
      0.001349       0.000156       0.000000
      0.001171       0.000040       0.000000
      0.001000       0.000164       0.000000
      0.001098       0.000291       0.000000
      0.001570       0.000375       0.000000
      0.001349       0.000156       0.000000
      0.001171       0.000040       0.000000
      0.001349       0.000156       0.000000
      0.001481       0.000069       0.000000
      0.001303      -0.000025       0.000000
      0.001058       0.000000       0.000000
      0.001072      -0.000029       0.000000
      0.001168      -0.000040       0.000000
      0.001159       0.000000       0.000000
      0.001072      -0.000029       0.000000
      0.001114      -0.000051       0.000000
      0.001194      -0.000074       0.000000
      0.001168      -0.000040       0.000000
      0.001159       0.000000       0.000000
      0.001168      -0.000040       0.000000
      0.001223      -0.000046       0.000000
      0.001219       0.000000       0.000000
      0.001168      -0.000040       0.000000
      0.001194      -0.000074       0.000000
      0.001234      -0.000084       0.000000
      0.001223      -0.000046       0.000000
      0.001114      -0.000051       0.000000
      0.001188      -0.000055       0.000000
      0.001238      -0.000092       0.000000
      0.001194      -0.000074       0.000000
      0.001188      -0.000055       0.000000
      0.001303      -0.000025       0.000000
      0.001301      -0.000076       0.000000
      0.001238      -0.000092       0.000000
      0.001194      -0.000074       0.000000
      0.001238      -0.000092       0.000000
      0.001247      -0.000106       0.000000
      0.001234      -0.000084       0.000000
      0.001238      -0.000092       0.000000
      0.001301      -0.000076       0.000000
      0.001251      -0.000091       0.000000
      0.001247      -0.000106       0.000000
      0.001303      -0.000025       0.000000
      0.001382       0.000011       0.000000
      0.001375      -0.000024       0.000000
      0.001314      -0.000055       0.000000
      0.001382       0.000011       0.000000
      0.001481       0.000069       0.000000
      0.001447       0.000026       0.000000
      0.001375      -0.000024       0.000000
      0.001314      -0.000055       0.000000
      0.001375      -0.000024       0.000000
      0.001339      -0.000048       0.000000
      0.001301      -0.000076       0.000000
      0.001375      -0.000024       0.000000
      0.001447       0.000026       0.000000
      0.001378       0.000002       0.000000
      0.001339      -0.000048       0.000000
      0.001481       0.000069       0.000000
      0.001609       0.000159       0.000000
      0.001534       0.000104       0.000000
      0.001447       0.000026       0.000000
      0.001447       0.000026       0.000000
      0.001534       0.000104       0.000000
      0.001416       0.000080       0.000000
      0.001378       0.000002       0.000000
      0.001301      -0.000076       0.000000
      0.001339      -0.000048       0.000000
      0.001292      -0.000059       0.000000
      0.001276      -0.000088       0.000000
      0.001339      -0.000048       0.000000
      0.001378       0.000002       0.000000
      0.001306      -0.000006       0.000000
      0.001292      -0.000059       0.000000
      0.001276      -0.000088       0.000000
      0.001292      -0.000059       0.000000
      0.001247      -0.000060       0.000000
      0.001251      -0.000091       0.000000
      0.001292      -0.000059       0.000000
      0.001306      -0.000006       0.000000
      0.001238      -0.000006       0.000000
      0.001247      -0.000060       0.000000
      0.001378       0.000002       0.000000
      0.001398       0.000037       0.000000
      0.001353       0.000033       0.000000
      0.001341      -0.000003       0.000000
      0.001398       0.000037       0.000000
      0.001416       0.000080       0.000000
      0.001362       0.000077       0.000000
      0.001353       0.000033       0.000000
      0.001341      -0.000003       0.000000
      0.001353       0.000033       0.000000
      0.001311       0.000032       0.000000
      0.001306      -0.000006       0.000000
      0.001353       0.000033       0.000000
      0.001362       0.000077       0.000000
      0.001316       0.000076       0.000000
      0.001311       0.000032       0.000000
      0.001416       0.000080       0.000000
      0.001432       0.000135       0.000000
      0.001371       0.000132       0.000000
      0.001362       0.000077       0.000000
      0.001362       0.000077       0.000000
      0.001371       0.000132       0.000000
      0.001321       0.000129       0.000000
      0.001316       0.000076       0.000000
      0.001306      -0.000006       0.000000
      0.001311       0.000032       0.000000
      0.001273       0.000031       0.000000
      0.001272      -0.000006       0.000000
      0.001311       0.000032       0.000000
      0.001316       0.000076       0.000000
      0.001275       0.000076       0.000000
      0.001273       0.000031       0.000000
      0.001272      -0.000006       0.000000
      0.001273       0.000031       0.000000
      0.001234       0.000032       0.000000
      0.001238      -0.000006       0.000000
      0.001273       0.000031       0.000000
      0.001275       0.000076       0.000000
      0.001232       0.000076       0.000000
      0.001234       0.000032       0.000000
      0.001316       0.000076       0.000000
      0.001318       0.000102       0.000000
      0.001296       0.000101       0.000000
      0.001295       0.000076       0.000000
      0.001318       0.000102       0.000000
      0.001321       0.000129       0.000000
      0.001299       0.000127       0.000000
      0.001296       0.000101       0.000000
      0.001295       0.000076       0.000000
      0.001296       0.000101       0.000000
      0.001276       0.000100       0.000000
      0.001275       0.000076       0.000000
      0.001296       0.000101       0.000000
      0.001299       0.000127       0.000000
      0.001278       0.000125       0.000000
      0.001276       0.000100       0.000000
      0.001321       0.000129       0.000000
      0.001324       0.000159       0.000000
      0.001302       0.000156       0.000000
      0.001299       0.000127       0.000000
      0.001324       0.000159       0.000000
      0.001331       0.000192       0.000000
      0.001310       0.000195       0.000000
      0.001302       0.000156       0.000000
      0.001299       0.000127       0.000000
      0.001302       0.000156       0.000000
      0.001282       0.000152       0.000000
      0.001278       0.000125       0.000000
      0.001302       0.000156       0.000000
      0.001310       0.000195       0.000000
      0.001278       0.000197       0.000000
      0.001282       0.000152       0.000000
      0.001275       0.000076       0.000000
      0.001276       0.000100       0.000000
      0.001255       0.000099       0.000000
      0.001254       0.000076       0.000000
      0.001276       0.000100       0.000000
      0.001278       0.000125       0.000000
      0.001257       0.000123       0.000000
      0.001255       0.000099       0.000000
      0.001254       0.000076       0.000000
      0.001255       0.000099       0.000000
      0.001233       0.000100       0.000000
      0.001232       0.000076       0.000000
      0.001255       0.000099       0.000000
      0.001257       0.000123       0.000000
      0.001240       0.000126       0.000000
      0.001233       0.000100       0.000000
      0.001278       0.000125       0.000000
      0.001282       0.000152       0.000000
      0.001260       0.000144       0.000000
      0.001257       0.000123       0.000000
      0.001282       0.000152       0.000000
      0.001278       0.000197       0.000000
      0.000988       0.000154       0.000000
      0.001260       0.000144       0.000000
      0.001257       0.000123       0.000000
      0.001260       0.000144       0.000000
      0.001288       0.000159       0.000000
      0.001240       0.000126       0.000000
      0.001260       0.000144       0.000000
      0.000988       0.000154       0.000000
      0.007981       0.000757       0.000000
      0.001288       0.000159       0.000000
      0.001371       0.000132       0.000000
      0.001375       0.000163       0.000000
      0.001348       0.000161       0.000000
      0.001345       0.000130       0.000000
      0.001375       0.000163       0.000000
      0.001380       0.000198       0.000000
      0.001353       0.000196       0.000000
      0.001348       0.000161       0.000000
      0.001345       0.000130       0.000000
      0.001348       0.000161       0.000000
      0.001324       0.000159       0.000000
      0.001321       0.000129       0.000000
      0.001348       0.000161       0.000000
      0.001353       0.000196       0.000000
      0.001331       0.000192       0.000000
      0.001324       0.000159       0.000000
      0.001534       0.000104       0.000000
      0.001585       0.000158       0.000000
      0.001506       0.000142       0.000000
      0.001475       0.000088       0.000000
      0.001585       0.000158       0.000000
      0.001644       0.000228       0.000000
      0.001538       0.000211       0.000000
      0.001506       0.000142       0.000000
      0.001475       0.000088       0.000000
      0.001506       0.000142       0.000000
      0.001432       0.000135       0.000000
      0.001416       0.000080       0.000000
      0.001432       0.000135       0.000000
      0.001440       0.000167       0.000000
      0.001405       0.000165       0.000000
      0.001400       0.000133       0.000000
      0.001440       0.000167       0.000000
      0.001447       0.000204       0.000000
      0.001411       0.000202       0.000000
      0.001405       0.000165       0.000000
      0.001400       0.000133       0.000000
      0.001405       0.000165       0.000000
      0.001375       0.000163       0.000000
      0.001371       0.000132       0.000000
      0.001405       0.000165       0.000000
      0.001411       0.000202       0.000000
      0.001380       0.000198       0.000000
      0.001375       0.000163       0.000000
      0.001506       0.000142       0.000000
      0.001522       0.000174       0.000000
      0.001479       0.000170       0.000000
      0.001468       0.000137       0.000000
      0.001522       0.000174       0.000000
      0.001538       0.000211       0.000000
      0.001490       0.000207       0.000000
      0.001479       0.000170       0.000000
      0.001468       0.000137       0.000000
      0.001479       0.000170       0.000000
      0.001440       0.000167       0.000000
      0.001432       0.000135       0.000000
      0.001479       0.000170       0.000000
      0.001490       0.000207       0.000000
      0.001447       0.000204       0.000000
      0.001440       0.000167       0.000000
      0.001349       0.000156       0.000000
      0.001458       0.000252       0.000000
      0.001581       0.000220       0.000000
      0.001449       0.000119       0.000000
      0.001458       0.000252       0.000000
      0.001570       0.000375       0.000000
      0.001742       0.000369       0.000000
      0.001581       0.000220       0.000000
      0.001449       0.000119       0.000000
      0.001581       0.000220       0.000000
      0.001609       0.000159       0.000000
      0.001481       0.000069       0.000000
      0.001581       0.000220       0.000000
      0.001742       0.000369       0.000000
      0.001791       0.000307       0.000000
      0.001609       0.000159       0.000000
      0.001609       0.000159       0.000000
      0.001691       0.000223       0.000000
      0.001653       0.000187       0.000000
      0.001582       0.000129       0.000000
      0.001691       0.000223       0.000000
      0.001791       0.000307       0.000000
      0.001740       0.000263       0.000000
      0.001653       0.000187       0.000000
      0.001582       0.000129       0.000000
      0.001653       0.000187       0.000000
      0.001585       0.000158       0.000000
      0.001534       0.000104       0.000000
      0.001653       0.000187       0.000000
      0.001740       0.000263       0.000000
      0.001644       0.000228       0.000000
      0.001585       0.000158       0.000000
      0.000000       0.000000       0.000000
      0.000000       0.000000       0.000000
      0.000571       0.000182       0.000000
      0.000569       0.000155       0.000000
      0.000000       0.000000       0.000000
      0.000000       0.000000       0.000000
      0.000569       0.000159       0.000000
      0.000571       0.000182       0.000000
      0.000569       0.000155       0.000000
      0.000571       0.000182       0.000000
      0.001150       0.000367       0.000000
      0.001098       0.000291       0.000000
      0.000571       0.000182       0.000000
      0.000569       0.000159       0.000000
      0.001195       0.000303       0.000000
      0.001150       0.000367       0.000000
      0.000000       0.000000       0.000000
      0.000000       0.000000       0.000000
      0.000587       0.000106       0.000000
      0.000569       0.000159       0.000000
      0.000000       0.000000       0.000000
      0.000000       0.000000       0.000000
      0.000620       0.000058       0.000000
      0.000587       0.000106       0.000000
      0.000569       0.000159       0.000000
      0.000587       0.000106       0.000000
      0.001276       0.000179       0.000000
      0.001195       0.000303       0.000000
      0.000587       0.000106       0.000000
      0.000620       0.000058       0.000000
      0.001362       0.000085       0.000000
      0.001276       0.000179       0.000000
      0.000000       0.000000       0.000000
      0.000000       0.000000       0.000000
      0.000649       0.000024       0.000000
      0.000620       0.000058       0.000000
      0.000000       0.000000       0.000000
      0.000000       0.000000       0.000000
      0.000660       0.000000       0.000000
      0.000649       0.000024       0.000000
      0.000620       0.000058       0.000000
      0.000649       0.000024       0.000000
      0.001423       0.000031       0.000000
      0.001362       0.000085       0.000000
      0.000649       0.000024       0.000000
      0.000660       0.000000       0.000000
      0.001445       0.000000       0.000000
      0.001423       0.000031       0.000000
      0.001098       0.000291       0.000000
      0.001150       0.000367       0.000000
      0.001743       0.000556       0.000000
      0.001570       0.000375       0.000000
      0.001150       0.000367       0.000000
      0.001195       0.000303       0.000000
      0.001914       0.000394       0.000000
      0.001743       0.000556       0.000000
      0.001195       0.000303       0.000000
      0.001276       0.000179       0.000000
      0.002118       0.000186       0.000000
      0.001914       0.000394       0.000000
      0.001276       0.000179       0.000000
      0.001362       0.000085       0.000000
      0.002272       0.000070       0.000000
      0.002118       0.000186       0.000000
      0.001914       0.000394       0.000000
      0.002118       0.000186       0.000000
      0.003262       0.000115       0.000000
      0.002973       0.000346       0.000000
      0.002118       0.000186       0.000000
      0.002272       0.000070       0.000000
      0.003414       0.000023       0.000000
      0.003262       0.000115       0.000000
      0.001362       0.000085       0.000000
      0.001423       0.000031       0.000000
      0.002360       0.000020       0.000000
      0.002272       0.000070       0.000000
      0.001423       0.000031       0.000000
      0.001445       0.000000       0.000000
      0.002389       0.000000       0.000000
      0.002360       0.000020       0.000000
      0.002272       0.000070       0.000000
      0.002360       0.000020       0.000000
      0.003488      -0.000002       0.000000