# vtk DataFile Version 2.0
time_10.vtk
ASCII
DATASET UNSTRUCTURED_GRID
POINTS  1152 float
      0.000000       0.000000       0.000000
      0.083333       0.000000       0.000000
      0.083333       0.083333       0.000000
      0.000000       0.083333       0.000000
      0.083333       0.000000       0.000000
      0.166667       0.000000       0.000000
      0.166667       0.083333       0.000000
      0.083333       0.083333       0.000000
      0.000000       0.083333       0.000000
      0.083333       0.083333       0.000000
      0.083333       0.166667       0.000000
      0.000000       0.166667       0.000000
      0.083333       0.083333       0.000000
      0.166667       0.083333       0.000000
      0.166667       0.166667       0.000000
      0.083333       0.166667       0.000000
      0.166667       0.000000       0.000000
      0.250000       0.000000       0.000000
      0.250000       0.083333       0.000000
      0.166667       0.083333       0.000000
      0.250000       0.000000       0.000000
      0.333333       0.000000       0.000000
      0.333333       0.083333       0.000000
      0.250000       0.083333       0.000000
      0.166667       0.083333       0.000000
      0.250000       0.083333       0.000000
      0.250000       0.166667       0.000000
      0.166667       0.166667       0.000000
      0.250000       0.083333       0.000000
      0.333333       0.083333       0.000000
      0.333333       0.166667       0.000000
      0.250000       0.166667       0.000000
      0.333333       0.000000       0.000000
      0.416667      -0.000000       0.000000
      0.416667       0.083333       0.000000
      0.333333       0.083333       0.000000
      0.416667      -0.000000       0.000000
      0.500000       0.000000       0.000000
      0.500000       0.083333       0.000000
      0.416667       0.083333       0.000000
      0.333333       0.083333       0.000000
      0.416667       0.083333       0.000000
      0.416667       0.166667       0.000000
      0.333333       0.166667       0.000000
      0.416667       0.083333       0.000000
      0.500000       0.083333       0.000000
      0.500000       0.166667       0.000000
      0.416667       0.166667       0.000000
      0.000000       0.166667       0.000000
      0.083333       0.166667       0.000000
      0.083333       0.250000       0.000000
      0.000000       0.250000       0.000000
      0.083333       0.166667       0.000000
      0.166667       0.166667       0.000000
      0.166667       0.250000       0.000000
      0.083333       0.250000       0.000000
      0.000000       0.250000       0.000000
      0.083333       0.250000       0.000000
      0.083333       0.333333       0.000000
      0.000000       0.333333       0.000000
      0.083333       0.250000       0.000000
      0.166667       0.250000       0.000000
      0.166667       0.333333       0.000000
      0.083333       0.333333       0.000000
      0.166667       0.166667       0.000000
      0.250000       0.166667       0.000000
      0.250000       0.250000       0.000000
      0.166667       0.250000       0.000000
      0.250000       0.166667       0.000000
      0.333333       0.166667       0.000000
      0.333333       0.250000       0.000000
      0.250000       0.250000       0.000000
      0.166667       0.250000       0.000000
      0.250000       0.250000       0.000000
      0.250000       0.333333       0.000000
      0.166667       0.333333       0.000000
      0.250000       0.250000       0.000000
      0.333333       0.250000       0.000000
      0.333333       0.333333       0.000000
      0.250000       0.333333       0.000000
      0.333333       0.166667       0.000000
      0.416667       0.166667       0.000000
      0.416667       0.250000       0.000000
      0.333333       0.250000       0.000000
      0.416667       0.166667       0.000000
      0.500000       0.166667       0.000000
      0.500000       0.250000       0.000000
      0.416667       0.250000       0.000000
      0.333333       0.250000       0.000000
      0.416667       0.250000       0.000000
      0.416667       0.333333       0.000000
      0.333333       0.333333       0.000000
      0.416667       0.250000       0.000000
      0.500000       0.250000       0.000000
      0.500000       0.333333       0.000000
      0.416667       0.333333       0.000000
      0.000000       0.333333       0.000000
      0.083333       0.333333       0.000000
      0.083333       0.416667       0.000000
     -0.000000       0.416667       0.000000
      0.083333       0.333333       0.000000
      0.166667       0.333333       0.000000
      0.166667       0.416667       0.000000
      0.083333       0.416667       0.000000
     -0.000000       0.416667       0.000000
      0.083333       0.416667       0.000000
      0.083333       0.500000       0.000000
      0.000000       0.500000       0.000000
      0.083333       0.416667       0.000000
      0.166667       0.416667       0.000000
      0.166667       0.500000       0.000000
      0.083333       0.500000       0.000000
      0.166667       0.333333       0.000000
      0.250000       0.333333       0.000000
      0.250000       0.416667       0.000000
      0.166667       0.416667       0.000000
      0.250000       0.333333       0.000000
      0.333333       0.333333       0.000000
      0.333333       0.416667       0.000000
      0.250000       0.416667       0.000000
      0.166667       0.416667       0.000000
      0.250000       0.416667       0.000000
      0.250000       0.500000       0.000000
      0.166667       0.500000       0.000000
      0.250000       0.416667       0.000000
      0.333333       0.416667       0.000000
      0.333333       0.500000       0.000000
      0.250000       0.500000       0.000000
      0.333333       0.333333       0.000000
      0.375000       0.333333       0.000000
      0.375000       0.375000       0.000000
      0.333333       0.375000       0.000000
      0.375000       0.333333       0.000000
      0.416667       0.333333       0.000000
      0.416667       0.375000       0.000000
      0.375000       0.375000       0.000000
      0.333333       0.375000       0.000000
      0.375000       0.375000       0.000000
      0.375000       0.416667       0.000000
      0.333333       0.416667       0.000000
      0.375000       0.375000       0.000000
      0.416667       0.375000       0.000000
      0.416667       0.416667       0.000000
      0.375000       0.416667       0.000000
      0.416667       0.333333       0.000000
      0.458333       0.333333       0.000000
      0.458333       0.375000       0.000000
      0.416667       0.375000       0.000000
      0.458333       0.333333       0.000000
      0.500000       0.333333       0.000000
      0.500000       0.375000       0.000000
      0.458333       0.375000       0.000000
      0.416667       0.375000       0.000000
      0.458333       0.375000       0.000000
      0.458333       0.416667       0.000000
      0.416667       0.416667       0.000000
      0.458333       0.375000       0.000000
      0.500000       0.375000       0.000000
      0.500000       0.416667       0.000000
      0.458333       0.416667       0.000000
      0.333333       0.416667       0.000000
      0.375000       0.416667       0.000000
      0.375000       0.458333       0.000000
      0.333333       0.458333       0.000000
      0.375000       0.416667       0.000000
      0.416667       0.416667       0.000000
      0.416667       0.458333       0.000000
      0.375000       0.458333       0.000000
      0.333333       0.458333       0.000000
      0.375000       0.458333       0.000000
      0.375000       0.500000       0.000000
      0.333333       0.500000       0.000000
      0.375000       0.458333       0.000000
      0.416667       0.458333       0.000000
      0.416667       0.500000       0.000000
      0.375000       0.500000       0.000000
      0.416667       0.416667       0.000000
      0.437500       0.416667       0.000000
      0.437500       0.437500       0.000000
      0.416667       0.437500       0.000000
      0.437500       0.416667       0.000000
      0.458333       0.416667       0.000000
      0.458333       0.437500       0.000000
      0.437500       0.437500       0.000000
      0.416667       0.437500       0.000000
      0.437500       0.437500       0.000000
      0.437500       0.458333       0.000000
      0.416667       0.458333       0.000000
      0.437500       0.437500       0.000000
      0.458333       0.437500       0.000000
      0.458333       0.458333       0.000000
      0.437500       0.458333       0.000000
      0.458333       0.416667       0.000000
      0.479167       0.416667       0.000000
      0.479167       0.437500       0.000000
      0.458333       0.437500       0.000000
      0.479167       0.416667       0.000000
      0.500000       0.416667       0.000000
      0.500000       0.437500       0.000000
      0.479167       0.437500       0.000000
      0.458333       0.437500       0.000000
      0.479167       0.437500       0.000000
      0.479167       0.458333       0.000000
      0.458333       0.458333       0.000000
      0.479167       0.437500       0.000000
      0.500000       0.437500       0.000000
      0.500000       0.458333       0.000000
      0.479167       0.458333       0.000000
      0.416667       0.458333       0.000000
      0.437500       0.458333       0.000000
      0.437500       0.479167       0.000000
      0.416667       0.479167       0.000000
      0.437500       0.458333       0.000000
      0.458333       0.458333       0.000000
      0.458333       0.479167       0.000000
      0.437500       0.479167       0.000000
      0.416667       0.479167       0.000000
      0.437500       0.479167       0.000000
      0.437500       0.500000       0.000000
      0.416667       0.500000       0.000000
[...]
POINT_DATA  1152
VECTORS U float 
      0.000000       0.000000       0.000000
      0.000000       0.000000       0.000000
      0.000512       0.000020       0.000000
      0.000510       0.000000       0.000000
      0.000000       0.000000       0.000000
      0.000000       0.000000       0.000000
      0.000518       0.000042       0.000000
      0.000512       0.000020       0.000000
      0.000510       0.000000       0.000000
      0.000512       0.000020       0.000000
      0.000962       0.000036       0.000000
      0.000956       0.000000       0.000000
      0.000512       0.000020       0.000000
      0.000518       0.000042       0.000000
      0.000979       0.000076       0.000000
      0.000962       0.000036       0.000000
      0.000000       0.000000       0.000000
      0.000000       0.000000       0.000000
      0.000524       0.000064       0.000000
      0.000518       0.000042       0.000000
      0.000000       0.000000       0.000000
      0.000000       0.000000       0.000000
      0.000527       0.000084       0.000000
      0.000524       0.000064       0.000000
      0.000518       0.000042       0.000000
      0.000524       0.000064       0.000000
      0.001002       0.000119       0.000000
      0.000979       0.000076       0.000000
      0.000524       0.000064       0.000000
      0.000527       0.000084       0.000000
      0.001023       0.000163       0.000000
      0.001002       0.000119       0.000000
      0.000000       0.000000       0.000000
      0.000000       0.000000       0.000000
      0.000525       0.000097       0.000000
      0.000527       0.000084       0.000000
      0.000000       0.000000       0.000000
      0.000000       0.000000       0.000000
      0.000520       0.000097       0.000000
      0.000525       0.000097       0.000000
      0.000527       0.000084       0.000000
      0.000525       0.000097       0.000000
      0.001038       0.000193       0.000000
      0.001023       0.000163       0.000000
      0.000525       0.000097       0.000000
      0.000520       0.000097       0.000000
      0.001048       0.000194       0.000000
      0.001038       0.000193       0.000000
      0.000956       0.000000       0.000000
      0.000962       0.000036       0.000000
      0.001336       0.000045       0.000000
      0.001324       0.000000       0.000000
      0.000962       0.000036       0.000000
      0.000979       0.000076       0.000000
      0.001371       0.000096       0.000000
      0.001336       0.000045       0.000000
      0.001324       0.000000       0.000000
      0.001336       0.000045       0.000000
      0.001618       0.000042       0.000000
      0.001600       0.000000       0.000000
      0.001336       0.000045       0.000000
      0.001371       0.000096       0.000000
      0.001674       0.000093       0.000000
      0.001618       0.000042       0.000000
      0.000979       0.000076       0.000000
      0.001002       0.000119       0.000000
      0.001423       0.000156       0.000000
      0.001371       0.000096       0.000000
      0.001002       0.000119       0.000000
      0.001023       0.000163       0.000000
      0.001484       0.000224       0.000000
      0.001423       0.000156       0.000000
      0.001371       0.000096       0.000000
      0.001423       0.000156       0.000000
      0.001766       0.000160       0.000000
      0.001674       0.000093       0.000000
      0.001423       0.000156       0.000000
      0.001484       0.000224       0.000000
      0.001889       0.000248       0.000000
      0.001766       0.000160       0.000000
      0.001023       0.000163       0.000000
      0.001038       0.000193       0.000000
      0.001540       0.000280       0.000000
      0.001484       0.000224       0.000000
      0.001038       0.000193       0.000000
      0.001048       0.000194       0.000000
      0.001585       0.000285       0.000000
      0.001540       0.000280       0.000000
      0.001484       0.000224       0.000000
      0.001540       0.000280       0.000000
      0.002025       0.000342       0.000000
      0.001889       0.000248       0.000000
      0.001540       0.000280       0.000000
      0.001585       0.000285       0.000000
      0.002141       0.000366       0.000000
      0.002025       0.000342       0.000000
      0.001600       0.000000       0.000000
      0.001618       0.000042       0.000000
      0.001789       0.000029       0.000000
      0.001766       0.000000       0.000000
      0.001618       0.000042       0.000000
      0.001674       0.000093       0.000000
      0.001861       0.000066       0.000000
      0.001789       0.000029       0.000000
      0.001766       0.000000       0.000000
      0.001789       0.000029       0.000000
      0.001839       0.000009       0.000000
      0.001816       0.000000       0.000000
      0.001789       0.000029       0.000000
      0.001861       0.000066       0.000000
      0.001911       0.000025       0.000000
      0.001839       0.000009       0.000000
      0.001674       0.000093       0.000000
      0.001766       0.000160       0.000000
      0.001988       0.000122       0.000000
      0.001861       0.000066       0.000000
      0.001766       0.000160       0.000000
      0.001889       0.000248       0.000000
      0.002181       0.000207       0.000000
      0.001988       0.000122       0.000000
      0.001861       0.000066       0.000000
      0.001988       0.000122       0.000000
      0.002043       0.000054       0.000000
      0.001911       0.000025       0.000000
      0.001988       0.000122       0.000000
      0.002181       0.000207       0.000000
      0.002257       0.000104       0.000000
      0.002043       0.000054       0.000000
      0.001889       0.000248       0.000000
      0.001957       0.000297       0.000000
      0.002150       0.000293       0.000000
      0.002055       0.000237       0.000000
      0.001957       0.000297       0.000000
      0.002025       0.000342       0.000000
      0.002252       0.000352       0.000000
      0.002150       0.000293       0.000000
      0.002055       0.000237       0.000000
      0.002150       0.000293       0.000000
      0.002306       0.000265       0.000000
      0.002181       0.000207       0.000000
      0.002150       0.000293       0.000000
      0.002252       0.000352       0.000000
      0.002451       0.000334       0.000000
      0.002306       0.000265       0.000000
      0.002025       0.000342       0.000000
      0.002086       0.000370       0.000000
      0.002349       0.000398       0.000000
      0.002252       0.000352       0.000000
      0.002086       0.000370       0.000000
      0.002141       0.000366       0.000000
      0.002434       0.000401       0.000000
      0.002349       0.000398       0.000000
      0.002252       0.000352       0.000000
      0.002349       0.000398       0.000000
      0.002607       0.000408       0.000000
      0.002451       0.000334       0.000000
      0.002349       0.000398       0.000000
      0.002434       0.000401       0.000000
      0.002749       0.000430       0.000000
      0.002607       0.000408       0.000000
      0.002181       0.000207       0.000000
      0.002306       0.000265       0.000000
      0.002400       0.000210       0.000000
      0.002252       0.000160       0.000000
      0.002306       0.000265       0.000000
      0.002451       0.000334       0.000000
      0.002587       0.000275       0.000000
      0.002400       0.000210       0.000000
      0.002252       0.000160       0.000000
      0.002400       0.000210       0.000000
      0.002409       0.000138       0.000000
      0.002257       0.000104       0.000000
      0.002400       0.000210       0.000000
      0.002587       0.000275       0.000000
      0.002608       0.000181       0.000000
      0.002409       0.000138       0.000000
      0.002451       0.000334       0.000000
      0.002529       0.000372       0.000000
      0.002627       0.000352       0.000000
      0.002530       0.000310       0.000000
      0.002529       0.000372       0.000000
      0.002607       0.000408       0.000000
      0.002729       0.000398       0.000000
      0.002627       0.000352       0.000000
      0.002530       0.000310       0.000000
      0.002627       0.000352       0.000000
      0.002701       0.000316       0.000000
      0.002587       0.000275       0.000000
      0.002627       0.000352       0.000000
      0.002729       0.000398       0.000000
      0.002833       0.000369       0.000000
      0.002701       0.000316       0.000000
      0.002607       0.000408       0.000000
      0.002681       0.000432       0.000000
      0.002830       0.000437       0.000000
      0.002729       0.000398       0.000000
      0.002681       0.000432       0.000000
      0.002749       0.000430       0.000000
      0.002924       0.000443       0.000000
      0.002830       0.000437       0.000000
      0.002729       0.000398       0.000000
      0.002830       0.000437       0.000000
      0.002980       0.000429       0.000000
      0.002833       0.000369       0.000000
      0.002830       0.000437       0.000000
      0.002924       0.000443       0.000000
      0.003123       0.000452       0.000000
      0.002980       0.000429       0.000000
      0.002587       0.000275       0.000000
      0.002701       0.000316       0.000000
      0.002740       0.000265       0.000000
      0.002614       0.000230       0.000000
      0.002701       0.000316       0.000000
      0.002833       0.000369       0.000000
      0.002898       0.000312       0.000000
      0.002740       0.000265       0.000000
      0.002614       0.000230       0.000000
      0.002740       0.000265       0.000000
      0.002737       0.000205       0.000000
      0.002608       0.000181       0.000000
      0.002740       0.000265       0.000000
      0.002898       0.000312       0.000000
      0.002903       0.000232       0.000000
      0.002737       0.000205       0.000000
      0.002833       0.000369       0.000000
      0.002905       0.000399       0.000000
      0.002958       0.000377       0.000000
      0.002872       0.000344       0.000000
      0.002905       0.000399       0.000000
      0.002980       0.000429       0.000000
      0.003052       0.000415       0.000000
      0.002958       0.000377       0.000000
      0.002872       0.000344       0.000000
      0.002958       0.000377       0.000000
      0.002997       0.000344       0.000000
      0.002898       0.000312       0.000000
      0.002958       0.000377       0.000000
      0.003052       0.000415       0.000000
      0.003116       0.000387       0.000000
      0.002997       0.000344       0.000000
      0.002980       0.000429       0.000000
      0.003053       0.000450       0.000000
      0.003149       0.000448       0.000000
      0.003052       0.000415       0.000000
      0.003053       0.000450       0.000000
      0.003123       0.000452       0.000000
      0.003243       0.000454       0.000000
      0.003149       0.000448       0.000000
      0.003052       0.000415       0.000000
      0.003149       0.000448       0.000000
      0.003253       0.000437       0.000000
      0.003116       0.000387       0.000000
      0.003149       0.000448       0.000000
      0.003243       0.000454       0.000000
      0.003393       0.000453       0.000000
      0.003253       0.000437       0.000000
      0.002898       0.000312       0.000000
      0.002997       0.000344       0.000000
      0.003016       0.000298       0.000000
      0.002909       0.000273       0.000000
      0.002997       0.000344       0.000000
      0.003116       0.000387       0.000000
      0.003159       0.000335       0.000000
      0.003016       0.000298       0.000000
      0.002909       0.000273       0.000000
      0.003016       0.000298       0.000000
      0.003013       0.000245       0.000000
      0.002903       0.000232       0.000000
      0.003016       0.000298       0.000000
      0.003159       0.000335       0.000000
      0.003164       0.000259       0.000000
      0.003013       0.000245       0.000000
      0.003116       0.000387       0.000000
      0.003253       0.000437       0.000000
      0.003367       0.000403       0.000000
      0.003159       0.000335       0.000000
      0.003253       0.000437       0.000000
      0.003393       0.000453       0.000000
      0.003627       0.000442       0.000000
      0.003367       0.000403       0.000000
      0.003159       0.000335       0.000000
      0.003367       0.000403       0.000000
      0.003426       0.000274       0.000000
      0.003164       0.000259       0.000000
      0.003367       0.000403       0.000000
      0.003627       0.000442       0.000000
      0.004438       0.000349       0.000000
      0.003426       0.000274       0.000000
      0.000000       0.000000       0.000000
      0.000000       0.000000       0.000000
      0.000519       0.000083       0.000000
      0.000520       0.000097       0.000000
      0.000000       0.000000       0.000000
      0.000000       0.000000       0.000000
      0.000526       0.000061       0.000000
      0.000519       0.000083       0.000000
      0.000520       0.000097       0.000000
      0.000519       0.000083       0.000000
      0.001063       0.000160       0.000000
      0.001048       0.000194       0.000000
      0.000519       0.000083       0.000000
      0.000526       0.000061       0.000000
      0.001092       0.000109       0.000000
      0.001063       0.000160       0.000000
      0.000000       0.000000       0.000000
      0.000000       0.000000       0.000000
      0.000541       0.000038       0.000000
      0.000526       0.000061       0.000000
      0.000000       0.000000       0.000000
      0.000000       0.000000       0.000000
      0.000558       0.000021       0.000000
      0.000541       0.000038       0.000000
      0.000526       0.000061       0.000000
      0.000541       0.000038       0.000000
      0.001130       0.000062       0.000000
      0.001092       0.000109       0.000000
      0.000541       0.000038       0.000000
      0.000558       0.000021       0.000000
      0.001166       0.000030       0.000000
      0.001130       0.000062       0.000000
      0.000000       0.000000       0.000000
      0.000000       0.000000       0.000000
      0.000571       0.000009       0.000000
      0.000558       0.000021       0.000000
      0.000000       0.000000       0.000000
      0.000000       0.000000       0.000000
      0.000575       0.000000       0.000000
      0.000571       0.000009       0.000000
      0.000558       0.000021       0.000000
      0.000571       0.000009       0.000000
      0.001191       0.000012       0.000000
      0.001166       0.000030       0.000000
      0.000571       0.000009       0.000000
      0.000575       0.000000       0.000000
      0.001199       0.000000       0.000000
      0.001191       0.000012       0.000000
      0.001048       0.000194       0.000000
      0.001063       0.000160       0.000000
      0.001636       0.000222       0.000000
      0.001585       0.000285       0.000000
      0.001063       0.000160       0.000000
      0.001092       0.000109       0.000000
      0.001705       0.000133       0.000000
      0.001636       0.000222       0.000000
      0.001585       0.000285       0.000000
      0.001636       0.000222       0.000000
      0.002260       0.000252       0.000000
      0.002141       0.000366       0.000000
      0.001636       0.000222       0.000000
      0.001705       0.000133       0.000000
      0.002396       0.000118       0.000000
      0.002260       0.000252       0.000000
      0.001092       0.000109       0.000000
      0.001130       0.000062       0.000000
      0.001778       0.000064       0.000000
      0.001705       0.000133       0.000000
      0.001130       0.000062       0.000000
      0.001166       0.000030       0.000000
      0.001836       0.000024       0.000000
      0.001778       0.000064       0.000000
      0.001705       0.000133       0.000000
      0.001778       0.000064       0.000000
      0.002509       0.000037       0.000000
      0.002396       0.000118       0.000000
      0.001778       0.000064       0.000000
      0.001836       0.000024       0.000000
      0.002584       0.000003       0.000000
      0.002509       0.000037       0.000000
      0.001166       0.000030       0.000000
      0.001191       0.000012       0.000000
      0.001872       0.000007       0.000000
      0.001836       0.000024       0.000000
      0.001191       0.000012       0.000000
      0.001199       0.000000       0.000000
      0.001884       0.000000       0.000000
      0.001872       0.000007       0.000000
      0.001836       0.000024       0.000000
      0.001872       0.000007       0.000000
      0.002625      -0.000005       0.000000
      0.002584       0.000003       0.000000
      0.001872       0.000007       0.000000
      0.001884       0.000000       0.000000
      0.002639       0.000000       0.000000
      0.002625      -0.000005       0.000000
      0.002396       0.000118       0.000000
      0.002509       0.000037       0.000000
      0.003360      -0.000010       0.000000
      0.003246       0.000051       0.000000
      0.002509       0.000037       0.000000
      0.002584       0.000003       0.000000
      0.003420      -0.000025       0.000000
      0.003360      -0.000010       0.000000
      0.003246       0.000051       0.000000
      0.003360      -0.000010       0.000000
      0.004323      -0.000036       0.000000
      0.004327      -0.000002       0.000000
      0.003360      -0.000010       0.000000
      0.003420      -0.000025       0.000000
      0.004322      -0.000038       0.000000
      0.004323      -0.000036       0.000000
      0.002584       0.000003       0.000000
      0.002625      -0.000005       0.000000
      0.003450      -0.000017       0.000000
      0.003420      -0.000025       0.000000
      0.002625      -0.000005       0.000000
      0.002639       0.000000       0.000000
      0.003459       0.000000       0.000000
      0.003450      -0.000017       0.000000
      0.003420      -0.000025       0.000000
      0.003450      -0.000017       0.000000
      0.004321      -0.000023       0.000000
      0.004322      -0.000038       0.000000
      0.003450      -0.000017       0.000000
      0.003459       0.000000       0.000000
      0.004320       0.000000       0.000000
      0.004321      -0.000023       0.000000
      0.002141       0.000366       0.000000
      0.002196       0.000322       0.000000
      0.002519       0.000339       0.000000
      0.002434       0.000401       0.000000
      0.002196       0.000322       0.000000
      0.002260       0.000252       0.000000
      0.002613       0.000245       0.000000
      0.002519       0.000339       0.000000
      0.002434       0.000401       0.000000
      0.002519       0.000339       0.000000
      0.002888       0.000337       0.000000
      0.002749       0.000430       0.000000
      0.002519       0.000339       0.000000
      0.002613       0.000245       0.000000
      0.003033       0.000209       0.000000
      0.002888       0.000337       0.000000
      0.002260       0.000252       0.000000
      0.002328       0.000180       0.000000
      0.002709       0.000157       0.000000
      0.002613       0.000245       0.000000
      0.002328       0.000180       0.000000
      0.002396       0.000118       0.000000
      0.002794       0.000090       0.000000
      0.002709       0.000157       0.000000
      0.002613       0.000245       0.000000
      0.002709       0.000157       0.000000
      0.003155       0.000113       0.000000