# vtk DataFile Version 2.0
time_10.vtk
ASCII
DATASET UNSTRUCTURED_GRID
POINTS  1188 float
      0.000000       0.000000       0.000000
      0.083333       0.000000       0.000000
      0.083333       0.083333       0.000000
      0.000000       0.083333       0.000000
      0.083333       0.000000       0.000000
      0.166667       0.000000       0.000000
      0.166667       0.083333       0.000000
      0.083333       0.083333       0.000000
      0.000000       0.083333       0.000000
      0.083333       0.083333       0.000000
      0.083333       0.166667       0.000000
      0.000000       0.166667       0.000000
      0.083333       0.083333       0.000000
      0.166667       0.083333       0.000000
      0.166667       0.166667       0.000000
      0.083333       0.166667       0.000000
      0.166667       0.000000       0.000000
      0.250000       0.000000       0.000000
      0.250000       0.083333       0.000000
      0.166667       0.083333       0.000000
      0.250000       0.000000       0.000000
      0.333333       0.000000       0.000000
      0.333333       0.083333       0.000000
      0.250000       0.083333       0.000000
      0.166667       0.083333       0.000000
      0.250000       0.083333       0.000000
      0.250000       0.166667       0.000000
      0.166667       0.166667       0.000000
      0.250000       0.083333       0.000000
      0.333333       0.083333       0.000000
      0.333333       0.166667       0.000000
      0.250000       0.166667       0.000000
      0.333333       0.000000       0.000000
      0.416667      -0.000000       0.000000
      0.416667       0.083333       0.000000
      0.333333       0.083333       0.000000
      0.416667      -0.000000       0.000000
      0.500000       0.000000       0.000000
      0.500000       0.083333       0.000000
      0.416667       0.083333       0.000000
      0.333333       0.083333       0.000000
      0.416667       0.083333       0.000000
      0.416667       0.166667       0.000000
      0.333333       0.166667       0.000000
      0.416667       0.083333       0.000000
      0.500000       0.083333       0.000000
      0.500000       0.166667       0.000000
      0.416667       0.166667       0.000000
      0.000000       0.166667       0.000000
      0.083333       0.166667       0.000000
      0.083333       0.250000       0.000000
      0.000000       0.250000       0.000000
      0.083333       0.166667       0.000000
      0.166667       0.166667       0.000000
      0.166667       0.250000       0.000000
      0.083333       0.250000       0.000000
      0.000000       0.250000       0.000000
      0.083333       0.250000       0.000000
      0.083333       0.333333       0.000000
      0.000000       0.333333       0.000000
      0.083333       0.250000       0.000000
      0.166667       0.250000       0.000000
      0.166667       0.333333       0.000000
      0.083333       0.333333       0.000000
      0.166667       0.166667       0.000000
      0.250000       0.166667       0.000000
      0.250000       0.250000       0.000000
      0.166667       0.250000       0.000000
      0.250000       0.166667       0.000000
      0.333333       0.166667       0.000000
      0.333333       0.250000       0.000000
      0.250000       0.250000       0.000000
      0.166667       0.250000       0.000000
      0.250000       0.250000       0.000000
      0.250000       0.333333       0.000000
      0.166667       0.333333       0.000000
      0.250000       0.250000       0.000000
      0.333333       0.250000       0.000000
      0.333333       0.333333       0.000000
      0.250000       0.333333       0.000000
      0.333333       0.166667       0.000000
      0.416667       0.166667       0.000000
      0.416667       0.250000       0.000000
      0.333333       0.250000       0.000000
      0.416667       0.166667       0.000000
      0.500000       0.166667       0.000000
      0.500000       0.250000       0.000000
      0.416667       0.250000       0.000000
      0.333333       0.250000       0.000000
      0.416667       0.250000       0.000000
      0.416667       0.333333       0.000000
      0.333333       0.333333       0.000000
      0.416667       0.250000       0.000000
      0.500000       0.250000       0.000000
      0.500000       0.333333       0.000000
      0.416667       0.333333       0.000000
      0.000000       0.333333       0.000000
      0.083333       0.333333       0.000000
      0.083333       0.416667       0.000000
     -0.000000       0.416667       0.000000
      0.083333       0.333333       0.000000
      0.166667       0.333333       0.000000
      0.166667       0.416667       0.000000
      0.083333       0.416667       0.000000
     -0.000000       0.416667       0.000000
      0.083333       0.416667       0.000000
      0.083333       0.500000       0.000000
      0.000000       0.500000       0.000000
      0.083333       0.416667       0.000000
      0.166667       0.416667       0.000000
      0.166667       0.500000       0.000000
      0.083333       0.500000       0.000000
      0.166667       0.333333       0.000000
      0.250000       0.333333       0.000000
      0.250000       0.416667       0.000000
      0.166667       0.416667       0.000000
      0.250000       0.333333       0.000000
      0.333333       0.333333       0.000000
      0.333333       0.416667       0.000000
      0.250000       0.416667       0.000000
      0.166667       0.416667       0.000000
      0.250000       0.416667       0.000000
      0.250000       0.500000       0.000000
      0.166667       0.500000       0.000000
      0.250000       0.416667       0.000000
      0.333333       0.416667       0.000000
      0.333333       0.500000       0.000000
      0.250000       0.500000       0.000000
      0.333333       0.333333       0.000000
      0.375000       0.333333       0.000000
      0.375000       0.375000       0.000000
      0.333333       0.375000       0.000000
      0.375000       0.333333       0.000000
      0.416667       0.333333       0.000000
      0.416667       0.375000       0.000000
      0.375000       0.375000       0.000000
      0.333333       0.375000       0.000000
      0.375000       0.375000       0.000000
      0.375000       0.416667       0.000000
      0.333333       0.416667       0.000000
      0.375000       0.375000       0.000000
      0.416667       0.375000       0.000000
      0.416667       0.416667       0.000000
      0.375000       0.416667       0.000000
      0.416667       0.333333       0.000000
      0.458333       0.333333       0.000000
      0.458333       0.375000       0.000000
      0.416667       0.375000       0.000000
      0.458333       0.333333       0.000000
      0.500000       0.333333       0.000000
      0.500000       0.375000       0.000000
      0.458333       0.375000       0.000000
      0.416667       0.375000       0.000000
      0.458333       0.375000       0.000000
      0.458333       0.416667       0.000000
      0.416667       0.416667       0.000000
      0.458333       0.375000       0.000000
      0.500000       0.375000       0.000000
      0.500000       0.416667       0.000000
      0.458333       0.416667       0.000000
      0.333333       0.416667       0.000000
      0.375000       0.416667       0.000000
      0.375000       0.458333       0.000000
      0.333333       0.458333       0.000000
      0.375000       0.416667       0.000000
      0.416667       0.416667       0.000000
      0.416667       0.458333       0.000000
      0.375000       0.458333       0.000000
      0.333333       0.458333       0.000000
      0.375000       0.458333       0.000000
      0.375000       0.500000       0.000000
      0.333333       0.500000       0.000000
      0.375000       0.458333       0.000000
      0.416667       0.458333       0.000000
      0.416667       0.500000       0.000000
      0.375000       0.500000       0.000000
      0.416667       0.416667       0.000000
      0.437500       0.416667       0.000000
      0.437500       0.437500       0.000000
      0.416667       0.437500       0.000000
      0.437500       0.416667       0.000000
      0.458333       0.416667       0.000000
      0.458333       0.437500       0.000000
      0.437500       0.437500       0.000000
      0.416667       0.437500       0.000000
      0.437500       0.437500       0.000000
      0.437500       0.458333       0.000000
      0.416667       0.458333       0.000000
      0.437500       0.437500       0.000000
      0.458333       0.437500       0.000000
      0.458333       0.458333       0.000000
      0.437500       0.458333       0.000000
      0.458333       0.416667       0.000000
      0.479167       0.416667       0.000000
      0.479167       0.437500       0.000000
      0.458333       0.437500       0.000000
      0.479167       0.416667       0.000000
      0.500000       0.416667       0.000000
      0.500000       0.437500       0.000000
      0.479167       0.437500       0.000000
      0.458333       0.437500       0.000000
      0.479167       0.437500       0.000000
      0.479167       0.458333       0.000000
      0.458333       0.458333       0.000000
      0.416667       0.458333       0.000000
      0.437500       0.458333       0.000000
      0.437500       0.479167       0.000000
      0.416667       0.479167       0.000000
      0.437500       0.458333       0.000000
      0.458333       0.458333       0.000000
      0.458333       0.479167       0.000000
      0.437500       0.479167       0.000000
      0.416667       0.479167       0.000000
      0.437500       0.479167       0.000000
      0.437500       0.500000       0.000000
      0.416667       0.500000       0.000000
      0.437500       0.479167       0.000000
      0.458333       0.479167       0.000000
      0.458333       0.500000       0.000000
      0.437500       0.500000       0.000000
[...]
POINT_DATA  1188
VECTORS U float 
      0.000000       0.000000       0.000000
      0.000000       0.000000       0.000000
      0.000498       0.000016       0.000000
      0.000493       0.000000       0.000000
      0.000000       0.000000       0.000000
      0.000000       0.000000       0.000000
      0.000513       0.000034       0.000000
      0.000498       0.000016       0.000000
      0.000493       0.000000       0.000000
      0.000498       0.000016       0.000000
      0.000929       0.000023       0.000000
      0.000918       0.000000       0.000000
      0.000498       0.000016       0.000000
      0.000513       0.000034       0.000000
      0.000959       0.000052       0.000000
      0.000929       0.000023       0.000000
      0.000000       0.000000       0.000000
      0.000000       0.000000       0.000000
      0.000534       0.000056       0.000000
      0.000513       0.000034       0.000000
      0.000000       0.000000       0.000000
      0.000000       0.000000       0.000000
      0.000554       0.000084       0.000000
      0.000534       0.000056       0.000000
      0.000513       0.000034       0.000000
      0.000534       0.000056       0.000000
      0.001004       0.000093       0.000000
      0.000959       0.000052       0.000000
      0.000534       0.000056       0.000000
      0.000554       0.000084       0.000000
      0.001057       0.000150       0.000000
      0.001004       0.000093       0.000000
      0.000000       0.000000       0.000000
      0.000000       0.000000       0.000000
      0.000566       0.000112       0.000000
      0.000554       0.000084       0.000000
      0.000000       0.000000       0.000000
      0.000000       0.000000       0.000000
      0.000565       0.000129       0.000000
      0.000566       0.000112       0.000000
      0.000554       0.000084       0.000000
      0.000566       0.000112       0.000000
      0.001101       0.000215       0.000000
      0.001057       0.000150       0.000000
      0.000566       0.000112       0.000000
      0.000565       0.000129       0.000000
      0.001126       0.000259       0.000000
      0.001101       0.000215       0.000000
      0.000918       0.000000       0.000000
      0.000929       0.000023       0.000000
      0.001276       0.000022       0.000000
      0.001261       0.000000       0.000000
      0.000929       0.000023       0.000000
      0.000959       0.000052       0.000000
      0.001322       0.000053       0.000000
      0.001276       0.000022       0.000000
      0.001261       0.000000       0.000000
      0.001276       0.000022       0.000000
      0.001529       0.000013       0.000000
      0.001511       0.000000       0.000000
      0.001276       0.000022       0.000000
      0.001322       0.000053       0.000000
      0.001586       0.000035       0.000000
      0.001529       0.000013       0.000000
      0.000959       0.000052       0.000000
      0.001004       0.000093       0.000000
      0.001397       0.000102       0.000000
      0.001322       0.000053       0.000000
      0.001004       0.000093       0.000000
      0.001057       0.000150       0.000000
      0.001497       0.000181       0.000000
      0.001397       0.000102       0.000000
      0.001322       0.000053       0.000000
      0.001397       0.000102       0.000000
      0.001685       0.000077       0.000000
      0.001586       0.000035       0.000000
      0.001397       0.000102       0.000000
      0.001497       0.000181       0.000000
      0.001834       0.000157       0.000000
      0.001685       0.000077       0.000000
      0.001057       0.000150       0.000000
      0.001101       0.000215       0.000000
      0.001604       0.000292       0.000000
      0.001497       0.000181       0.000000
      0.001101       0.000215       0.000000
      0.001126       0.000259       0.000000
      0.001687       0.000382       0.000000
      0.001604       0.000292       0.000000
      0.001497       0.000181       0.000000
      0.001604       0.000292       0.000000
      0.002038       0.000306       0.000000
      0.001834       0.000157       0.000000
      0.001604       0.000292       0.000000
      0.001687       0.000382       0.000000
      0.002245       0.000496       0.000000
      0.002038       0.000306       0.000000
      0.001511       0.000000       0.000000
      0.001529       0.000013       0.000000
      0.001683      -0.000002       0.000000
      0.001664       0.000000       0.000000
      0.001529       0.000013       0.000000
      0.001586       0.000035       0.000000
      0.001740       0.000004       0.000000
      0.001683      -0.000002       0.000000
      0.001664       0.000000       0.000000
      0.001683      -0.000002       0.000000
      0.001741      -0.000017       0.000000
      0.001724       0.000000       0.000000
      0.001683      -0.000002       0.000000
      0.001740       0.000004       0.000000
      0.001791      -0.000027       0.000000
      0.001741      -0.000017       0.000000
      0.001586       0.000035       0.000000
      0.001685       0.000077       0.000000
      0.001842       0.000027       0.000000
      0.001740       0.000004       0.000000
      0.001685       0.000077       0.000000
      0.001834       0.000157       0.000000
      0.002000       0.000079       0.000000
      0.001842       0.000027       0.000000
      0.001740       0.000004       0.000000
      0.001842       0.000027       0.000000
      0.001877      -0.000023       0.000000
      0.001791      -0.000027       0.000000
      0.001842       0.000027       0.000000
      0.002000       0.000079       0.000000
      0.001996       0.000006       0.000000
      0.001877      -0.000023       0.000000
      0.001834       0.000157       0.000000
      0.001930       0.000221       0.000000
      0.002053       0.000182       0.000000
      0.001942       0.000122       0.000000
      0.001930       0.000221       0.000000
      0.002038       0.000306       0.000000
      0.002190       0.000271       0.000000
      0.002053       0.000182       0.000000
      0.001942       0.000122       0.000000
      0.002053       0.000182       0.000000
      0.002110       0.000127       0.000000
      0.002000       0.000079       0.000000
      0.002053       0.000182       0.000000
      0.002190       0.000271       0.000000
      0.002254       0.000203       0.000000
      0.002110       0.000127       0.000000
      0.002038       0.000306       0.000000
      0.002148       0.000409       0.000000
      0.002352       0.000401       0.000000
      0.002190       0.000271       0.000000
      0.002148       0.000409       0.000000
      0.002245       0.000496       0.000000
      0.002513       0.000545       0.000000
      0.002352       0.000401       0.000000
      0.002190       0.000271       0.000000
      0.002352       0.000401       0.000000
      0.002455       0.000338       0.000000
      0.002254       0.000203       0.000000
      0.002352       0.000401       0.000000
      0.002513       0.000545       0.000000
      0.002742       0.000571       0.000000
      0.002455       0.000338       0.000000
      0.002000       0.000079       0.000000
      0.002110       0.000127       0.000000
      0.002103       0.000074       0.000000
      0.002013       0.000039       0.000000
      0.002110       0.000127       0.000000
      0.002254       0.000203       0.000000
      0.002212       0.000131       0.000000
      0.002103       0.000074       0.000000
      0.002013       0.000039       0.000000
      0.002103       0.000074       0.000000
      0.002063       0.000038       0.000000
      0.001996       0.000006       0.000000
      0.002103       0.000074       0.000000
      0.002212       0.000131       0.000000
      0.002125       0.000092       0.000000
      0.002063       0.000038       0.000000
      0.002254       0.000203       0.000000
      0.002346       0.000260       0.000000
      0.002328       0.000215       0.000000
      0.002245       0.000165       0.000000
      0.002346       0.000260       0.000000
      0.002455       0.000338       0.000000
      0.002433       0.000285       0.000000
      0.002328       0.000215       0.000000
      0.002245       0.000165       0.000000
      0.002328       0.000215       0.000000
      0.002277       0.000175       0.000000
      0.002212       0.000131       0.000000
      0.002328       0.000215       0.000000
      0.002433       0.000285       0.000000
      0.002354       0.000236       0.000000
      0.002277       0.000175       0.000000
      0.002455       0.000338       0.000000
      0.002589       0.000444       0.000000
      0.002577       0.000390       0.000000
      0.002433       0.000285       0.000000
      0.002589       0.000444       0.000000
      0.002742       0.000571       0.000000
      0.002797       0.000553       0.000000
      0.002577       0.000390       0.000000
      0.002433       0.000285       0.000000
      0.002577       0.000390       0.000000
      0.002460       0.000325       0.000000
      0.002354       0.000236       0.000000
      0.002212       0.000131       0.000000
      0.002277       0.000175       0.000000
      0.002209       0.000148       0.000000
      0.002167       0.000107       0.000000
      0.002277       0.000175       0.000000
      0.002354       0.000236       0.000000
      0.002251       0.000207       0.000000
      0.002209       0.000148       0.000000
      0.002167       0.000107       0.000000
      0.002209       0.000148       0.000000
      0.002148       0.000135       0.000000
      0.002125       0.000092       0.000000
      0.002209       0.000148       0.000000
      0.002251       0.000207       0.000000
      0.002164       0.000196       0.000000
      0.002148       0.000135       0.000000
      0.002354       0.000236       0.000000
      0.002402       0.000276       0.000000
      0.002336       0.000257       0.000000
      0.002303       0.000218       0.000000
      0.002402       0.000276       0.000000
      0.002460       0.000325       0.000000
      0.002375       0.000304       0.000000
      0.002336       0.000257       0.000000
      0.002303       0.000218       0.000000
      0.002336       0.000257       0.000000
      0.002272       0.000246       0.000000
      0.002251       0.000207       0.000000
      0.002336       0.000257       0.000000
      0.002375       0.000304       0.000000
      0.002294       0.000293       0.000000
      0.002272       0.000246       0.000000
      0.002460       0.000325       0.000000
      0.002541       0.000388       0.000000
      0.002425       0.000362       0.000000
      0.002375       0.000304       0.000000
      0.002541       0.000388       0.000000
      0.002679       0.000473       0.000000
      0.002513       0.000438       0.000000
      0.002425       0.000362       0.000000
      0.002375       0.000304       0.000000
      0.002425       0.000362       0.000000
      0.002319       0.000351       0.000000
      0.002294       0.000293       0.000000
      0.002425       0.000362       0.000000
      0.002513       0.000438       0.000000
      0.002364       0.000440       0.000000
      0.002319       0.000351       0.000000
      0.002251       0.000207       0.000000
      0.002272       0.000246       0.000000
      0.002216       0.000240       0.000000
      0.002204       0.000200       0.000000
      0.002272       0.000246       0.000000
      0.002294       0.000293       0.000000
      0.002227       0.000287       0.000000
      0.002216       0.000240       0.000000
      0.002204       0.000200       0.000000
      0.002216       0.000240       0.000000
      0.002169       0.000237       0.000000
      0.002164       0.000196       0.000000
      0.002216       0.000240       0.000000
      0.002227       0.000287       0.000000
      0.002177       0.000287       0.000000
      0.002169       0.000237       0.000000
      0.002294       0.000293       0.000000
      0.002319       0.000351       0.000000
      0.002240       0.000341       0.000000
      0.002227       0.000287       0.000000
      0.002319       0.000351       0.000000
      0.002364       0.000440       0.000000
      0.002127       0.000378       0.000000
      0.002240       0.000341       0.000000
      0.002227       0.000287       0.000000
      0.002240       0.000341       0.000000
      0.002213       0.000350       0.000000
      0.002177       0.000287       0.000000
      0.002240       0.000341       0.000000
      0.002127       0.000378       0.000000
      0.006640       0.000532       0.000000
      0.002213       0.000350       0.000000
      0.002577       0.000390       0.000000
      0.002674       0.000463       0.000000
      0.002629       0.000427       0.000000
      0.002531       0.000356       0.000000
      0.002674       0.000463       0.000000
      0.002797       0.000553       0.000000
      0.002774       0.000522       0.000000
      0.002629       0.000427       0.000000
      0.002531       0.000356       0.000000
      0.002629       0.000427       0.000000
      0.002541       0.000388       0.000000
      0.002460       0.000325       0.000000
      0.002629       0.000427       0.000000
      0.002774       0.000522       0.000000
      0.002679       0.000473       0.000000
      0.002541       0.000388       0.000000
      0.000000       0.000000       0.000000
      0.000000       0.000000       0.000000
      0.000559       0.000123       0.000000
      0.000565       0.000129       0.000000
      0.000000       0.000000       0.000000
      0.000000       0.000000       0.000000
      0.000562       0.000097       0.000000
      0.000559       0.000123       0.000000
      0.000565       0.000129       0.000000
      0.000559       0.000123       0.000000
      0.001142       0.000245       0.000000
      0.001126       0.000259       0.000000
      0.000559       0.000123       0.000000
      0.000562       0.000097       0.000000
      0.001171       0.000182       0.000000
      0.001142       0.000245       0.000000
      0.000000       0.000000       0.000000
      0.000000       0.000000       0.000000
      0.000576       0.000064       0.000000
      0.000562       0.000097       0.000000
      0.000000       0.000000       0.000000
      0.000000       0.000000       0.000000
      0.000597       0.000036       0.000000
      0.000576       0.000064       0.000000
      0.000562       0.000097       0.000000
      0.000576       0.000064       0.000000
      0.001219       0.000110       0.000000
      0.001171       0.000182       0.000000
      0.000576       0.000064       0.000000
      0.000597       0.000036       0.000000
      0.001268       0.000056       0.000000
      0.001219       0.000110       0.000000
      0.000000       0.000000       0.000000
      0.000000       0.000000       0.000000
      0.000613       0.000016       0.000000
      0.000597       0.000036       0.000000
      0.000000       0.000000       0.000000
      0.000000       0.000000       0.000000
      0.000620       0.000000       0.000000
      0.000613       0.000016       0.000000
      0.000597       0.000036       0.000000
      0.000613       0.000016       0.000000
      0.001303       0.000022       0.000000
      0.001268       0.000056       0.000000
      0.000613       0.000016       0.000000
      0.000620       0.000000       0.000000
      0.001315       0.000000       0.000000
      0.001303       0.000022       0.000000
      0.001126       0.000259       0.000000
      0.001142       0.000245       0.000000
      0.001750       0.000356       0.000000
      0.001687       0.000382       0.000000
      0.001142       0.000245       0.000000
      0.001171       0.000182       0.000000
      0.001840       0.000235       0.000000
      0.001750       0.000356       0.000000
      0.001687       0.000382       0.000000
      0.001750       0.000356       0.000000
      0.002413       0.000439       0.000000
      0.002245       0.000496       0.000000
      0.001750       0.000356       0.000000
      0.001840       0.000235       0.000000
      0.002626       0.000224       0.000000
      0.002413       0.000439       0.000000
      0.001171       0.000182       0.000000
      0.001219       0.000110       0.000000
      0.001945       0.000121       0.000000
      0.001840       0.000235       0.000000
      0.001219       0.000110       0.000000
      0.001268       0.000056       0.000000
      0.002033       0.000051       0.000000
      0.001945       0.000121       0.000000
      0.001840       0.000235       0.000000
      0.001945       0.000121       0.000000
      0.002807       0.000083       0.000000
      0.002626       0.000224       0.000000
      0.001945       0.000121       0.000000
      0.002033       0.000051       0.000000
      0.002926       0.000019       0.000000
      0.002807       0.000083       0.000000
      0.001268       0.000056       0.000000
      0.001303       0.000022       0.000000
      0.002088       0.000017       0.000000
      0.002033       0.000051       0.000000
      0.001303       0.000022       0.000000
      0.001315       0.000000       0.000000
      0.002107       0.000000       0.000000
      0.002088       0.000017       0.000000
      0.002033       0.000051       0.000000
      0.002088       0.000017       0.000000
      0.002990      -0.000000       0.000000
      0.002926       0.000019       0.000000
      0.002088       0.000017       0.000000
      0.002107       0.000000       0.000000
      0.003010       0.000000       0.000000
      0.002990      -0.000000       0.000000
      0.002626       0.000224       0.000000
      0.002807       0.000083       0.000000
      0.003886       0.000013       0.000000
      0.003716       0.000120       0.000000
      0.002807       0.000083       0.000000
      0.002926       0.000019       0.000000
      0.003969      -0.000020       0.000000
      0.003886       0.000013       0.000000
      0.003716       0.000120       0.000000
      0.003886       0.000013       0.000000
      0.005145      -0.000007       0.000000
      0.005217       0.000076       0.000000
      0.003886       0.000013       0.000000
      0.003969      -0.000020       0.000000
      0.005112      -0.000030       0.000000
      0.005145      -0.000007       0.000000
      0.002926       0.000019       0.000000
      0.002990      -0.000000       0.000000
      0.004009      -0.000018       0.000000
      0.003969      -0.000020       0.000000
      0.002990      -0.000000       0.000000
      0.003010       0.000000       0.000000
      0.004021       0.000000       0.000000
      0.004009      -0.000018       0.000000
      0.003969      -0.000020       0.000000
      0.004009      -0.000018       0.000000
      0.005096      -0.000022       0.000000
      0.005112      -0.000030       0.000000
      0.004009      -0.000018       0.000000
      0.004021       0.000000       0.000000
      0.005092       0.000000       0.000000
      0.005096      -0.000022       0.000000
      0.002245       0.000496       0.000000
      0.002325       0.000510       0.000000
      0.002651       0.000572       0.000000
      0.002513       0.000545       0.000000
      0.002325       0.000510       0.000000
      0.002413       0.000439       0.000000
      0.002805       0.000449       0.000000
      0.002651       0.000572       0.000000
      0.002513       0.000545       0.000000
      0.002651       0.000572       0.000000
      0.003052       0.000623       0.000000
      0.002742       0.000571       0.000000
      0.002651       0.000572       0.000000
      0.002805       0.000449       0.000000
      0.003348       0.000402       0.000000