# vtk DataFile Version 2.0
time_10.vtk
ASCII
DATASET UNSTRUCTURED_GRID
POINTS  1992 float
      0.000000       0.000000       0.000000
      0.083333       0.000000       0.000000
      0.083333       0.083333       0.000000
      0.000000       0.083333       0.000000
      0.083333       0.000000       0.000000
      0.166667       0.000000       0.000000
      0.166667       0.083333       0.000000
      0.083333       0.083333       0.000000
      0.000000       0.083333       0.000000
      0.083333       0.083333       0.000000
      0.083333       0.166667       0.000000
      0.000000       0.166667       0.000000
      0.083333       0.083333       0.000000
      0.166667       0.083333       0.000000
      0.166667       0.166667       0.000000
      0.083333       0.166667       0.000000
      0.166667       0.000000       0.000000
      0.250000       0.000000       0.000000
      0.250000       0.083333       0.000000
      0.166667       0.083333       0.000000
      0.250000       0.000000       0.000000
      0.333333       0.000000       0.000000
      0.333333       0.083333       0.000000
      0.250000       0.083333       0.000000
      0.166667       0.083333       0.000000
      0.250000       0.083333       0.000000
      0.250000       0.166667       0.000000
      0.166667       0.166667       0.000000
      0.250000       0.083333       0.000000
      0.333333       0.083333       0.000000
      0.333333       0.166667       0.000000
      0.250000       0.166667       0.000000
      0.333333       0.000000       0.000000
      0.416667      -0.000000       0.000000
      0.416667       0.083333       0.000000
      0.333333       0.083333       0.000000
      0.416667      -0.000000       0.000000
      0.500000       0.000000       0.000000
      0.500000       0.083333       0.000000
      0.416667       0.083333       0.000000
      0.333333       0.083333       0.000000
      0.416667       0.083333       0.000000
      0.416667       0.166667       0.000000
      0.333333       0.166667       0.000000
      0.416667       0.083333       0.000000
      0.500000       0.083333       0.000000
      0.500000       0.166667       0.000000
      0.416667       0.166667       0.000000
      0.000000       0.166667       0.000000
      0.083333       0.166667       0.000000
      0.083333       0.250000       0.000000
      0.000000       0.250000       0.000000
      0.083333       0.166667       0.000000
      0.166667       0.166667       0.000000
      0.166667       0.250000       0.000000
      0.083333       0.250000       0.000000
      0.000000       0.250000       0.000000
      0.083333       0.250000       0.000000
      0.083333       0.333333       0.000000
      0.000000       0.333333       0.000000
      0.083333       0.250000       0.000000
      0.166667       0.250000       0.000000
      0.166667       0.333333       0.000000
      0.083333       0.333333       0.000000
      0.166667       0.166667       0.000000
      0.250000       0.166667       0.000000
      0.250000       0.250000       0.000000
      0.166667       0.250000       0.000000
      0.250000       0.166667       0.000000
      0.333333       0.166667       0.000000
      0.333333       0.250000       0.000000
      0.250000       0.250000       0.000000
      0.166667       0.250000       0.000000
      0.250000       0.250000       0.000000
      0.250000       0.333333       0.000000
      0.166667       0.333333       0.000000
      0.250000       0.250000       0.000000
      0.333333       0.250000       0.000000
      0.333333       0.333333       0.000000
      0.250000       0.333333       0.000000
      0.333333       0.166667       0.000000
      0.416667       0.166667       0.000000
      0.416667       0.250000       0.000000
      0.333333       0.250000       0.000000
      0.333333       0.250000       0.000000
      0.416667       0.250000       0.000000
      0.416667       0.333333       0.000000
      0.333333       0.333333       0.000000
      0.000000       0.333333       0.000000
      0.083333       0.333333       0.000000
      0.083333       0.416667       0.000000
     -0.000000       0.416667       0.000000
      0.083333       0.333333       0.000000
      0.166667       0.333333       0.000000
      0.166667       0.416667       0.000000
      0.083333       0.416667       0.000000
     -0.000000       0.416667       0.000000
      0.083333       0.416667       0.000000
      0.083333       0.500000       0.000000
      0.000000       0.500000       0.000000
      0.083333       0.416667       0.000000
      0.166667       0.416667       0.000000
      0.166667       0.500000       0.000000
      0.083333       0.500000       0.000000
      0.166667       0.333333       0.000000
      0.250000       0.333333       0.000000
      0.250000       0.416667       0.000000
      0.166667       0.416667       0.000000
      0.250000       0.333333       0.000000
      0.333333       0.333333       0.000000
      0.333333       0.416667       0.000000
      0.250000       0.416667       0.000000
      0.166667       0.416667       0.000000
      0.250000       0.416667       0.000000
      0.250000       0.500000       0.000000
      0.166667       0.500000       0.000000
      0.250000       0.416667       0.000000
      0.333333       0.416667       0.000000
      0.333333       0.500000       0.000000
      0.250000       0.500000       0.000000
      0.333333       0.333333       0.000000
      0.375000       0.333333       0.000000
      0.375000       0.375000       0.000000
      0.333333       0.375000       0.000000
      0.375000       0.333333       0.000000
      0.416667       0.333333       0.000000
      0.416667       0.375000       0.000000
      0.375000       0.375000       0.000000
      0.333333       0.375000       0.000000
      0.375000       0.375000       0.000000
      0.375000       0.416667       0.000000
      0.333333       0.416667       0.000000
      0.375000       0.375000       0.000000
      0.416667       0.375000       0.000000
      0.416667       0.416667       0.000000
      0.375000       0.416667       0.000000
      0.416667       0.333333       0.000000
      0.458333       0.333333       0.000000
      0.458333       0.375000       0.000000
      0.416667       0.375000       0.000000
      0.416667       0.375000       0.000000
      0.458333       0.375000       0.000000
      0.458333       0.416667       0.000000
      0.416667       0.416667       0.000000
      0.333333       0.416667       0.000000
      0.375000       0.416667       0.000000
      0.375000       0.458333       0.000000
      0.333333       0.458333       0.000000
      0.375000       0.416667       0.000000
      0.416667       0.416667       0.000000
      0.416667       0.458333       0.000000
      0.375000       0.458333       0.000000
      0.333333       0.458333       0.000000
      0.375000       0.458333       0.000000
      0.375000       0.500000       0.000000
      0.333333       0.500000       0.000000
      0.375000       0.458333       0.000000
      0.416667       0.458333       0.000000
      0.416667       0.500000       0.000000
      0.375000       0.500000       0.000000
      0.416667       0.416667       0.000000
      0.437500       0.416667       0.000000
      0.437500       0.437500       0.000000
      0.416667       0.437500       0.000000
      0.437500       0.416667       0.000000
      0.458333       0.416667       0.000000
      0.458333       0.437500       0.000000
      0.437500       0.437500       0.000000
      0.416667       0.437500       0.000000
      0.437500       0.437500       0.000000
      0.437500       0.458333       0.000000
      0.416667       0.458333       0.000000
      0.437500       0.437500       0.000000
      0.458333       0.437500       0.000000
      0.458333       0.458333       0.000000
      0.437500       0.458333       0.000000
      0.458333       0.416667       0.000000
      0.479167       0.416667       0.000000
      0.479167       0.437500       0.000000
      0.458333       0.437500       0.000000
      0.458333       0.437500       0.000000
      0.479167       0.437500       0.000000
      0.479167       0.458333       0.000000
      0.458333       0.458333       0.000000
      0.416667       0.458333       0.000000
      0.437500       0.458333       0.000000
      0.437500       0.479167       0.000000
      0.416667       0.479167       0.000000
      0.437500       0.458333       0.000000
      0.458333       0.458333       0.000000
      0.458333       0.479167       0.000000
      0.437500       0.479167       0.000000
      0.416667       0.479167       0.000000
      0.437500       0.479167       0.000000
      0.437500       0.500000       0.000000
      0.416667       0.500000       0.000000
      0.437500       0.479167       0.000000
      0.458333       0.479167       0.000000
      0.458333       0.500000       0.000000
      0.437500       0.500000       0.000000
      0.458333       0.458333       0.000000
      0.468750       0.458333       0.000000
      0.468750       0.468750       0.000000
      0.458333       0.468750       0.000000
      0.468750       0.458333       0.000000
      0.479167       0.458333       0.000000
      0.479167       0.468750       0.000000
      0.468750       0.468750       0.000000
      0.458333       0.468750       0.000000
      0.468750       0.468750       0.000000
      0.468750       0.479167       0.000000
      0.458333       0.479167       0.000000
      0.468750       0.468750       0.000000
      0.479167       0.468750       0.000000
      0.479167       0.479167       0.000000
      0.468750       0.479167       0.000000
      0.479167       0.458333       0.000000
      0.489583       0.458333       0.000000
      0.489583       0.468750       0.000000
      0.479167       0.468750       0.000000
[...]
POINT_DATA  1992
VECTORS U float 
      0.000000       0.000000       0.000000
      0.000000       0.000000       0.000000
      0.000229      -0.000002       0.000000
      0.000221       0.000000       0.000000
      0.000000       0.000000       0.000000
      0.000000       0.000000       0.000000
      0.000252      -0.000002       0.000000
      0.000229      -0.000002       0.000000
      0.000221       0.000000       0.000000
      0.000229      -0.000002       0.000000
      0.000420      -0.000012       0.000000
      0.000409       0.000000       0.000000
      0.000229      -0.000002       0.000000
      0.000252      -0.000002       0.000000
      0.000455      -0.000021       0.000000
      0.000420      -0.000012       0.000000
      0.000000       0.000000       0.000000
      0.000000       0.000000       0.000000
      0.000294       0.000002       0.000000
      0.000252      -0.000002       0.000000
      0.000000       0.000000       0.000000
      0.000000       0.000000       0.000000
      0.000357       0.000015       0.000000
      0.000294       0.000002       0.000000
      0.000252      -0.000002       0.000000
      0.000294       0.000002       0.000000
      0.000516      -0.000025       0.000000
      0.000455      -0.000021       0.000000
      0.000294       0.000002       0.000000
      0.000357       0.000015       0.000000
      0.000608      -0.000014       0.000000
      0.000516      -0.000025       0.000000
      0.000000       0.000000       0.000000
      0.000000       0.000000       0.000000
      0.000440       0.000048       0.000000
      0.000357       0.000015       0.000000
      0.000000       0.000000       0.000000
      0.000000       0.000000       0.000000
      0.000530       0.000116       0.000000
      0.000440       0.000048       0.000000
      0.000357       0.000015       0.000000
      0.000440       0.000048       0.000000
      0.000741       0.000031       0.000000
      0.000608      -0.000014       0.000000
      0.000440       0.000048       0.000000
      0.000530       0.000116       0.000000
      0.000922       0.000152       0.000000
      0.000741       0.000031       0.000000
      0.000409       0.000000       0.000000
      0.000420      -0.000012       0.000000
      0.000562      -0.000025       0.000000
      0.000551       0.000000       0.000000
      0.000420      -0.000012       0.000000
      0.000455      -0.000021       0.000000
      0.000596      -0.000047       0.000000
      0.000562      -0.000025       0.000000
      0.000551       0.000000       0.000000
      0.000562      -0.000025       0.000000
      0.000658      -0.000036       0.000000
      0.000650       0.000000       0.000000
      0.000562      -0.000025       0.000000
      0.000596      -0.000047       0.000000
      0.000682      -0.000069       0.000000
      0.000658      -0.000036       0.000000
      0.000455      -0.000021       0.000000
      0.000516      -0.000025       0.000000
      0.000654      -0.000063       0.000000
      0.000596      -0.000047       0.000000
      0.000516      -0.000025       0.000000
      0.000608      -0.000014       0.000000
      0.000742      -0.000063       0.000000
      0.000654      -0.000063       0.000000
      0.000596      -0.000047       0.000000
      0.000654      -0.000063       0.000000
      0.000722      -0.000094       0.000000
      0.000682      -0.000069       0.000000
      0.000654      -0.000063       0.000000
      0.000742      -0.000063       0.000000
      0.000777      -0.000102       0.000000
      0.000722      -0.000094       0.000000
      0.000608      -0.000014       0.000000
      0.000741       0.000031       0.000000
      0.000868      -0.000030       0.000000
      0.000742      -0.000063       0.000000
      0.000742      -0.000063       0.000000
      0.000868      -0.000030       0.000000
      0.000844      -0.000077       0.000000
      0.000777      -0.000102       0.000000
      0.000650       0.000000       0.000000
      0.000658      -0.000036       0.000000
      0.000720      -0.000043       0.000000
      0.000716       0.000000       0.000000
      0.000658      -0.000036       0.000000
      0.000682      -0.000069       0.000000
      0.000731      -0.000082       0.000000
      0.000720      -0.000043       0.000000
      0.000716       0.000000       0.000000
      0.000720      -0.000043       0.000000
      0.000766      -0.000045       0.000000
      0.000765       0.000000       0.000000
      0.000720      -0.000043       0.000000
      0.000731      -0.000082       0.000000
      0.000766      -0.000085       0.000000
      0.000766      -0.000045       0.000000
      0.000682      -0.000069       0.000000
      0.000722      -0.000094       0.000000
      0.000748      -0.000110       0.000000
      0.000731      -0.000082       0.000000
      0.000722      -0.000094       0.000000
      0.000777      -0.000102       0.000000
      0.000768      -0.000117       0.000000
      0.000748      -0.000110       0.000000
      0.000731      -0.000082       0.000000
      0.000748      -0.000110       0.000000
      0.000763      -0.000113       0.000000
      0.000766      -0.000085       0.000000
      0.000748      -0.000110       0.000000
      0.000768      -0.000117       0.000000
      0.000752      -0.000118       0.000000
      0.000763      -0.000113       0.000000
      0.000777      -0.000102       0.000000
      0.000810      -0.000095       0.000000
      0.000795      -0.000104       0.000000
      0.000775      -0.000112       0.000000
      0.000810      -0.000095       0.000000
      0.000844      -0.000077       0.000000
      0.000813      -0.000084       0.000000
      0.000795      -0.000104       0.000000
      0.000775      -0.000112       0.000000
      0.000795      -0.000104       0.000000
      0.000778      -0.000107       0.000000
      0.000768      -0.000117       0.000000
      0.000795      -0.000104       0.000000
      0.000813      -0.000084       0.000000
      0.000785      -0.000085       0.000000
      0.000778      -0.000107       0.000000
      0.000844      -0.000077       0.000000
      0.000880      -0.000044       0.000000
      0.000829      -0.000049       0.000000
      0.000813      -0.000084       0.000000
      0.000813      -0.000084       0.000000
      0.000829      -0.000049       0.000000
      0.000791      -0.000049       0.000000
      0.000785      -0.000085       0.000000
      0.000768      -0.000117       0.000000
      0.000778      -0.000107       0.000000
      0.000761      -0.000108       0.000000
      0.000760      -0.000119       0.000000
      0.000778      -0.000107       0.000000
      0.000785      -0.000085       0.000000
      0.000762      -0.000084       0.000000
      0.000761      -0.000108       0.000000
      0.000760      -0.000119       0.000000
      0.000761      -0.000108       0.000000
      0.000745      -0.000106       0.000000
      0.000752      -0.000118       0.000000
      0.000761      -0.000108       0.000000
      0.000762      -0.000084       0.000000
      0.000738      -0.000083       0.000000
      0.000745      -0.000106       0.000000
      0.000785      -0.000085       0.000000
      0.000788      -0.000069       0.000000
      0.000775      -0.000068       0.000000
      0.000773      -0.000085       0.000000
      0.000788      -0.000069       0.000000
      0.000791      -0.000049       0.000000
      0.000777      -0.000049       0.000000
      0.000775      -0.000068       0.000000
      0.000773      -0.000085       0.000000
      0.000775      -0.000068       0.000000
      0.000763      -0.000068       0.000000
      0.000762      -0.000084       0.000000
      0.000775      -0.000068       0.000000
      0.000777      -0.000049       0.000000
      0.000764      -0.000050       0.000000
      0.000763      -0.000068       0.000000
      0.000791      -0.000049       0.000000
      0.000793      -0.000026       0.000000
      0.000779      -0.000027       0.000000
      0.000777      -0.000049       0.000000
      0.000777      -0.000049       0.000000
      0.000779      -0.000027       0.000000
      0.000766      -0.000029       0.000000
      0.000764      -0.000050       0.000000
      0.000762      -0.000084       0.000000
      0.000763      -0.000068       0.000000
      0.000751      -0.000068       0.000000
      0.000751      -0.000084       0.000000
      0.000763      -0.000068       0.000000
      0.000764      -0.000050       0.000000
      0.000751      -0.000050       0.000000
      0.000751      -0.000068       0.000000
      0.000751      -0.000084       0.000000
      0.000751      -0.000068       0.000000
      0.000736      -0.000068       0.000000
      0.000738      -0.000083       0.000000
      0.000751      -0.000068       0.000000
      0.000751      -0.000050       0.000000
      0.000736      -0.000050       0.000000
      0.000736      -0.000068       0.000000
      0.000764      -0.000050       0.000000
      0.000764      -0.000040       0.000000
      0.000758      -0.000040       0.000000
      0.000757      -0.000050       0.000000
      0.000764      -0.000040       0.000000
      0.000766      -0.000029       0.000000
      0.000760      -0.000030       0.000000
      0.000758      -0.000040       0.000000
      0.000757      -0.000050       0.000000
      0.000758      -0.000040       0.000000
      0.000752      -0.000041       0.000000
      0.000751      -0.000050       0.000000
      0.000758      -0.000040       0.000000
      0.000760      -0.000030       0.000000
      0.000753      -0.000031       0.000000
      0.000752      -0.000041       0.000000
      0.000766      -0.000029       0.000000
      0.000768      -0.000017       0.000000
      0.000762      -0.000019       0.000000
      0.000760      -0.000030       0.000000
      0.000768      -0.000017       0.000000
      0.000772      -0.000004       0.000000
      0.000767       0.000000       0.000000
      0.000762      -0.000019       0.000000
      0.000760      -0.000030       0.000000
      0.000762      -0.000019       0.000000
      0.000757      -0.000021       0.000000
      0.000753      -0.000031       0.000000
      0.000762      -0.000019       0.000000
      0.000767       0.000000       0.000000
      0.000753       0.000006       0.000000
      0.000757      -0.000021       0.000000
      0.000751      -0.000050       0.000000
      0.000752      -0.000041       0.000000
      0.000745      -0.000042       0.000000
      0.000744      -0.000050       0.000000
      0.000752      -0.000041       0.000000
      0.000753      -0.000031       0.000000
      0.000747      -0.000033       0.000000
      0.000745      -0.000042       0.000000
      0.000744      -0.000050       0.000000
      0.000745      -0.000042       0.000000
      0.000738      -0.000041       0.000000
      0.000736      -0.000050       0.000000
      0.000745      -0.000042       0.000000
      0.000747      -0.000033       0.000000
      0.000745      -0.000030       0.000000
      0.000738      -0.000041       0.000000
      0.000753      -0.000031       0.000000
      0.000757      -0.000021       0.000000
      0.000750      -0.000029       0.000000
      0.000747      -0.000033       0.000000
      0.000757      -0.000021       0.000000
      0.000753       0.000006       0.000000
      0.000486       0.000030       0.000000
      0.000750      -0.000029       0.000000
      0.000747      -0.000033       0.000000
      0.000750      -0.000029       0.000000
      0.000804      -0.000010       0.000000
      0.000745      -0.000030       0.000000
      0.000750      -0.000029       0.000000
      0.000486       0.000030       0.000000
      0.008984       0.000888       0.000000
      0.000804      -0.000010       0.000000
      0.000779      -0.000027       0.000000
      0.000780      -0.000015       0.000000
      0.000774      -0.000016       0.000000
      0.000772      -0.000028       0.000000
      0.000780      -0.000015       0.000000
      0.000782      -0.000001       0.000000
      0.000776      -0.000003       0.000000
      0.000774      -0.000016       0.000000
      0.000772      -0.000028       0.000000
      0.000774      -0.000016       0.000000
      0.000768      -0.000017       0.000000
      0.000766      -0.000029       0.000000
      0.000774      -0.000016       0.000000
      0.000776      -0.000003       0.000000
      0.000772      -0.000004       0.000000
      0.000768      -0.000017       0.000000
      0.000829      -0.000049       0.000000
      0.000835      -0.000024       0.000000
      0.000812      -0.000025       0.000000
      0.000808      -0.000049       0.000000
      0.000835      -0.000024       0.000000
      0.000841       0.000007       0.000000
      0.000816       0.000005       0.000000
      0.000812      -0.000025       0.000000
      0.000808      -0.000049       0.000000
      0.000812      -0.000025       0.000000
      0.000793      -0.000026       0.000000
      0.000791      -0.000049       0.000000
      0.000793      -0.000026       0.000000
      0.000795      -0.000012       0.000000
      0.000787      -0.000013       0.000000
      0.000786      -0.000026       0.000000
      0.000795      -0.000012       0.000000
      0.000796       0.000002       0.000000
      0.000789       0.000000       0.000000
      0.000787      -0.000013       0.000000
      0.000786      -0.000026       0.000000
      0.000787      -0.000013       0.000000
      0.000780      -0.000015       0.000000
      0.000779      -0.000027       0.000000
      0.000787      -0.000013       0.000000
      0.000789       0.000000       0.000000
      0.000782      -0.000001       0.000000
      0.000780      -0.000015       0.000000
      0.000812      -0.000025       0.000000
      0.000814      -0.000011       0.000000
      0.000804      -0.000011       0.000000
      0.000802      -0.000025       0.000000
      0.000814      -0.000011       0.000000
      0.000816       0.000005       0.000000
      0.000805       0.000004       0.000000
      0.000804      -0.000011       0.000000
      0.000802      -0.000025       0.000000
      0.000804      -0.000011       0.000000
      0.000795      -0.000012       0.000000
      0.000793      -0.000026       0.000000
      0.000804      -0.000011       0.000000
      0.000805       0.000004       0.000000
      0.000796       0.000002       0.000000
      0.000795      -0.000012       0.000000
      0.000868      -0.000030       0.000000
      0.000954       0.000009       0.000000
      0.000931      -0.000025       0.000000
      0.000868      -0.000059       0.000000
      0.000954       0.000009       0.000000
      0.001064       0.000077       0.000000
      0.001006       0.000032       0.000000
      0.000931      -0.000025       0.000000
      0.000868      -0.000059       0.000000
      0.000931      -0.000025       0.000000
      0.000880      -0.000044       0.000000
      0.000844      -0.000077       0.000000
      0.000880      -0.000044       0.000000
      0.000898      -0.000020       0.000000
      0.000864      -0.000023       0.000000
      0.000853      -0.000048       0.000000
      0.000898      -0.000020       0.000000
      0.000914       0.000012       0.000000
      0.000874       0.000009       0.000000
      0.000864      -0.000023       0.000000
      0.000853      -0.000048       0.000000
      0.000864      -0.000023       0.000000
      0.000835      -0.000024       0.000000
      0.000829      -0.000049       0.000000
      0.000864      -0.000023       0.000000
      0.000874       0.000009       0.000000
      0.000841       0.000007       0.000000
      0.000835      -0.000024       0.000000
      0.000931      -0.000025       0.000000
      0.000967      -0.000000       0.000000
      0.000933      -0.000013       0.000000
      0.000907      -0.000037       0.000000
      0.000967      -0.000000       0.000000
      0.001006       0.000032       0.000000
      0.000960       0.000019       0.000000
      0.000933      -0.000013       0.000000
      0.000907      -0.000037       0.000000
      0.000933      -0.000013       0.000000
      0.000898      -0.000020       0.000000
      0.000880      -0.000044       0.000000
      0.000933      -0.000013       0.000000
      0.000960       0.000019       0.000000
      0.000914       0.000012       0.000000
      0.000898      -0.000020       0.000000
      0.000741       0.000031       0.000000
      0.000826       0.000078       0.000000
      0.000921       0.000049       0.000000
      0.000828       0.000003       0.000000
      0.000826       0.000078       0.000000
      0.000922       0.000152       0.000000
      0.001037       0.000126       0.000000
      0.000921       0.000049       0.000000
      0.000828       0.000003       0.000000
      0.000921       0.000049       0.000000
      0.000954       0.000009       0.000000
      0.000868      -0.000030       0.000000
      0.000921       0.000049       0.000000
      0.001037       0.000126       0.000000
      0.001064       0.000077       0.000000
      0.000954       0.000009       0.000000
      0.000000       0.000000       0.000000
      0.000000       0.000000       0.000000
      0.000588       0.000207       0.000000
      0.000530       0.000116       0.000000
      0.000000       0.000000       0.000000
      0.000000       0.000000       0.000000
      0.000595       0.000238       0.000000
      0.000588       0.000207       0.000000
      0.000530       0.000116       0.000000
      0.000588       0.000207       0.000000
      0.001118       0.000385       0.000000
      0.000922       0.000152       0.000000
      0.000588       0.000207       0.000000
      0.000595       0.000238       0.000000
      0.001233       0.000475       0.000000
      0.001118       0.000385       0.000000
      0.000000       0.000000       0.000000
      0.000000       0.000000       0.000000
      0.000615       0.000168       0.000000
      0.000595       0.000238       0.000000
      0.000000       0.000000       0.000000
      0.000000       0.000000       0.000000
      0.000668       0.000085       0.000000
      0.000615       0.000168       0.000000
      0.000595       0.000238       0.000000
      0.000615       0.000168       0.000000
      0.001381       0.000278       0.000000
      0.001233       0.000475       0.000000
      0.000615       0.000168       0.000000
      0.000668       0.000085       0.000000
      0.001535       0.000116       0.000000
      0.001381       0.000278       0.000000
      0.000000       0.000000       0.000000
      0.000000       0.000000       0.000000
      0.000718       0.000033       0.000000
      0.000668       0.000085       0.000000
      0.000000       0.000000       0.000000
      0.000000       0.000000       0.000000
      0.000737       0.000000       0.000000
      0.000718       0.000033       0.000000
      0.000668       0.000085       0.000000
      0.000718       0.000033       0.000000
      0.001634       0.000038       0.000000
      0.001535       0.000116       0.000000
      0.000718       0.000033       0.000000
      0.000737       0.000000       0.000000
      0.001667       0.000000       0.000000
      0.001634       0.000038       0.000000
      0.001381       0.000278       0.000000
      0.001535       0.000116       0.000000
      0.002707       0.000087       0.000000
      0.002496       0.000264       0.000000
      0.002496       0.000264       0.000000
      0.002707       0.000087       0.000000
      0.004221       0.000069       0.000000
      0.004198       0.000239       0.000000
      0.001535       0.000116       0.000000
      0.001634       0.000038       0.000000
      0.002811       0.000021       0.000000