# vtk DataFile Version 2.0
time_10.vtk
ASCII
DATASET UNSTRUCTURED_GRID
POINTS  1812 float
      0.000000       0.000000       0.000000
      0.083333       0.000000       0.000000
      0.083333       0.083333       0.000000
      0.000000       0.083333       0.000000
      0.083333       0.000000       0.000000
      0.166667       0.000000       0.000000
      0.166667       0.083333       0.000000
      0.083333       0.083333       0.000000
      0.000000       0.083333       0.000000
      0.083333       0.083333       0.000000
      0.083333       0.166667       0.000000
      0.000000       0.166667       0.000000
      0.083333       0.083333       0.000000
      0.166667       0.083333       0.000000
      0.166667       0.166667       0.000000
      0.083333       0.166667       0.000000
      0.166667       0.000000       0.000000
      0.250000       0.000000       0.000000
      0.250000       0.083333       0.000000
      0.166667       0.083333       0.000000
      0.250000       0.000000       0.000000
      0.333333       0.000000       0.000000
      0.333333       0.083333       0.000000
      0.250000       0.083333       0.000000
      0.166667       0.083333       0.000000
      0.250000       0.083333       0.000000
      0.250000       0.166667       0.000000
      0.166667       0.166667       0.000000
      0.250000       0.083333       0.000000
      0.333333       0.083333       0.000000
      0.333333       0.166667       0.000000
      0.250000       0.166667       0.000000
      0.333333       0.000000       0.000000
      0.416667      -0.000000       0.000000
      0.416667       0.083333       0.000000
      0.333333       0.083333       0.000000
      0.416667      -0.000000       0.000000
      0.500000       0.000000       0.000000
      0.500000       0.083333       0.000000
      0.416667       0.083333       0.000000
      0.333333       0.083333       0.000000
      0.416667       0.083333       0.000000
      0.416667       0.166667       0.000000
      0.333333       0.166667       0.000000
      0.416667       0.083333       0.000000
      0.500000       0.083333       0.000000
      0.500000       0.166667       0.000000
      0.416667       0.166667       0.000000
      0.000000       0.166667       0.000000
      0.083333       0.166667       0.000000
      0.083333       0.250000       0.000000
      0.000000       0.250000       0.000000
      0.083333       0.166667       0.000000
      0.166667       0.166667       0.000000
      0.166667       0.250000       0.000000
      0.083333       0.250000       0.000000
      0.000000       0.250000       0.000000
      0.083333       0.250000       0.000000
      0.083333       0.333333       0.000000
      0.000000       0.333333       0.000000
      0.083333       0.250000       0.000000
      0.166667       0.250000       0.000000
      0.166667       0.333333       0.000000
      0.083333       0.333333       0.000000
      0.166667       0.166667       0.000000
      0.250000       0.166667       0.000000
      0.250000       0.250000       0.000000
      0.166667       0.250000       0.000000
      0.250000       0.166667       0.000000
      0.333333       0.166667       0.000000
      0.333333       0.250000       0.000000
      0.250000       0.250000       0.000000
      0.166667       0.250000       0.000000
      0.250000       0.250000       0.000000
      0.250000       0.333333       0.000000
      0.166667       0.333333       0.000000
      0.250000       0.250000       0.000000
      0.333333       0.250000       0.000000
      0.333333       0.333333       0.000000
      0.250000       0.333333       0.000000
      0.333333       0.166667       0.000000
      0.416667       0.166667       0.000000
      0.416667       0.250000       0.000000
      0.333333       0.250000       0.000000
      0.333333       0.250000       0.000000
      0.416667       0.250000       0.000000
      0.416667       0.333333       0.000000
      0.333333       0.333333       0.000000
      0.000000       0.333333       0.000000
      0.083333       0.333333       0.000000
      0.083333       0.416667       0.000000
     -0.000000       0.416667       0.000000
      0.083333       0.333333       0.000000
      0.166667       0.333333       0.000000
      0.166667       0.416667       0.000000
      0.083333       0.416667       0.000000
     -0.000000       0.416667       0.000000
      0.083333       0.416667       0.000000
      0.083333       0.500000       0.000000
      0.000000       0.500000       0.000000
      0.083333       0.416667       0.000000
      0.166667       0.416667       0.000000
      0.166667       0.500000       0.000000
      0.083333       0.500000       0.000000
      0.166667       0.333333       0.000000
      0.250000       0.333333       0.000000
      0.250000       0.416667       0.000000
      0.166667       0.416667       0.000000
      0.250000       0.333333       0.000000
      0.333333       0.333333       0.000000
      0.333333       0.416667       0.000000
      0.250000       0.416667       0.000000
      0.166667       0.416667       0.000000
      0.250000       0.416667       0.000000
      0.250000       0.500000       0.000000
      0.166667       0.500000       0.000000
      0.250000       0.416667       0.000000
      0.333333       0.416667       0.000000
      0.333333       0.500000       0.000000
      0.250000       0.500000       0.000000
      0.333333       0.333333       0.000000
      0.375000       0.333333       0.000000
      0.375000       0.375000       0.000000
      0.333333       0.375000       0.000000
      0.375000       0.333333       0.000000
      0.416667       0.333333       0.000000
      0.416667       0.375000       0.000000
      0.375000       0.375000       0.000000
      0.333333       0.375000       0.000000
      0.375000       0.375000       0.000000
      0.375000       0.416667       0.000000
      0.333333       0.416667       0.000000
      0.375000       0.375000       0.000000
      0.416667       0.375000       0.000000
      0.416667       0.416667       0.000000
      0.375000       0.416667       0.000000
      0.416667       0.333333       0.000000
      0.458333       0.333333       0.000000
      0.458333       0.375000       0.000000
      0.416667       0.375000       0.000000
      0.416667       0.375000       0.000000
      0.458333       0.375000       0.000000
      0.458333       0.416667       0.000000
      0.416667       0.416667       0.000000
      0.333333       0.416667       0.000000
      0.375000       0.416667       0.000000
      0.375000       0.458333       0.000000
      0.333333       0.458333       0.000000
      0.375000       0.416667       0.000000
      0.416667       0.416667       0.000000
      0.416667       0.458333       0.000000
      0.375000       0.458333       0.000000
      0.333333       0.458333       0.000000
      0.375000       0.458333       0.000000
      0.375000       0.500000       0.000000
      0.333333       0.500000       0.000000
      0.375000       0.458333       0.000000
      0.416667       0.458333       0.000000
      0.416667       0.500000       0.000000
      0.375000       0.500000       0.000000
      0.416667       0.416667       0.000000
      0.437500       0.416667       0.000000
      0.437500       0.437500       0.000000
      0.416667       0.437500       0.000000
      0.437500       0.416667       0.000000
      0.458333       0.416667       0.000000
      0.458333       0.437500       0.000000
      0.437500       0.437500       0.000000
      0.416667       0.437500       0.000000
      0.437500       0.437500       0.000000
      0.437500       0.458333       0.000000
      0.416667       0.458333       0.000000
      0.437500       0.437500       0.000000
      0.458333       0.437500       0.000000
      0.458333       0.458333       0.000000
      0.437500       0.458333       0.000000
      0.458333       0.416667       0.000000
      0.479167       0.416667       0.000000
      0.479167       0.437500       0.000000
      0.458333       0.437500       0.000000
      0.458333       0.437500       0.000000
      0.479167       0.437500       0.000000
      0.479167       0.458333       0.000000
      0.458333       0.458333       0.000000
      0.416667       0.458333       0.000000
      0.437500       0.458333       0.000000
      0.437500       0.479167       0.000000
      0.416667       0.479167       0.000000
      0.437500       0.458333       0.000000
      0.458333       0.458333       0.000000
      0.458333       0.479167       0.000000
      0.437500       0.479167       0.000000
      0.416667       0.479167       0.000000
      0.437500       0.479167       0.000000
      0.437500       0.500000       0.000000
      0.416667       0.500000       0.000000
      0.437500       0.479167       0.000000
      0.458333       0.479167       0.000000
      0.458333       0.500000       0.000000
      0.437500       0.500000       0.000000
      0.458333       0.458333       0.000000
      0.468750       0.458333       0.000000
      0.468750       0.468750       0.000000
      0.458333       0.468750       0.000000
      0.468750       0.458333       0.000000
      0.479167       0.458333       0.000000
      0.479167       0.468750       0.000000
      0.468750       0.468750       0.000000
      0.458333       0.468750       0.000000
      0.468750       0.468750       0.000000
      0.468750       0.479167       0.000000
      0.458333       0.479167       0.000000
      0.468750       0.468750       0.000000
      0.479167       0.468750       0.000000
      0.479167       0.479167       0.000000
      0.468750       0.479167       0.000000
      0.479167       0.458333       0.000000
      0.489583       0.458333       0.000000
      0.489583       0.468750       0.000000
      0.479167       0.468750       0.000000
[...]
POINT_DATA  1812
VECTORS U float 
      0.000000       0.000000       0.000000
      0.000000       0.000000       0.000000
      0.000294       0.000001       0.000000
      0.000285       0.000000       0.000000
      0.000000       0.000000       0.000000
      0.000000       0.000000       0.000000
      0.000320       0.000004       0.000000
      0.000294       0.000001       0.000000
      0.000285       0.000000       0.000000
      0.000294       0.000001       0.000000
      0.000537      -0.000009       0.000000
      0.000524       0.000000       0.000000
      0.000294       0.000001       0.000000
      0.000320       0.000004       0.000000
      0.000578      -0.000013       0.000000
      0.000537      -0.000009       0.000000
      0.000000       0.000000       0.000000
      0.000000       0.000000       0.000000
      0.000365       0.000014       0.000000
      0.000320       0.000004       0.000000
      0.000000       0.000000       0.000000
      0.000000       0.000000       0.000000
      0.000427       0.000036       0.000000
      0.000365       0.000014       0.000000
      0.000320       0.000004       0.000000
      0.000365       0.000014       0.000000
      0.000648      -0.000007       0.000000
      0.000578      -0.000013       0.000000
      0.000365       0.000014       0.000000
      0.000427       0.000036       0.000000
      0.000750       0.000024       0.000000
      0.000648      -0.000007       0.000000
      0.000000       0.000000       0.000000
      0.000000       0.000000       0.000000
      0.000500       0.000080       0.000000
      0.000427       0.000036       0.000000
      0.000000       0.000000       0.000000
      0.000000       0.000000       0.000000
      0.000559       0.000147       0.000000
      0.000500       0.000080       0.000000
      0.000427       0.000036       0.000000
      0.000500       0.000080       0.000000
      0.000885       0.000100       0.000000
      0.000750       0.000024       0.000000
      0.000500       0.000080       0.000000
      0.000559       0.000147       0.000000
      0.001038       0.000248       0.000000
      0.000885       0.000100       0.000000
      0.000524       0.000000       0.000000
      0.000537      -0.000009       0.000000
      0.000718      -0.000023       0.000000
      0.000705       0.000000       0.000000
      0.000537      -0.000009       0.000000
      0.000578      -0.000013       0.000000
      0.000760      -0.000041       0.000000
      0.000718      -0.000023       0.000000
      0.000705       0.000000       0.000000
      0.000718      -0.000023       0.000000
      0.000838      -0.000036       0.000000
      0.000828       0.000000       0.000000
      0.000718      -0.000023       0.000000
      0.000760      -0.000041       0.000000
      0.000870      -0.000067       0.000000
      0.000838      -0.000036       0.000000
      0.000578      -0.000013       0.000000
      0.000648      -0.000007       0.000000
      0.000833      -0.000046       0.000000
      0.000760      -0.000041       0.000000
      0.000648      -0.000007       0.000000
      0.000750       0.000024       0.000000
      0.000944      -0.000025       0.000000
      0.000833      -0.000046       0.000000
      0.000760      -0.000041       0.000000
      0.000833      -0.000046       0.000000
      0.000925      -0.000085       0.000000
      0.000870      -0.000067       0.000000
      0.000833      -0.000046       0.000000
      0.000944      -0.000025       0.000000
      0.001006      -0.000078       0.000000
      0.000925      -0.000085       0.000000
      0.000750       0.000024       0.000000
      0.000885       0.000100       0.000000
      0.001108       0.000049       0.000000
      0.000944      -0.000025       0.000000
      0.000944      -0.000025       0.000000
      0.001108       0.000049       0.000000
      0.001116      -0.000024       0.000000
      0.001006      -0.000078       0.000000
      0.000828       0.000000       0.000000
      0.000838      -0.000036       0.000000
      0.000913      -0.000045       0.000000
      0.000907       0.000000       0.000000
      0.000838      -0.000036       0.000000
      0.000870      -0.000067       0.000000
      0.000929      -0.000084       0.000000
      0.000913      -0.000045       0.000000
      0.000907       0.000000       0.000000
      0.000913      -0.000045       0.000000
      0.000963      -0.000048       0.000000
      0.000962       0.000000       0.000000
      0.000913      -0.000045       0.000000
      0.000929      -0.000084       0.000000
      0.000965      -0.000089       0.000000
      0.000963      -0.000048       0.000000
      0.000870      -0.000067       0.000000
      0.000925      -0.000085       0.000000
      0.000955      -0.000109       0.000000
      0.000929      -0.000084       0.000000
      0.000925      -0.000085       0.000000
      0.001006      -0.000078       0.000000
      0.000988      -0.000105       0.000000
      0.000955      -0.000109       0.000000
      0.000929      -0.000084       0.000000
      0.000955      -0.000109       0.000000
      0.000964      -0.000115       0.000000
      0.000965      -0.000089       0.000000
      0.000955      -0.000109       0.000000
      0.000988      -0.000105       0.000000
      0.000952      -0.000109       0.000000
      0.000964      -0.000115       0.000000
      0.001006      -0.000078       0.000000
      0.001057      -0.000058       0.000000
      0.001035      -0.000076       0.000000
      0.001002      -0.000095       0.000000
      0.001057      -0.000058       0.000000
      0.001116      -0.000024       0.000000
      0.001070      -0.000042       0.000000
      0.001035      -0.000076       0.000000
      0.001002      -0.000095       0.000000
      0.001035      -0.000076       0.000000
      0.001005      -0.000085       0.000000
      0.000988      -0.000105       0.000000
      0.001035      -0.000076       0.000000
      0.001070      -0.000042       0.000000
      0.001020      -0.000048       0.000000
      0.001005      -0.000085       0.000000
      0.001116      -0.000024       0.000000
      0.001185       0.000031       0.000000
      0.001103       0.000013       0.000000
      0.001070      -0.000042       0.000000
      0.001070      -0.000042       0.000000
      0.001103       0.000013       0.000000
      0.001032       0.000009       0.000000
      0.001020      -0.000048       0.000000
      0.000988      -0.000105       0.000000
      0.001005      -0.000085       0.000000
      0.000974      -0.000088       0.000000
      0.000970      -0.000109       0.000000
      0.001005      -0.000085       0.000000
      0.001020      -0.000048       0.000000
      0.000977      -0.000048       0.000000
      0.000974      -0.000088       0.000000
      0.000970      -0.000109       0.000000
      0.000974      -0.000088       0.000000
      0.000943      -0.000086       0.000000
      0.000952      -0.000109       0.000000
      0.000974      -0.000088       0.000000
      0.000977      -0.000048       0.000000
      0.000933      -0.000047       0.000000
      0.000943      -0.000086       0.000000
      0.001020      -0.000048       0.000000
      0.001027      -0.000022       0.000000
      0.001001      -0.000022       0.000000
      0.000998      -0.000049       0.000000
      0.001027      -0.000022       0.000000
      0.001032       0.000009       0.000000
      0.001004       0.000009       0.000000
      0.001001      -0.000022       0.000000
      0.000998      -0.000049       0.000000
      0.001001      -0.000022       0.000000
      0.000978      -0.000022       0.000000
      0.000977      -0.000048       0.000000
      0.001001      -0.000022       0.000000
      0.001004       0.000009       0.000000
      0.000979       0.000008       0.000000
      0.000978      -0.000022       0.000000
      0.001032       0.000009       0.000000
      0.001037       0.000047       0.000000
      0.001007       0.000045       0.000000
      0.001004       0.000009       0.000000
      0.001004       0.000009       0.000000
      0.001007       0.000045       0.000000
      0.000981       0.000042       0.000000
      0.000979       0.000008       0.000000
      0.000977      -0.000048       0.000000
      0.000978      -0.000022       0.000000
      0.000955      -0.000022       0.000000
      0.000956      -0.000048       0.000000
      0.000978      -0.000022       0.000000
      0.000979       0.000008       0.000000
      0.000955       0.000008       0.000000
      0.000955      -0.000022       0.000000
      0.000956      -0.000048       0.000000
      0.000955      -0.000022       0.000000
      0.000930      -0.000021       0.000000
      0.000933      -0.000047       0.000000
      0.000955      -0.000022       0.000000
      0.000955       0.000008       0.000000
      0.000929       0.000008       0.000000
      0.000930      -0.000021       0.000000
      0.000979       0.000008       0.000000
      0.000980       0.000025       0.000000
      0.000968       0.000024       0.000000
      0.000967       0.000008       0.000000
      0.000980       0.000025       0.000000
      0.000981       0.000042       0.000000
      0.000969       0.000041       0.000000
      0.000968       0.000024       0.000000
      0.000967       0.000008       0.000000
      0.000968       0.000024       0.000000
      0.000956       0.000024       0.000000
      0.000955       0.000008       0.000000
      0.000968       0.000024       0.000000
      0.000969       0.000041       0.000000
      0.000958       0.000040       0.000000
      0.000956       0.000024       0.000000
      0.000981       0.000042       0.000000
      0.000984       0.000061       0.000000
      0.000972       0.000059       0.000000
      0.000969       0.000041       0.000000
      0.000984       0.000061       0.000000
      0.000989       0.000082       0.000000
      0.000978       0.000086       0.000000
      0.000972       0.000059       0.000000
      0.000969       0.000041       0.000000
      0.000972       0.000059       0.000000
      0.000961       0.000056       0.000000
      0.000958       0.000040       0.000000
      0.000972       0.000059       0.000000
      0.000978       0.000086       0.000000
      0.000956       0.000090       0.000000
      0.000961       0.000056       0.000000
      0.000955       0.000008       0.000000
      0.000956       0.000024       0.000000
      0.000944       0.000023       0.000000
      0.000943       0.000008       0.000000
      0.000956       0.000024       0.000000
      0.000958       0.000040       0.000000
      0.000946       0.000037       0.000000
      0.000944       0.000023       0.000000
      0.000943       0.000008       0.000000
      0.000944       0.000023       0.000000
      0.000931       0.000023       0.000000
      0.000929       0.000008       0.000000
      0.000944       0.000023       0.000000
      0.000946       0.000037       0.000000
      0.000937       0.000041       0.000000
      0.000931       0.000023       0.000000
      0.000958       0.000040       0.000000
      0.000961       0.000056       0.000000
      0.000948       0.000049       0.000000
      0.000946       0.000037       0.000000
      0.000961       0.000056       0.000000
      0.000956       0.000090       0.000000
      0.000665       0.000080       0.000000
      0.000948       0.000049       0.000000
      0.000946       0.000037       0.000000
      0.000948       0.000049       0.000000
      0.000992       0.000066       0.000000
      0.000937       0.000041       0.000000
      0.000948       0.000049       0.000000
      0.000665       0.000080       0.000000
      0.008530       0.000835       0.000000
      0.000992       0.000066       0.000000
      0.001007       0.000045       0.000000
      0.001009       0.000065       0.000000
      0.000996       0.000063       0.000000
      0.000994       0.000044       0.000000
      0.001009       0.000065       0.000000
      0.001012       0.000087       0.000000
      0.000999       0.000084       0.000000
      0.000996       0.000063       0.000000
      0.000994       0.000044       0.000000
      0.000996       0.000063       0.000000
      0.000984       0.000061       0.000000
      0.000981       0.000042       0.000000
      0.000996       0.000063       0.000000
      0.000999       0.000084       0.000000
      0.000989       0.000082       0.000000
      0.000984       0.000061       0.000000
      0.001103       0.000013       0.000000
      0.001119       0.000051       0.000000
      0.001074       0.000048       0.000000
      0.001065       0.000010       0.000000
      0.001119       0.000051       0.000000
      0.001133       0.000100       0.000000
      0.001081       0.000096       0.000000
      0.001074       0.000048       0.000000
      0.001065       0.000010       0.000000
      0.001074       0.000048       0.000000
      0.001037       0.000047       0.000000
      0.001032       0.000009       0.000000
      0.001037       0.000047       0.000000
      0.001039       0.000068       0.000000
      0.001023       0.000067       0.000000
      0.001021       0.000046       0.000000
      0.001039       0.000068       0.000000
      0.001042       0.000092       0.000000
      0.001026       0.000089       0.000000
      0.001023       0.000067       0.000000
      0.001021       0.000046       0.000000
      0.001023       0.000067       0.000000
      0.001009       0.000065       0.000000
      0.001007       0.000045       0.000000
      0.001023       0.000067       0.000000
      0.001026       0.000089       0.000000
      0.001012       0.000087       0.000000
      0.001009       0.000065       0.000000
      0.001074       0.000048       0.000000
      0.001078       0.000071       0.000000
      0.001057       0.000070       0.000000
      0.001054       0.000048       0.000000
      0.001078       0.000071       0.000000
      0.001081       0.000096       0.000000
      0.001060       0.000094       0.000000
      0.001057       0.000070       0.000000
      0.001054       0.000048       0.000000
      0.001057       0.000070       0.000000
      0.001039       0.000068       0.000000
      0.001037       0.000047       0.000000
      0.001057       0.000070       0.000000
      0.001060       0.000094       0.000000
      0.001042       0.000092       0.000000
      0.001039       0.000068       0.000000
      0.001108       0.000049       0.000000
      0.001220       0.000122       0.000000
      0.001239       0.000073       0.000000
      0.001136       0.000009       0.000000
      0.001220       0.000122       0.000000
      0.001361       0.000238       0.000000
      0.001377       0.000176       0.000000
      0.001239       0.000073       0.000000
      0.001136       0.000009       0.000000
      0.001239       0.000073       0.000000
      0.001185       0.000031       0.000000
      0.001116      -0.000024       0.000000
      0.001185       0.000031       0.000000
      0.001225       0.000070       0.000000
      0.001171       0.000057       0.000000
      0.001145       0.000019       0.000000
      0.001225       0.000070       0.000000
      0.001268       0.000120       0.000000
      0.001197       0.000106       0.000000
      0.001171       0.000057       0.000000
      0.001145       0.000019       0.000000
      0.001171       0.000057       0.000000
      0.001119       0.000051       0.000000
      0.001103       0.000013       0.000000
      0.001171       0.000057       0.000000
      0.001197       0.000106       0.000000
      0.001133       0.000100       0.000000
      0.001119       0.000051       0.000000
      0.001239       0.000073       0.000000
      0.001302       0.000118       0.000000
      0.001272       0.000090       0.000000
      0.001219       0.000049       0.000000
      0.001302       0.000118       0.000000
      0.001377       0.000176       0.000000
      0.001334       0.000144       0.000000
      0.001272       0.000090       0.000000
      0.001219       0.000049       0.000000
      0.001272       0.000090       0.000000
      0.001225       0.000070       0.000000
      0.001185       0.000031       0.000000
      0.001272       0.000090       0.000000
      0.001334       0.000144       0.000000
      0.001268       0.000120       0.000000
      0.001225       0.000070       0.000000
      0.000885       0.000100       0.000000
      0.000962       0.000164       0.000000
      0.001122       0.000157       0.000000
      0.001022       0.000082       0.000000
      0.000962       0.000164       0.000000
      0.001038       0.000248       0.000000
      0.001232       0.000262       0.000000
      0.001122       0.000157       0.000000
      0.001022       0.000082       0.000000
      0.001122       0.000157       0.000000
      0.001220       0.000122       0.000000
      0.001108       0.000049       0.000000
      0.001122       0.000157       0.000000
      0.001232       0.000262       0.000000
      0.001361       0.000238       0.000000
      0.001220       0.000122       0.000000
      0.000000       0.000000       0.000000
      0.000000       0.000000       0.000000
      0.000581       0.000207       0.000000
      0.000559       0.000147       0.000000
      0.000000       0.000000       0.000000
      0.000000       0.000000       0.000000
      0.000579       0.000199       0.000000
      0.000581       0.000207       0.000000
      0.000559       0.000147       0.000000
      0.000581       0.000207       0.000000
      0.001148       0.000413       0.000000
      0.001038       0.000248       0.000000
      0.000581       0.000207       0.000000
      0.000579       0.000199       0.000000
      0.001215       0.000384       0.000000
      0.001148       0.000413       0.000000
      0.000000       0.000000       0.000000
      0.000000       0.000000       0.000000
      0.000600       0.000133       0.000000
      0.000579       0.000199       0.000000
      0.000000       0.000000       0.000000
      0.000000       0.000000       0.000000
      0.000643       0.000070       0.000000
      0.000600       0.000133       0.000000
      0.000579       0.000199       0.000000
      0.000600       0.000133       0.000000
      0.001326       0.000221       0.000000
      0.001215       0.000384       0.000000
      0.000600       0.000133       0.000000
      0.000643       0.000070       0.000000
      0.001443       0.000098       0.000000
      0.001326       0.000221       0.000000
      0.000000       0.000000       0.000000
      0.000000       0.000000       0.000000
      0.000682       0.000028       0.000000
      0.000643       0.000070       0.000000
      0.000000       0.000000       0.000000
      0.000000       0.000000       0.000000
      0.000697       0.000000       0.000000
      0.000682       0.000028       0.000000
      0.000643       0.000070       0.000000
      0.000682       0.000028       0.000000
      0.001522       0.000034       0.000000
      0.001443       0.000098       0.000000
      0.000682       0.000028       0.000000
      0.000697       0.000000       0.000000
      0.001550       0.000000       0.000000
      0.001522       0.000034       0.000000
      0.001215       0.000384       0.000000
      0.001326       0.000221       0.000000
      0.002280       0.000216       0.000000
      0.001989       0.000500       0.000000
      0.001326       0.000221       0.000000
      0.001443       0.000098       0.000000
      0.002469       0.000074       0.000000
      0.002280       0.000216       0.000000
      0.002280       0.000216       0.000000
      0.002469       0.000074       0.000000
      0.003790       0.000034       0.000000