# vtk DataFile Version 2.0
time_10.vtk
ASCII
DATASET UNSTRUCTURED_GRID
POINTS  1428 float
      0.000000       0.000000       0.000000
      0.083333       0.000000       0.000000
      0.083333       0.083333       0.000000
      0.000000       0.083333       0.000000
      0.083333       0.000000       0.000000
      0.166667       0.000000       0.000000
      0.166667       0.083333       0.000000
      0.083333       0.083333       0.000000
      0.000000       0.083333       0.000000
      0.083333       0.083333       0.000000
      0.083333       0.166667       0.000000
      0.000000       0.166667       0.000000
      0.083333       0.083333       0.000000
      0.166667       0.083333       0.000000
      0.166667       0.166667       0.000000
      0.083333       0.166667       0.000000
      0.166667       0.000000       0.000000
      0.250000       0.000000       0.000000
      0.250000       0.083333       0.000000
      0.166667       0.083333       0.000000
      0.250000       0.000000       0.000000
      0.333333       0.000000       0.000000
      0.333333       0.083333       0.000000
      0.250000       0.083333       0.000000
      0.166667       0.083333       0.000000
      0.250000       0.083333       0.000000
      0.250000       0.166667       0.000000
      0.166667       0.166667       0.000000
      0.250000       0.083333       0.000000
      0.333333       0.083333       0.000000
      0.333333       0.166667       0.000000
      0.250000       0.166667       0.000000
      0.333333       0.000000       0.000000
      0.416667      -0.000000       0.000000
      0.416667       0.083333       0.000000
      0.333333       0.083333       0.000000
      0.416667      -0.000000       0.000000
      0.500000       0.000000       0.000000
      0.500000       0.083333       0.000000
      0.416667       0.083333       0.000000
      0.333333       0.083333       0.000000
      0.416667       0.083333       0.000000
      0.416667       0.166667       0.000000
      0.333333       0.166667       0.000000
      0.416667       0.083333       0.000000
      0.500000       0.083333       0.000000
      0.500000       0.166667       0.000000
      0.416667       0.166667       0.000000
      0.000000       0.166667       0.000000
      0.083333       0.166667       0.000000
      0.083333       0.250000       0.000000
      0.000000       0.250000       0.000000
      0.083333       0.166667       0.000000
      0.166667       0.166667       0.000000
      0.166667       0.250000       0.000000
      0.083333       0.250000       0.000000
      0.000000       0.250000       0.000000
      0.083333       0.250000       0.000000
      0.083333       0.333333       0.000000
      0.000000       0.333333       0.000000
      0.083333       0.250000       0.000000
      0.166667       0.250000       0.000000
      0.166667       0.333333       0.000000
      0.083333       0.333333       0.000000
      0.166667       0.166667       0.000000
      0.250000       0.166667       0.000000
      0.250000       0.250000       0.000000
      0.166667       0.250000       0.000000
      0.250000       0.166667       0.000000
      0.333333       0.166667       0.000000
      0.333333       0.250000       0.000000
      0.250000       0.250000       0.000000
      0.166667       0.250000       0.000000
      0.250000       0.250000       0.000000
      0.250000       0.333333       0.000000
      0.166667       0.333333       0.000000
      0.250000       0.250000       0.000000
      0.333333       0.250000       0.000000
      0.333333       0.333333       0.000000
      0.250000       0.333333       0.000000
      0.333333       0.166667       0.000000
      0.416667       0.166667       0.000000
      0.416667       0.250000       0.000000
      0.333333       0.250000       0.000000
      0.416667       0.166667       0.000000
      0.500000       0.166667       0.000000
      0.500000       0.250000       0.000000
      0.416667       0.250000       0.000000
      0.333333       0.250000       0.000000
      0.416667       0.250000       0.000000
      0.416667       0.333333       0.000000
      0.333333       0.333333       0.000000
      0.000000       0.333333       0.000000
      0.083333       0.333333       0.000000
      0.083333       0.416667       0.000000
     -0.000000       0.416667       0.000000
      0.083333       0.333333       0.000000
      0.166667       0.333333       0.000000
      0.166667       0.416667       0.000000
      0.083333       0.416667       0.000000
     -0.000000       0.416667       0.000000
      0.083333       0.416667       0.000000
      0.083333       0.500000       0.000000
      0.000000       0.500000       0.000000
      0.083333       0.416667       0.000000
      0.166667       0.416667       0.000000
      0.166667       0.500000       0.000000
      0.083333       0.500000       0.000000
      0.166667       0.333333       0.000000
      0.250000       0.333333       0.000000
      0.250000       0.416667       0.000000
      0.166667       0.416667       0.000000
      0.250000       0.333333       0.000000
      0.333333       0.333333       0.000000
      0.333333       0.416667       0.000000
      0.250000       0.416667       0.000000
      0.166667       0.416667       0.000000
      0.250000       0.416667       0.000000
      0.250000       0.500000       0.000000
      0.166667       0.500000       0.000000
      0.250000       0.416667       0.000000
      0.333333       0.416667       0.000000
      0.333333       0.500000       0.000000
      0.250000       0.500000       0.000000
      0.333333       0.333333       0.000000
      0.375000       0.333333       0.000000
      0.375000       0.375000       0.000000
      0.333333       0.375000       0.000000
      0.375000       0.333333       0.000000
      0.416667       0.333333       0.000000
      0.416667       0.375000       0.000000
      0.375000       0.375000       0.000000
      0.333333       0.375000       0.000000
      0.375000       0.375000       0.000000
      0.375000       0.416667       0.000000
      0.333333       0.416667       0.000000
      0.375000       0.375000       0.000000
      0.416667       0.375000       0.000000
      0.416667       0.416667       0.000000
      0.375000       0.416667       0.000000
      0.416667       0.333333       0.000000
      0.458333       0.333333       0.000000
      0.458333       0.375000       0.000000
      0.416667       0.375000       0.000000
      0.416667       0.375000       0.000000
      0.458333       0.375000       0.000000
      0.458333       0.416667       0.000000
      0.416667       0.416667       0.000000
      0.333333       0.416667       0.000000
      0.375000       0.416667       0.000000
      0.375000       0.458333       0.000000
      0.333333       0.458333       0.000000
      0.375000       0.416667       0.000000
      0.416667       0.416667       0.000000
      0.416667       0.458333       0.000000
      0.375000       0.458333       0.000000
      0.333333       0.458333       0.000000
      0.375000       0.458333       0.000000
      0.375000       0.500000       0.000000
      0.333333       0.500000       0.000000
      0.375000       0.458333       0.000000
      0.416667       0.458333       0.000000
      0.416667       0.500000       0.000000
      0.375000       0.500000       0.000000
      0.416667       0.416667       0.000000
      0.437500       0.416667       0.000000
      0.437500       0.437500       0.000000
      0.416667       0.437500       0.000000
      0.437500       0.416667       0.000000
      0.458333       0.416667       0.000000
      0.458333       0.437500       0.000000
      0.437500       0.437500       0.000000
      0.416667       0.437500       0.000000
      0.437500       0.437500       0.000000
      0.437500       0.458333       0.000000
      0.416667       0.458333       0.000000
      0.437500       0.437500       0.000000
      0.458333       0.437500       0.000000
      0.458333       0.458333       0.000000
      0.437500       0.458333       0.000000
      0.458333       0.416667       0.000000
      0.479167       0.416667       0.000000
      0.479167       0.437500       0.000000
      0.458333       0.437500       0.000000
      0.458333       0.437500       0.000000
      0.479167       0.437500       0.000000
      0.479167       0.458333       0.000000
      0.458333       0.458333       0.000000
      0.416667       0.458333       0.000000
      0.437500       0.458333       0.000000
      0.437500       0.479167       0.000000
      0.416667       0.479167       0.000000
      0.437500       0.458333       0.000000
      0.458333       0.458333       0.000000
      0.458333       0.479167       0.000000
      0.437500       0.479167       0.000000
      0.416667       0.479167       0.000000
      0.437500       0.479167       0.000000
      0.437500       0.500000       0.000000
      0.416667       0.500000       0.000000
      0.437500       0.479167       0.000000
      0.458333       0.479167       0.000000
      0.458333       0.500000       0.000000
      0.437500       0.500000       0.000000
      0.458333       0.458333       0.000000
      0.468750       0.458333       0.000000
      0.468750       0.468750       0.000000
      0.458333       0.468750       0.000000
      0.468750       0.458333       0.000000
      0.479167       0.458333       0.000000
      0.479167       0.468750       0.000000
      0.468750       0.468750       0.000000
      0.458333       0.468750       0.000000
      0.468750       0.468750       0.000000
      0.468750       0.479167       0.000000
      0.458333       0.479167       0.000000
      0.468750       0.468750       0.000000
      0.479167       0.468750       0.000000
      0.479167       0.479167       0.000000
      0.468750       0.479167       0.000000
[...]
POINT_DATA  1428
VECTORS U float 
      0.000000       0.000000       0.000000
      0.000000       0.000000       0.000000
      0.000425       0.000008       0.000000
      0.000417       0.000000       0.000000
      0.000000       0.000000       0.000000
      0.000000       0.000000       0.000000
      0.000448       0.000020       0.000000
      0.000425       0.000008       0.000000
      0.000417       0.000000       0.000000
      0.000425       0.000008       0.000000
      0.000784       0.000007       0.000000
      0.000770       0.000000       0.000000
      0.000425       0.000008       0.000000
      0.000448       0.000020       0.000000
      0.000824       0.000020       0.000000
      0.000784       0.000007       0.000000
      0.000000       0.000000       0.000000
      0.000000       0.000000       0.000000
      0.000484       0.000040       0.000000
      0.000448       0.000020       0.000000
      0.000000       0.000000       0.000000
      0.000000       0.000000       0.000000
      0.000525       0.000071       0.000000
      0.000484       0.000040       0.000000
      0.000448       0.000020       0.000000
      0.000484       0.000040       0.000000
      0.000890       0.000050       0.000000
      0.000824       0.000020       0.000000
      0.000484       0.000040       0.000000
      0.000525       0.000071       0.000000
      0.000974       0.000108       0.000000
      0.000890       0.000050       0.000000
      0.000000       0.000000       0.000000
      0.000000       0.000000       0.000000
      0.000559       0.000112       0.000000
      0.000525       0.000071       0.000000
      0.000000       0.000000       0.000000
      0.000000       0.000000       0.000000
      0.000573       0.000151       0.000000
      0.000559       0.000112       0.000000
      0.000525       0.000071       0.000000
      0.000559       0.000112       0.000000
      0.001061       0.000198       0.000000
      0.000974       0.000108       0.000000
      0.000559       0.000112       0.000000
      0.000573       0.000151       0.000000
      0.001124       0.000295       0.000000
      0.001061       0.000198       0.000000
      0.000770       0.000000       0.000000
      0.000784       0.000007       0.000000
      0.001063      -0.000003       0.000000
      0.001046       0.000000       0.000000
      0.000784       0.000007       0.000000
      0.000824       0.000020       0.000000
      0.001113       0.000002       0.000000
      0.001063      -0.000003       0.000000
      0.001046       0.000000       0.000000
      0.001063      -0.000003       0.000000
      0.001256      -0.000018       0.000000
      0.001240       0.000000       0.000000
      0.001063      -0.000003       0.000000
      0.001113       0.000002       0.000000
      0.001305      -0.000027       0.000000
      0.001256      -0.000018       0.000000
      0.000824       0.000020       0.000000
      0.000890       0.000050       0.000000
      0.001199       0.000029       0.000000
      0.001113       0.000002       0.000000
      0.000890       0.000050       0.000000
      0.000974       0.000108       0.000000
      0.001326       0.000096       0.000000
      0.001199       0.000029       0.000000
      0.001113       0.000002       0.000000
      0.001199       0.000029       0.000000
      0.001393      -0.000016       0.000000
      0.001305      -0.000027       0.000000
      0.001199       0.000029       0.000000
      0.001326       0.000096       0.000000
      0.001532       0.000035       0.000000
      0.001393      -0.000016       0.000000
      0.000974       0.000108       0.000000
      0.001061       0.000198       0.000000
      0.001489       0.000229       0.000000
      0.001326       0.000096       0.000000
      0.001061       0.000198       0.000000
      0.001124       0.000295       0.000000
      0.001652       0.000417       0.000000
      0.001489       0.000229       0.000000
      0.001326       0.000096       0.000000
      0.001489       0.000229       0.000000
      0.001748       0.000166       0.000000
      0.001532       0.000035       0.000000
      0.001240       0.000000       0.000000
      0.001256      -0.000018       0.000000
      0.001372      -0.000031       0.000000
      0.001360       0.000000       0.000000
      0.001256      -0.000018       0.000000
      0.001305      -0.000027       0.000000
      0.001409      -0.000054       0.000000
      0.001372      -0.000031       0.000000
      0.001360       0.000000       0.000000
      0.001372      -0.000031       0.000000
      0.001430      -0.000039       0.000000
      0.001422       0.000000       0.000000
      0.001372      -0.000031       0.000000
      0.001409      -0.000054       0.000000
      0.001453      -0.000071       0.000000
      0.001430      -0.000039       0.000000
      0.001305      -0.000027       0.000000
      0.001393      -0.000016       0.000000
      0.001472      -0.000062       0.000000
      0.001409      -0.000054       0.000000
      0.001393      -0.000016       0.000000
      0.001532       0.000035       0.000000
      0.001567      -0.000036       0.000000
      0.001472      -0.000062       0.000000
      0.001409      -0.000054       0.000000
      0.001472      -0.000062       0.000000
      0.001485      -0.000087       0.000000
      0.001453      -0.000071       0.000000
      0.001472      -0.000062       0.000000
      0.001567      -0.000036       0.000000
      0.001515      -0.000067       0.000000
      0.001485      -0.000087       0.000000
      0.001532       0.000035       0.000000
      0.001627       0.000087       0.000000
      0.001654       0.000039       0.000000
      0.001568      -0.000003       0.000000
      0.001627       0.000087       0.000000
      0.001748       0.000166       0.000000
      0.001763       0.000107       0.000000
      0.001654       0.000039       0.000000
      0.001568      -0.000003       0.000000
      0.001654       0.000039       0.000000
      0.001629      -0.000000       0.000000
      0.001567      -0.000036       0.000000
      0.001654       0.000039       0.000000
      0.001763       0.000107       0.000000
      0.001702       0.000059       0.000000
      0.001629      -0.000000       0.000000
      0.001748       0.000166       0.000000
      0.001901       0.000286       0.000000
      0.001909       0.000214       0.000000
      0.001763       0.000107       0.000000
      0.001763       0.000107       0.000000
      0.001909       0.000214       0.000000
      0.001788       0.000154       0.000000
      0.001702       0.000059       0.000000
      0.001567      -0.000036       0.000000
      0.001629      -0.000000       0.000000
      0.001577      -0.000024       0.000000
      0.001544      -0.000057       0.000000
      0.001629      -0.000000       0.000000
      0.001702       0.000059       0.000000
      0.001611       0.000036       0.000000
      0.001577      -0.000024       0.000000
      0.001544      -0.000057       0.000000
      0.001577      -0.000024       0.000000
      0.001524      -0.000032       0.000000
      0.001515      -0.000067       0.000000
      0.001577      -0.000024       0.000000
      0.001611       0.000036       0.000000
      0.001523       0.000031       0.000000
      0.001524      -0.000032       0.000000
      0.001702       0.000059       0.000000
      0.001744       0.000101       0.000000
      0.001684       0.000087       0.000000
      0.001657       0.000045       0.000000
      0.001744       0.000101       0.000000
      0.001788       0.000154       0.000000
      0.001710       0.000141       0.000000
      0.001684       0.000087       0.000000
      0.001657       0.000045       0.000000
      0.001684       0.000087       0.000000
      0.001626       0.000080       0.000000
      0.001611       0.000036       0.000000
      0.001684       0.000087       0.000000
      0.001710       0.000141       0.000000
      0.001639       0.000135       0.000000
      0.001626       0.000080       0.000000
      0.001788       0.000154       0.000000
      0.001837       0.000221       0.000000
      0.001735       0.000209       0.000000
      0.001710       0.000141       0.000000
      0.001710       0.000141       0.000000
      0.001735       0.000209       0.000000
      0.001650       0.000204       0.000000
      0.001639       0.000135       0.000000
      0.001611       0.000036       0.000000
      0.001626       0.000080       0.000000
      0.001572       0.000077       0.000000
      0.001566       0.000032       0.000000
      0.001626       0.000080       0.000000
      0.001639       0.000135       0.000000
      0.001577       0.000134       0.000000
      0.001572       0.000077       0.000000
      0.001566       0.000032       0.000000
      0.001572       0.000077       0.000000
      0.001521       0.000077       0.000000
      0.001523       0.000031       0.000000
      0.001572       0.000077       0.000000
      0.001577       0.000134       0.000000
      0.001519       0.000133       0.000000
      0.001521       0.000077       0.000000
      0.001639       0.000135       0.000000
      0.001644       0.000168       0.000000
      0.001610       0.000167       0.000000
      0.001607       0.000134       0.000000
      0.001644       0.000168       0.000000
      0.001650       0.000204       0.000000
      0.001614       0.000203       0.000000
      0.001610       0.000167       0.000000
      0.001607       0.000134       0.000000
      0.001610       0.000167       0.000000
      0.001579       0.000166       0.000000
      0.001577       0.000134       0.000000
      0.001610       0.000167       0.000000
      0.001614       0.000203       0.000000
      0.001582       0.000200       0.000000
      0.001579       0.000166       0.000000
      0.001650       0.000204       0.000000
      0.001656       0.000246       0.000000
      0.001620       0.000242       0.000000
      0.001614       0.000203       0.000000
      0.001656       0.000246       0.000000
      0.001665       0.000292       0.000000
      0.001633       0.000293       0.000000
      0.001620       0.000242       0.000000
      0.001614       0.000203       0.000000
      0.001620       0.000242       0.000000
      0.001588       0.000238       0.000000
      0.001582       0.000200       0.000000
      0.001620       0.000242       0.000000
      0.001633       0.000293       0.000000
      0.001590       0.000295       0.000000
      0.001588       0.000238       0.000000
      0.001577       0.000134       0.000000
      0.001579       0.000166       0.000000
      0.001549       0.000165       0.000000
      0.001548       0.000133       0.000000
      0.001579       0.000166       0.000000
      0.001582       0.000200       0.000000
      0.001552       0.000198       0.000000
      0.001549       0.000165       0.000000
      0.001548       0.000133       0.000000
      0.001549       0.000165       0.000000
      0.001519       0.000165       0.000000
      0.001519       0.000133       0.000000
      0.001549       0.000165       0.000000
      0.001552       0.000198       0.000000
      0.001525       0.000200       0.000000
      0.001519       0.000165       0.000000
      0.001582       0.000200       0.000000
      0.001588       0.000238       0.000000
      0.001556       0.000229       0.000000
      0.001552       0.000198       0.000000
      0.001588       0.000238       0.000000
      0.001590       0.000295       0.000000
      0.001314       0.000237       0.000000
      0.001556       0.000229       0.000000
      0.001552       0.000198       0.000000
      0.001556       0.000229       0.000000
      0.001570       0.000242       0.000000
      0.001525       0.000200       0.000000
      0.001556       0.000229       0.000000
      0.001314       0.000237       0.000000
      0.007569       0.000692       0.000000
      0.001570       0.000242       0.000000
      0.001735       0.000209       0.000000
      0.001746       0.000251       0.000000
      0.001698       0.000248       0.000000
      0.001690       0.000206       0.000000
      0.001746       0.000251       0.000000
      0.001758       0.000300       0.000000
      0.001707       0.000297       0.000000
      0.001698       0.000248       0.000000
      0.001690       0.000206       0.000000
      0.001698       0.000248       0.000000
      0.001656       0.000246       0.000000
      0.001650       0.000204       0.000000
      0.001698       0.000248       0.000000
      0.001707       0.000297       0.000000
      0.001665       0.000292       0.000000
      0.001656       0.000246       0.000000
      0.001909       0.000214       0.000000
      0.002007       0.000293       0.000000
      0.001938       0.000249       0.000000
      0.001860       0.000179       0.000000
      0.002007       0.000293       0.000000
      0.002134       0.000400       0.000000
      0.002043       0.000345       0.000000
      0.001938       0.000249       0.000000
      0.001860       0.000179       0.000000
      0.001938       0.000249       0.000000
      0.001837       0.000221       0.000000
      0.001788       0.000154       0.000000
      0.001837       0.000221       0.000000
      0.001864       0.000262       0.000000
      0.001802       0.000255       0.000000
      0.001784       0.000213       0.000000
      0.001864       0.000262       0.000000
      0.001893       0.000310       0.000000
      0.001821       0.000304       0.000000
      0.001802       0.000255       0.000000
      0.001784       0.000213       0.000000
      0.001802       0.000255       0.000000
      0.001746       0.000251       0.000000
      0.001735       0.000209       0.000000
      0.001802       0.000255       0.000000
      0.001821       0.000304       0.000000
      0.001758       0.000300       0.000000
      0.001746       0.000251       0.000000
      0.001938       0.000249       0.000000
      0.001986       0.000293       0.000000
      0.001927       0.000275       0.000000
      0.001890       0.000233       0.000000
      0.001986       0.000293       0.000000
      0.002043       0.000345       0.000000
      0.001970       0.000324       0.000000
      0.001927       0.000275       0.000000
      0.001890       0.000233       0.000000
      0.001927       0.000275       0.000000
      0.001864       0.000262       0.000000
      0.001837       0.000221       0.000000
      0.001927       0.000275       0.000000
      0.001970       0.000324       0.000000
      0.001893       0.000310       0.000000
      0.001864       0.000262       0.000000
      0.001489       0.000229       0.000000
      0.001575       0.000322       0.000000
      0.001772       0.000323       0.000000
      0.001650       0.000210       0.000000
      0.001575       0.000322       0.000000
      0.001652       0.000417       0.000000
      0.001894       0.000458       0.000000
      0.001772       0.000323       0.000000
      0.001650       0.000210       0.000000
      0.001772       0.000323       0.000000
      0.001901       0.000286       0.000000
      0.001748       0.000166       0.000000
      0.001772       0.000323       0.000000
      0.001894       0.000458       0.000000
      0.002088       0.000465       0.000000
      0.001901       0.000286       0.000000
      0.001901       0.000286       0.000000
      0.001991       0.000368       0.000000
      0.002023       0.000336       0.000000
      0.001923       0.000253       0.000000
      0.001991       0.000368       0.000000
      0.002088       0.000465       0.000000
      0.002141       0.000443       0.000000
      0.002023       0.000336       0.000000
      0.001923       0.000253       0.000000
      0.002023       0.000336       0.000000
      0.002007       0.000293       0.000000
      0.001909       0.000214       0.000000
      0.002023       0.000336       0.000000
      0.002141       0.000443       0.000000
      0.002134       0.000400       0.000000
      0.002007       0.000293       0.000000
      0.000000       0.000000       0.000000
      0.000000       0.000000       0.000000
      0.000569       0.000161       0.000000
      0.000573       0.000151       0.000000
      0.000000       0.000000       0.000000
      0.000000       0.000000       0.000000
      0.000568       0.000134       0.000000
      0.000569       0.000161       0.000000
      0.000573       0.000151       0.000000
      0.000569       0.000161       0.000000
      0.001154       0.000324       0.000000
      0.001124       0.000295       0.000000
      0.000569       0.000161       0.000000
      0.000568       0.000134       0.000000
      0.001192       0.000254       0.000000
      0.001154       0.000324       0.000000
      0.000000       0.000000       0.000000
      0.000000       0.000000       0.000000
      0.000585       0.000089       0.000000
      0.000568       0.000134       0.000000
      0.000000       0.000000       0.000000
      0.000000       0.000000       0.000000
      0.000613       0.000050       0.000000
      0.000585       0.000089       0.000000
      0.000568       0.000134       0.000000
      0.000585       0.000089       0.000000
      0.001257       0.000152       0.000000
      0.001192       0.000254       0.000000
      0.000585       0.000089       0.000000
      0.000613       0.000050       0.000000
      0.001327       0.000074       0.000000
      0.001257       0.000152       0.000000
      0.000000       0.000000       0.000000
      0.000000       0.000000       0.000000
      0.000636       0.000021       0.000000
      0.000613       0.000050       0.000000
      0.000000       0.000000       0.000000
      0.000000       0.000000       0.000000
      0.000645       0.000000       0.000000
      0.000636       0.000021       0.000000
      0.000613       0.000050       0.000000
      0.000636       0.000021       0.000000
      0.001377       0.000028       0.000000
      0.001327       0.000074       0.000000
      0.000636       0.000021       0.000000
      0.000645       0.000000       0.000000
      0.001395       0.000000       0.000000
      0.001377       0.000028       0.000000
      0.001124       0.000295       0.000000
      0.001154       0.000324       0.000000
      0.001761       0.000484       0.000000
      0.001652       0.000417       0.000000
      0.001154       0.000324       0.000000
      0.001192       0.000254       0.000000
      0.001892       0.000329       0.000000
      0.001761       0.000484       0.000000
      0.001761       0.000484       0.000000
      0.001892       0.000329       0.000000
      0.002807       0.000298       0.000000
      0.002440       0.000630       0.000000
      0.001192       0.000254       0.000000
      0.001257       0.000152       0.000000
      0.002051       0.000162       0.000000
      0.001892       0.000329       0.000000
      0.001257       0.000152       0.000000
      0.001327       0.000074       0.000000
      0.002178       0.000064       0.000000
      0.002051       0.000162       0.000000
      0.001892       0.000329       0.000000
      0.002051       0.000162       0.000000
      0.003068       0.000103       0.000000
      0.002807       0.000298       0.000000
      0.002051       0.000162       0.000000
      0.002178       0.000064       0.000000
      0.003217       0.000022       0.000000
      0.003068       0.000103       0.000000
      0.001327       0.000074       0.000000
      0.001377       0.000028       0.000000
      0.002254       0.000019       0.000000
      0.002178       0.000064       0.000000
      0.001377       0.000028       0.000000
      0.001395       0.000000       0.000000
      0.002279       0.000000       0.000000