# vtk DataFile Version 2.0
time_10.vtk
ASCII
DATASET UNSTRUCTURED_GRID
POINTS  1152 float
      0.000000       0.000000       0.000000
      0.083333       0.000000       0.000000
      0.083333       0.083333       0.000000
      0.000000       0.083333       0.000000
      0.083333       0.000000       0.000000
      0.166667       0.000000       0.000000
      0.166667       0.083333       0.000000
      0.083333       0.083333       0.000000
      0.000000       0.083333       0.000000
      0.083333       0.083333       0.000000
      0.083333       0.166667       0.000000
      0.000000       0.166667       0.000000
      0.083333       0.083333       0.000000
      0.166667       0.083333       0.000000
      0.166667       0.166667       0.000000
      0.083333       0.166667       0.000000
      0.166667       0.000000       0.000000
      0.250000       0.000000       0.000000
      0.250000       0.083333       0.000000
      0.166667       0.083333       0.000000
      0.250000       0.000000       0.000000
      0.333333       0.000000       0.000000
      0.333333       0.083333       0.000000
      0.250000       0.083333       0.000000
      0.166667       0.083333       0.000000
      0.250000       0.083333       0.000000
      0.250000       0.166667       0.000000
      0.166667       0.166667       0.000000
      0.250000       0.083333       0.000000
      0.333333       0.083333       0.000000
      0.333333       0.166667       0.000000
      0.250000       0.166667       0.000000
      0.333333       0.000000       0.000000
      0.416667      -0.000000       0.000000
      0.416667       0.083333       0.000000
      0.333333       0.083333       0.000000
      0.416667      -0.000000       0.000000
      0.500000       0.000000       0.000000
      0.500000       0.083333       0.000000
      0.416667       0.083333       0.000000
      0.333333       0.083333       0.000000
      0.416667       0.083333       0.000000
      0.416667       0.166667       0.000000
      0.333333       0.166667       0.000000
      0.416667       0.083333       0.000000
      0.500000       0.083333       0.000000
      0.500000       0.166667       0.000000
      0.416667       0.166667       0.000000
      0.000000       0.166667       0.000000
      0.083333       0.166667       0.000000
      0.083333       0.250000       0.000000
      0.000000       0.250000       0.000000
      0.083333       0.166667       0.000000
      0.166667       0.166667       0.000000
      0.166667       0.250000       0.000000
      0.083333       0.250000       0.000000
      0.000000       0.250000       0.000000
      0.083333       0.250000       0.000000
      0.083333       0.333333       0.000000
      0.000000       0.333333       0.000000
      0.083333       0.250000       0.000000
      0.166667       0.250000       0.000000
      0.166667       0.333333       0.000000
      0.083333       0.333333       0.000000
      0.166667       0.166667       0.000000
      0.250000       0.166667       0.000000
      0.250000       0.250000       0.000000
      0.166667       0.250000       0.000000
      0.250000       0.166667       0.000000
      0.333333       0.166667       0.000000
      0.333333       0.250000       0.000000
      0.250000       0.250000       0.000000
      0.166667       0.250000       0.000000
      0.250000       0.250000       0.000000
      0.250000       0.333333       0.000000
      0.166667       0.333333       0.000000
      0.250000       0.250000       0.000000
      0.333333       0.250000       0.000000
      0.333333       0.333333       0.000000
      0.250000       0.333333       0.000000
      0.333333       0.166667       0.000000
      0.416667       0.166667       0.000000
      0.416667       0.250000       0.000000
      0.333333       0.250000       0.000000
      0.416667       0.166667       0.000000
      0.500000       0.166667       0.000000
      0.500000       0.250000       0.000000
      0.416667       0.250000       0.000000
      0.333333       0.250000       0.000000
      0.416667       0.250000       0.000000
      0.416667       0.333333       0.000000
      0.333333       0.333333       0.000000
      0.416667       0.250000       0.000000
      0.500000       0.250000       0.000000
      0.500000       0.333333       0.000000
      0.416667       0.333333       0.000000
      0.000000       0.333333       0.000000
      0.083333       0.333333       0.000000
      0.083333       0.416667       0.000000
     -0.000000       0.416667       0.000000
      0.083333       0.333333       0.000000
      0.166667       0.333333       0.000000
      0.166667       0.416667       0.000000
      0.083333       0.416667       0.000000
     -0.000000       0.416667       0.000000
      0.083333       0.416667       0.000000
      0.083333       0.500000       0.000000
      0.000000       0.500000       0.000000
      0.083333       0.416667       0.000000
      0.166667       0.416667       0.000000
      0.166667       0.500000       0.000000
      0.083333       0.500000       0.000000
      0.166667       0.333333       0.000000
      0.250000       0.333333       0.000000
      0.250000       0.416667       0.000000
      0.166667       0.416667       0.000000
      0.250000       0.333333       0.000000
      0.333333       0.333333       0.000000
      0.333333       0.416667       0.000000
      0.250000       0.416667       0.000000
      0.166667       0.416667       0.000000
      0.250000       0.416667       0.000000
      0.250000       0.500000       0.000000
      0.166667       0.500000       0.000000
      0.250000       0.416667       0.000000
      0.333333       0.416667       0.000000
      0.333333       0.500000       0.000000
      0.250000       0.500000       0.000000
      0.333333       0.333333       0.000000
      0.375000       0.333333       0.000000
      0.375000       0.375000       0.000000
      0.333333       0.375000       0.000000
      0.375000       0.333333       0.000000
      0.416667       0.333333       0.000000
      0.416667       0.375000       0.000000
      0.375000       0.375000       0.000000
      0.333333       0.375000       0.000000
      0.375000       0.375000       0.000000
      0.375000       0.416667       0.000000
      0.333333       0.416667       0.000000
      0.375000       0.375000       0.000000
      0.416667       0.375000       0.000000
      0.416667       0.416667       0.000000
      0.375000       0.416667       0.000000
      0.416667       0.333333       0.000000
      0.458333       0.333333       0.000000
      0.458333       0.375000       0.000000
      0.416667       0.375000       0.000000
      0.458333       0.333333       0.000000
      0.500000       0.333333       0.000000
      0.500000       0.375000       0.000000
      0.458333       0.375000       0.000000
      0.416667       0.375000       0.000000
      0.458333       0.375000       0.000000
      0.458333       0.416667       0.000000
      0.416667       0.416667       0.000000
      0.458333       0.375000       0.000000
      0.500000       0.375000       0.000000
      0.500000       0.416667       0.000000
      0.458333       0.416667       0.000000
      0.333333       0.416667       0.000000
      0.375000       0.416667       0.000000
      0.375000       0.458333       0.000000
      0.333333       0.458333       0.000000
      0.375000       0.416667       0.000000
      0.416667       0.416667       0.000000
      0.416667       0.458333       0.000000
      0.375000       0.458333       0.000000
      0.333333       0.458333       0.000000
      0.375000       0.458333       0.000000
      0.375000       0.500000       0.000000
      0.333333       0.500000       0.000000
      0.375000       0.458333       0.000000
      0.416667       0.458333       0.000000
      0.416667       0.500000       0.000000
      0.375000       0.500000       0.000000
      0.416667       0.416667       0.000000
      0.437500       0.416667       0.000000
      0.437500       0.437500       0.000000
      0.416667       0.437500       0.000000
      0.437500       0.416667       0.000000
      0.458333       0.416667       0.000000
      0.458333       0.437500       0.000000
      0.437500       0.437500       0.000000
      0.416667       0.437500       0.000000
      0.437500       0.437500       0.000000
      0.437500       0.458333       0.000000
      0.416667       0.458333       0.000000
      0.437500       0.437500       0.000000
      0.458333       0.437500       0.000000
      0.458333       0.458333       0.000000
      0.437500       0.458333       0.000000
      0.458333       0.416667       0.000000
      0.479167       0.416667       0.000000
      0.479167       0.437500       0.000000
      0.458333       0.437500       0.000000
      0.479167       0.416667       0.000000
      0.500000       0.416667       0.000000
      0.500000       0.437500       0.000000
      0.479167       0.437500       0.000000
      0.458333       0.437500       0.000000
      0.479167       0.437500       0.000000
      0.479167       0.458333       0.000000
      0.458333       0.458333       0.000000
      0.479167       0.437500       0.000000
      0.500000       0.437500       0.000000
      0.500000       0.458333       0.000000
      0.479167       0.458333       0.000000
      0.416667       0.458333       0.000000
      0.437500       0.458333       0.000000
      0.437500       0.479167       0.000000
      0.416667       0.479167       0.000000
      0.437500       0.458333       0.000000
      0.458333       0.458333       0.000000
      0.458333       0.479167       0.000000
      0.437500       0.479167       0.000000
      0.416667       0.479167       0.000000
      0.437500       0.479167       0.000000
      0.437500       0.500000       0.000000
      0.416667       0.500000       0.000000
[...]
POINT_DATA  1152
VECTORS U float 
      0.000000       0.000000       0.000000
      0.000000       0.000000       0.000000
      0.000510       0.000018       0.000000
      0.000506       0.000000       0.000000
      0.000000       0.000000       0.000000
      0.000000       0.000000       0.000000
      0.000522       0.000037       0.000000
      0.000510       0.000018       0.000000
      0.000506       0.000000       0.000000
      0.000510       0.000018       0.000000
      0.000954       0.000029       0.000000
      0.000945       0.000000       0.000000
      0.000510       0.000018       0.000000
      0.000522       0.000037       0.000000
      0.000979       0.000062       0.000000
      0.000954       0.000029       0.000000
      0.000000       0.000000       0.000000
      0.000000       0.000000       0.000000
      0.000537       0.000060       0.000000
      0.000522       0.000037       0.000000
      0.000000       0.000000       0.000000
      0.000000       0.000000       0.000000
      0.000550       0.000085       0.000000
      0.000537       0.000060       0.000000
      0.000522       0.000037       0.000000
      0.000537       0.000060       0.000000
      0.001016       0.000105       0.000000
      0.000979       0.000062       0.000000
      0.000537       0.000060       0.000000
      0.000550       0.000085       0.000000
      0.001057       0.000158       0.000000
      0.001016       0.000105       0.000000
      0.000000       0.000000       0.000000
      0.000000       0.000000       0.000000
      0.000556       0.000108       0.000000
      0.000550       0.000085       0.000000
      0.000000       0.000000       0.000000
      0.000000       0.000000       0.000000
      0.000553       0.000119       0.000000
      0.000556       0.000108       0.000000
      0.000550       0.000085       0.000000
      0.000556       0.000108       0.000000
      0.001089       0.000210       0.000000
      0.001057       0.000158       0.000000
      0.000556       0.000108       0.000000
      0.000553       0.000119       0.000000
      0.001107       0.000238       0.000000
      0.001089       0.000210       0.000000
      0.000945       0.000000       0.000000
      0.000954       0.000029       0.000000
      0.001316       0.000031       0.000000
      0.001302       0.000000       0.000000
      0.000954       0.000029       0.000000
      0.000979       0.000062       0.000000
      0.001358       0.000070       0.000000
      0.001316       0.000031       0.000000
      0.001302       0.000000       0.000000
      0.001316       0.000031       0.000000
      0.001584       0.000025       0.000000
      0.001565       0.000000       0.000000
      0.001316       0.000031       0.000000
      0.001358       0.000070       0.000000
      0.001641       0.000058       0.000000
      0.001584       0.000025       0.000000
      0.000979       0.000062       0.000000
      0.001016       0.000105       0.000000
      0.001425       0.000125       0.000000
      0.001358       0.000070       0.000000
      0.001016       0.000105       0.000000
      0.001057       0.000158       0.000000
      0.001511       0.000202       0.000000
      0.001425       0.000125       0.000000
      0.001358       0.000070       0.000000
      0.001425       0.000125       0.000000
      0.001738       0.000111       0.000000
      0.001641       0.000058       0.000000
      0.001425       0.000125       0.000000
      0.001511       0.000202       0.000000
      0.001880       0.000196       0.000000
      0.001738       0.000111       0.000000
      0.001057       0.000158       0.000000
      0.001089       0.000210       0.000000
      0.001598       0.000293       0.000000
      0.001511       0.000202       0.000000
      0.001089       0.000210       0.000000
      0.001107       0.000238       0.000000
      0.001664       0.000353       0.000000
      0.001598       0.000293       0.000000
      0.001511       0.000202       0.000000
      0.001598       0.000293       0.000000
      0.002060       0.000328       0.000000
      0.001880       0.000196       0.000000
      0.001598       0.000293       0.000000
      0.001664       0.000353       0.000000
      0.002227       0.000458       0.000000
      0.002060       0.000328       0.000000
      0.001565       0.000000       0.000000
      0.001584       0.000025       0.000000
      0.001747       0.000010       0.000000
      0.001726       0.000000       0.000000
      0.001584       0.000025       0.000000
      0.001641       0.000058       0.000000
      0.001811       0.000029       0.000000
      0.001747       0.000010       0.000000
      0.001726       0.000000       0.000000
      0.001747       0.000010       0.000000
      0.001802      -0.000007       0.000000
      0.001783       0.000000       0.000000
      0.001747       0.000010       0.000000
      0.001811       0.000029       0.000000
      0.001862      -0.000007       0.000000
      0.001802      -0.000007       0.000000
      0.001641       0.000058       0.000000
      0.001738       0.000111       0.000000
      0.001924       0.000064       0.000000
      0.001811       0.000029       0.000000
      0.001738       0.000111       0.000000
      0.001880       0.000196       0.000000
      0.002098       0.000129       0.000000
      0.001924       0.000064       0.000000
      0.001811       0.000029       0.000000
      0.001924       0.000064       0.000000
      0.001967       0.000007       0.000000
      0.001862      -0.000007       0.000000
      0.001924       0.000064       0.000000
      0.002098       0.000129       0.000000
      0.002125       0.000043       0.000000
      0.001967       0.000007       0.000000
      0.001880       0.000196       0.000000
      0.001967       0.000256       0.000000
      0.002120       0.000229       0.000000
      0.002012       0.000169       0.000000
      0.001967       0.000256       0.000000
      0.002060       0.000328       0.000000
      0.002247       0.000310       0.000000
      0.002120       0.000229       0.000000
      0.002012       0.000169       0.000000
      0.002120       0.000229       0.000000
      0.002217       0.000180       0.000000
      0.002098       0.000129       0.000000
      0.002120       0.000229       0.000000
      0.002247       0.000310       0.000000
      0.002368       0.000257       0.000000
      0.002217       0.000180       0.000000
      0.002060       0.000328       0.000000
      0.002150       0.000406       0.000000
      0.002385       0.000416       0.000000
      0.002247       0.000310       0.000000
      0.002150       0.000406       0.000000
      0.002227       0.000458       0.000000
      0.002510       0.000506       0.000000
      0.002385       0.000416       0.000000
      0.002247       0.000310       0.000000
      0.002385       0.000416       0.000000
      0.002565       0.000383       0.000000
      0.002368       0.000257       0.000000
      0.002385       0.000416       0.000000
      0.002510       0.000506       0.000000
      0.002787       0.000548       0.000000
      0.002565       0.000383       0.000000
      0.002098       0.000129       0.000000
      0.002217       0.000180       0.000000
      0.002247       0.000123       0.000000
      0.002133       0.000085       0.000000
      0.002217       0.000180       0.000000
      0.002368       0.000257       0.000000
      0.002388       0.000179       0.000000
      0.002247       0.000123       0.000000
      0.002133       0.000085       0.000000
      0.002247       0.000123       0.000000
      0.002225       0.000073       0.000000
      0.002125       0.000043       0.000000
      0.002247       0.000123       0.000000
      0.002388       0.000179       0.000000
      0.002334       0.000119       0.000000
      0.002225       0.000073       0.000000
      0.002368       0.000257       0.000000
      0.002461       0.000312       0.000000
      0.002488       0.000269       0.000000
      0.002392       0.000219       0.000000
      0.002461       0.000312       0.000000
      0.002565       0.000383       0.000000
      0.002606       0.000340       0.000000
      0.002488       0.000269       0.000000
      0.002392       0.000219       0.000000
      0.002488       0.000269       0.000000
      0.002476       0.000221       0.000000
      0.002388       0.000179       0.000000
      0.002488       0.000269       0.000000
      0.002606       0.000340       0.000000
      0.002588       0.000281       0.000000
      0.002476       0.000221       0.000000
      0.002565       0.000383       0.000000
      0.002677       0.000469       0.000000
      0.002750       0.000442       0.000000
      0.002606       0.000340       0.000000
      0.002677       0.000469       0.000000
      0.002787       0.000548       0.000000
      0.002914       0.000560       0.000000
      0.002750       0.000442       0.000000
      0.002606       0.000340       0.000000
      0.002750       0.000442       0.000000
      0.002749       0.000383       0.000000
      0.002588       0.000281       0.000000
      0.002750       0.000442       0.000000
      0.002914       0.000560       0.000000
      0.003013       0.000554       0.000000
      0.002749       0.000383       0.000000
      0.002388       0.000179       0.000000
      0.002476       0.000221       0.000000
      0.002434       0.000180       0.000000
      0.002364       0.000146       0.000000
      0.002476       0.000221       0.000000
      0.002588       0.000281       0.000000
      0.002515       0.000228       0.000000
      0.002434       0.000180       0.000000
      0.002364       0.000146       0.000000
      0.002434       0.000180       0.000000
      0.002388       0.000152       0.000000
      0.002334       0.000119       0.000000
      0.002434       0.000180       0.000000
      0.002515       0.000228       0.000000
      0.002439       0.000198       0.000000
      0.002388       0.000152       0.000000
      0.002588       0.000281       0.000000
      0.002660       0.000325       0.000000
      0.002620       0.000290       0.000000
      0.002556       0.000252       0.000000
      0.002660       0.000325       0.000000
      0.002749       0.000383       0.000000
      0.002703       0.000342       0.000000
      0.002620       0.000290       0.000000
      0.002556       0.000252       0.000000
      0.002620       0.000290       0.000000
      0.002564       0.000261       0.000000
      0.002515       0.000228       0.000000
      0.002620       0.000290       0.000000
      0.002703       0.000342       0.000000
      0.002626       0.000305       0.000000
      0.002564       0.000261       0.000000
      0.002749       0.000383       0.000000
      0.002865       0.000461       0.000000
      0.002824       0.000417       0.000000
      0.002703       0.000342       0.000000
      0.002865       0.000461       0.000000
      0.003013       0.000554       0.000000
      0.003027       0.000530       0.000000
      0.002824       0.000417       0.000000
      0.002703       0.000342       0.000000
      0.002824       0.000417       0.000000
      0.002722       0.000366       0.000000
      0.002626       0.000305       0.000000
      0.002824       0.000417       0.000000
      0.003027       0.000530       0.000000
      0.002955       0.000469       0.000000
      0.002722       0.000366       0.000000
      0.002515       0.000228       0.000000
      0.002564       0.000261       0.000000
      0.002505       0.000241       0.000000
      0.002473       0.000210       0.000000
      0.002564       0.000261       0.000000
      0.002626       0.000305       0.000000
      0.002542       0.000280       0.000000
      0.002505       0.000241       0.000000
      0.002473       0.000210       0.000000
      0.002505       0.000241       0.000000
      0.002461       0.000230       0.000000
      0.002439       0.000198       0.000000
      0.002505       0.000241       0.000000
      0.002542       0.000280       0.000000
      0.002484       0.000271       0.000000
      0.002461       0.000230       0.000000
      0.002626       0.000305       0.000000
      0.002722       0.000366       0.000000
      0.002590       0.000331       0.000000
      0.002542       0.000280       0.000000
      0.002722       0.000366       0.000000
      0.002955       0.000469       0.000000
      0.002675       0.000340       0.000000
      0.002590       0.000331       0.000000
      0.002542       0.000280       0.000000
      0.002590       0.000331       0.000000
      0.002529       0.000331       0.000000
      0.002484       0.000271       0.000000
      0.002590       0.000331       0.000000
      0.002675       0.000340       0.000000
      0.006197       0.000450       0.000000
      0.002529       0.000331       0.000000
      0.000000       0.000000       0.000000
      0.000000       0.000000       0.000000
      0.000548       0.000110       0.000000
      0.000553       0.000119       0.000000
      0.000000       0.000000       0.000000
      0.000000       0.000000       0.000000
      0.000552       0.000085       0.000000
      0.000548       0.000110       0.000000
      0.000553       0.000119       0.000000
      0.000548       0.000110       0.000000
      0.001121       0.000217       0.000000
      0.001107       0.000238       0.000000
      0.000548       0.000110       0.000000
      0.000552       0.000085       0.000000
      0.001149       0.000159       0.000000
      0.001121       0.000217       0.000000
      0.000000       0.000000       0.000000
      0.000000       0.000000       0.000000
      0.000566       0.000056       0.000000
      0.000552       0.000085       0.000000
      0.000000       0.000000       0.000000
      0.000000       0.000000       0.000000
      0.000584       0.000032       0.000000
      0.000566       0.000056       0.000000
      0.000552       0.000085       0.000000
      0.000566       0.000056       0.000000
      0.001191       0.000096       0.000000
      0.001149       0.000159       0.000000
      0.000566       0.000056       0.000000
      0.000584       0.000032       0.000000
      0.001235       0.000049       0.000000
      0.001191       0.000096       0.000000
      0.000000       0.000000       0.000000
      0.000000       0.000000       0.000000
      0.000599       0.000014       0.000000
      0.000584       0.000032       0.000000
      0.000000       0.000000       0.000000
      0.000000       0.000000       0.000000
      0.000605       0.000000       0.000000
      0.000599       0.000014       0.000000
      0.000584       0.000032       0.000000
      0.000599       0.000014       0.000000
      0.001265       0.000020       0.000000
      0.001235       0.000049       0.000000
      0.000599       0.000014       0.000000
      0.000605       0.000000       0.000000
      0.001276       0.000000       0.000000
      0.001265       0.000020       0.000000
      0.001107       0.000238       0.000000
      0.001121       0.000217       0.000000
      0.001720       0.000313       0.000000
      0.001664       0.000353       0.000000
      0.001121       0.000217       0.000000
      0.001149       0.000159       0.000000
      0.001799       0.000204       0.000000
      0.001720       0.000313       0.000000
      0.001664       0.000353       0.000000
      0.001720       0.000313       0.000000
      0.002370       0.000380       0.000000
      0.002227       0.000458       0.000000
      0.001720       0.000313       0.000000
      0.001799       0.000204       0.000000
      0.002549       0.000196       0.000000
      0.002370       0.000380       0.000000
      0.001149       0.000159       0.000000
      0.001191       0.000096       0.000000
      0.001891       0.000106       0.000000
      0.001799       0.000204       0.000000
      0.001191       0.000096       0.000000
      0.001235       0.000049       0.000000
      0.001967       0.000045       0.000000
      0.001891       0.000106       0.000000
      0.001799       0.000204       0.000000
      0.001891       0.000106       0.000000
      0.002705       0.000074       0.000000
      0.002549       0.000196       0.000000
      0.001891       0.000106       0.000000
      0.001967       0.000045       0.000000
      0.002810       0.000017       0.000000
      0.002705       0.000074       0.000000
      0.001235       0.000049       0.000000
      0.001265       0.000020       0.000000
      0.002016       0.000015       0.000000
      0.001967       0.000045       0.000000
      0.001265       0.000020       0.000000
      0.001276       0.000000       0.000000
      0.002032       0.000000       0.000000
      0.002016       0.000015       0.000000
      0.001967       0.000045       0.000000
      0.002016       0.000015       0.000000
      0.002867      -0.000000       0.000000
      0.002810       0.000017       0.000000
      0.002016       0.000015       0.000000
      0.002032       0.000000       0.000000
      0.002886       0.000000       0.000000
      0.002867      -0.000000       0.000000
      0.002549       0.000196       0.000000
      0.002705       0.000074       0.000000
      0.003701       0.000010       0.000000
      0.003539       0.000107       0.000000
      0.002705       0.000074       0.000000
      0.002810       0.000017       0.000000
      0.003782      -0.000020       0.000000
      0.003701       0.000010       0.000000
      0.003539       0.000107       0.000000
      0.003701       0.000010       0.000000
      0.004866      -0.000019       0.000000
      0.004902       0.000046       0.000000
      0.003701       0.000010       0.000000
      0.003782      -0.000020       0.000000
      0.004850      -0.000034       0.000000
      0.004866      -0.000019       0.000000
      0.002810       0.000017       0.000000
      0.002867      -0.000000       0.000000
      0.003822      -0.000017       0.000000
      0.003782      -0.000020       0.000000
      0.002867      -0.000000       0.000000
      0.002886       0.000000       0.000000
      0.003834       0.000000       0.000000
      0.003822      -0.000017       0.000000
      0.003782      -0.000020       0.000000
      0.003822      -0.000017       0.000000
      0.004843      -0.000023       0.000000
      0.004850      -0.000034       0.000000
      0.003822      -0.000017       0.000000
      0.003834       0.000000       0.000000
      0.004840       0.000000       0.000000
      0.004843      -0.000023       0.000000
      0.002227       0.000458       0.000000
      0.002295       0.000450       0.000000
      0.002619       0.000497       0.000000
      0.002510       0.000506       0.000000
      0.002295       0.000450       0.000000
      0.002370       0.000380       0.000000
      0.002743       0.000388       0.000000
      0.002619       0.000497       0.000000
      0.002510       0.000506       0.000000
      0.002619       0.000497       0.000000
      0.002995       0.000531       0.000000
      0.002787       0.000548       0.000000
      0.002619       0.000497       0.000000
      0.002743       0.000388       0.000000
      0.003217       0.000354       0.000000
      0.002995       0.000531       0.000000
      0.002370       0.000380       0.000000
      0.002458       0.000286       0.000000
      0.002877       0.000262       0.000000
      0.002743       0.000388       0.000000
      0.002458       0.000286       0.000000
      0.002549       0.000196       0.000000
      0.003000       0.000161       0.000000
      0.002877       0.000262       0.000000
      0.002743       0.000388       0.000000
      0.002877       0.000262       0.000000
      0.003404       0.000204       0.000000