# vtk DataFile Version 2.0
time_10.vtk
ASCII
DATASET UNSTRUCTURED_GRID
POINTS  1344 float
      0.000000       0.000000       0.000000
      0.083333       0.000000       0.000000
      0.083333       0.083333       0.000000
      0.000000       0.083333       0.000000
      0.083333       0.000000       0.000000
      0.166667       0.000000       0.000000
      0.166667       0.083333       0.000000
      0.083333       0.083333       0.000000
      0.000000       0.083333       0.000000
      0.083333       0.083333       0.000000
      0.083333       0.166667       0.000000
      0.000000       0.166667       0.000000
      0.083333       0.083333       0.000000
      0.166667       0.083333       0.000000
      0.166667       0.166667       0.000000
      0.083333       0.166667       0.000000
      0.166667       0.000000       0.000000
      0.250000       0.000000       0.000000
      0.250000       0.083333       0.000000
      0.166667       0.083333       0.000000
      0.250000       0.000000       0.000000
      0.333333       0.000000       0.000000
      0.333333       0.083333       0.000000
      0.250000       0.083333       0.000000
      0.166667       0.083333       0.000000
      0.250000       0.083333       0.000000
      0.250000       0.166667       0.000000
      0.166667       0.166667       0.000000
      0.250000       0.083333       0.000000
      0.333333       0.083333       0.000000
      0.333333       0.166667       0.000000
      0.250000       0.166667       0.000000
      0.333333       0.000000       0.000000
      0.416667      -0.000000       0.000000
      0.416667       0.083333       0.000000
      0.333333       0.083333       0.000000
      0.416667      -0.000000       0.000000
      0.500000       0.000000       0.000000
      0.500000       0.083333       0.000000
      0.416667       0.083333       0.000000
      0.333333       0.083333       0.000000
      0.416667       0.083333       0.000000
      0.416667       0.166667       0.000000
      0.333333       0.166667       0.000000
      0.416667       0.083333       0.000000
      0.500000       0.083333       0.000000
      0.500000       0.166667       0.000000
      0.416667       0.166667       0.000000
      0.000000       0.166667       0.000000
      0.083333       0.166667       0.000000
      0.083333       0.250000       0.000000
      0.000000       0.250000       0.000000
      0.083333       0.166667       0.000000
      0.166667       0.166667       0.000000
      0.166667       0.250000       0.000000
      0.083333       0.250000       0.000000
      0.000000       0.250000       0.000000
      0.083333       0.250000       0.000000
      0.083333       0.333333       0.000000
      0.000000       0.333333       0.000000
      0.083333       0.250000       0.000000
      0.166667       0.250000       0.000000
      0.166667       0.333333       0.000000
      0.083333       0.333333       0.000000
      0.166667       0.166667       0.000000
      0.250000       0.166667       0.000000
      0.250000       0.250000       0.000000
      0.166667       0.250000       0.000000
      0.250000       0.166667       0.000000
      0.333333       0.166667       0.000000
      0.333333       0.250000       0.000000
      0.250000       0.250000       0.000000
      0.166667       0.250000       0.000000
      0.250000       0.250000       0.000000
      0.250000       0.333333       0.000000
      0.166667       0.333333       0.000000
      0.250000       0.250000       0.000000
      0.333333       0.250000       0.000000
      0.333333       0.333333       0.000000
      0.250000       0.333333       0.000000
      0.333333       0.166667       0.000000
      0.416667       0.166667       0.000000
      0.416667       0.250000       0.000000
      0.333333       0.250000       0.000000
      0.416667       0.166667       0.000000
      0.500000       0.166667       0.000000
      0.500000       0.250000       0.000000
      0.416667       0.250000       0.000000
      0.333333       0.250000       0.000000
      0.416667       0.250000       0.000000
      0.416667       0.333333       0.000000
      0.333333       0.333333       0.000000
      0.416667       0.250000       0.000000
      0.500000       0.250000       0.000000
      0.500000       0.333333       0.000000
      0.416667       0.333333       0.000000
      0.000000       0.333333       0.000000
      0.083333       0.333333       0.000000
      0.083333       0.416667       0.000000
     -0.000000       0.416667       0.000000
      0.083333       0.333333       0.000000
      0.166667       0.333333       0.000000
      0.166667       0.416667       0.000000
      0.083333       0.416667       0.000000
     -0.000000       0.416667       0.000000
      0.083333       0.416667       0.000000
      0.083333       0.500000       0.000000
      0.000000       0.500000       0.000000
      0.083333       0.416667       0.000000
      0.166667       0.416667       0.000000
      0.166667       0.500000       0.000000
      0.083333       0.500000       0.000000
      0.166667       0.333333       0.000000
      0.250000       0.333333       0.000000
      0.250000       0.416667       0.000000
      0.166667       0.416667       0.000000
      0.250000       0.333333       0.000000
      0.333333       0.333333       0.000000
      0.333333       0.416667       0.000000
      0.250000       0.416667       0.000000
      0.166667       0.416667       0.000000
      0.250000       0.416667       0.000000
      0.250000       0.500000       0.000000
      0.166667       0.500000       0.000000
      0.250000       0.416667       0.000000
      0.333333       0.416667       0.000000
      0.333333       0.500000       0.000000
      0.250000       0.500000       0.000000
      0.333333       0.333333       0.000000
      0.375000       0.333333       0.000000
      0.375000       0.375000       0.000000
      0.333333       0.375000       0.000000
      0.375000       0.333333       0.000000
      0.416667       0.333333       0.000000
      0.416667       0.375000       0.000000
      0.375000       0.375000       0.000000
      0.333333       0.375000       0.000000
      0.375000       0.375000       0.000000
      0.375000       0.416667       0.000000
      0.333333       0.416667       0.000000
      0.375000       0.375000       0.000000
      0.416667       0.375000       0.000000
      0.416667       0.416667       0.000000
      0.375000       0.416667       0.000000
      0.416667       0.333333       0.000000
      0.458333       0.333333       0.000000
      0.458333       0.375000       0.000000
      0.416667       0.375000       0.000000
      0.458333       0.333333       0.000000
      0.500000       0.333333       0.000000
      0.500000       0.375000       0.000000
      0.458333       0.375000       0.000000
      0.416667       0.375000       0.000000
      0.458333       0.375000       0.000000
      0.458333       0.416667       0.000000
      0.416667       0.416667       0.000000
      0.333333       0.416667       0.000000
      0.375000       0.416667       0.000000
      0.375000       0.458333       0.000000
      0.333333       0.458333       0.000000
      0.375000       0.416667       0.000000
      0.416667       0.416667       0.000000
      0.416667       0.458333       0.000000
      0.375000       0.458333       0.000000
      0.333333       0.458333       0.000000
      0.375000       0.458333       0.000000
      0.375000       0.500000       0.000000
      0.333333       0.500000       0.000000
      0.375000       0.458333       0.000000
      0.416667       0.458333       0.000000
      0.416667       0.500000       0.000000
      0.375000       0.500000       0.000000
      0.416667       0.416667       0.000000
      0.437500       0.416667       0.000000
      0.437500       0.437500       0.000000
      0.416667       0.437500       0.000000
      0.437500       0.416667       0.000000
      0.458333       0.416667       0.000000
      0.458333       0.437500       0.000000
      0.437500       0.437500       0.000000
      0.416667       0.437500       0.000000
      0.437500       0.437500       0.000000
      0.437500       0.458333       0.000000
      0.416667       0.458333       0.000000
      0.437500       0.437500       0.000000
      0.458333       0.437500       0.000000
      0.458333       0.458333       0.000000
      0.437500       0.458333       0.000000
      0.458333       0.416667       0.000000
      0.479167       0.416667       0.000000
      0.479167       0.437500       0.000000
      0.458333       0.437500       0.000000
      0.458333       0.437500       0.000000
      0.479167       0.437500       0.000000
      0.479167       0.458333       0.000000
      0.458333       0.458333       0.000000
      0.416667       0.458333       0.000000
      0.437500       0.458333       0.000000
      0.437500       0.479167       0.000000
      0.416667       0.479167       0.000000
      0.437500       0.458333       0.000000
      0.458333       0.458333       0.000000
      0.458333       0.479167       0.000000
      0.437500       0.479167       0.000000
      0.416667       0.479167       0.000000
      0.437500       0.479167       0.000000
      0.437500       0.500000       0.000000
      0.416667       0.500000       0.000000
      0.437500       0.479167       0.000000
      0.458333       0.479167       0.000000
      0.458333       0.500000       0.000000
      0.437500       0.500000       0.000000
      0.458333       0.458333       0.000000
      0.468750       0.458333       0.000000
      0.468750       0.468750       0.000000
      0.458333       0.468750       0.000000
      0.468750       0.458333       0.000000
      0.479167       0.458333       0.000000
      0.479167       0.468750       0.000000
      0.468750       0.468750       0.000000
[...]
POINT_DATA  1344
VECTORS U float 
      0.000000       0.000000       0.000000
      0.000000       0.000000       0.000000
      0.000440       0.000010       0.000000
      0.000433       0.000000       0.000000
      0.000000       0.000000       0.000000
      0.000000       0.000000       0.000000
      0.000462       0.000023       0.000000
      0.000440       0.000010       0.000000
      0.000433       0.000000       0.000000
      0.000440       0.000010       0.000000
      0.000814       0.000010       0.000000
      0.000801       0.000000       0.000000
      0.000440       0.000010       0.000000
      0.000462       0.000023       0.000000
      0.000853       0.000026       0.000000
      0.000814       0.000010       0.000000
      0.000000       0.000000       0.000000
      0.000000       0.000000       0.000000
      0.000495       0.000043       0.000000
      0.000462       0.000023       0.000000
      0.000000       0.000000       0.000000
      0.000000       0.000000       0.000000
      0.000532       0.000074       0.000000
      0.000495       0.000043       0.000000
      0.000462       0.000023       0.000000
      0.000495       0.000043       0.000000
      0.000915       0.000059       0.000000
      0.000853       0.000026       0.000000
      0.000495       0.000043       0.000000
      0.000532       0.000074       0.000000
      0.000993       0.000117       0.000000
      0.000915       0.000059       0.000000
      0.000000       0.000000       0.000000
      0.000000       0.000000       0.000000
      0.000560       0.000113       0.000000
      0.000532       0.000074       0.000000
      0.000000       0.000000       0.000000
      0.000000       0.000000       0.000000
      0.000570       0.000146       0.000000
      0.000560       0.000113       0.000000
      0.000532       0.000074       0.000000
      0.000560       0.000113       0.000000
      0.001071       0.000203       0.000000
      0.000993       0.000117       0.000000
      0.000560       0.000113       0.000000
      0.000570       0.000146       0.000000
      0.001123       0.000289       0.000000
      0.001071       0.000203       0.000000
      0.000801       0.000000       0.000000
      0.000814       0.000010       0.000000
      0.001107       0.000001       0.000000
      0.001091       0.000000       0.000000
      0.000814       0.000010       0.000000
      0.000853       0.000026       0.000000
      0.001157       0.000011       0.000000
      0.001107       0.000001       0.000000
      0.001091       0.000000       0.000000
      0.001107       0.000001       0.000000
      0.001312      -0.000012       0.000000
      0.001296       0.000000       0.000000
      0.001107       0.000001       0.000000
      0.001157       0.000011       0.000000
      0.001363      -0.000016       0.000000
      0.001312      -0.000012       0.000000
      0.000853       0.000026       0.000000
      0.000915       0.000059       0.000000
      0.001242       0.000043       0.000000
      0.001157       0.000011       0.000000
      0.000915       0.000059       0.000000
      0.000993       0.000117       0.000000
      0.001365       0.000114       0.000000
      0.001242       0.000043       0.000000
      0.001157       0.000011       0.000000
      0.001242       0.000043       0.000000
      0.001454       0.000000       0.000000
      0.001363      -0.000016       0.000000
      0.001242       0.000043       0.000000
      0.001365       0.000114       0.000000
      0.001598       0.000058       0.000000
      0.001454       0.000000       0.000000
      0.000993       0.000117       0.000000
      0.001071       0.000203       0.000000
      0.001518       0.000246       0.000000
      0.001365       0.000114       0.000000
      0.001071       0.000203       0.000000
      0.001123       0.000289       0.000000
      0.001660       0.000414       0.000000
      0.001518       0.000246       0.000000
      0.001365       0.000114       0.000000
      0.001518       0.000246       0.000000
      0.001819       0.000197       0.000000
      0.001598       0.000058       0.000000
      0.001518       0.000246       0.000000
      0.001660       0.000414       0.000000
      0.002137       0.000488       0.000000
      0.001819       0.000197       0.000000
      0.001296       0.000000       0.000000
      0.001312      -0.000012       0.000000
      0.001436      -0.000026       0.000000
      0.001423       0.000000       0.000000
      0.001312      -0.000012       0.000000
      0.001363      -0.000016       0.000000
      0.001477      -0.000045       0.000000
      0.001436      -0.000026       0.000000
      0.001423       0.000000       0.000000
      0.001436      -0.000026       0.000000
      0.001495      -0.000036       0.000000
      0.001485       0.000000       0.000000
      0.001436      -0.000026       0.000000
      0.001477      -0.000045       0.000000
      0.001522      -0.000064       0.000000
      0.001495      -0.000036       0.000000
      0.001363      -0.000016       0.000000
      0.001454       0.000000       0.000000
      0.001548      -0.000047       0.000000
      0.001477      -0.000045       0.000000
      0.001454       0.000000       0.000000
      0.001598       0.000058       0.000000
      0.001655      -0.000018       0.000000
      0.001548      -0.000047       0.000000
      0.001477      -0.000045       0.000000
      0.001548      -0.000047       0.000000
      0.001564      -0.000077       0.000000
      0.001522      -0.000064       0.000000
      0.001548      -0.000047       0.000000
      0.001655      -0.000018       0.000000
      0.001609      -0.000056       0.000000
      0.001564      -0.000077       0.000000
      0.001598       0.000058       0.000000
      0.001697       0.000114       0.000000
      0.001741       0.000065       0.000000
      0.001647       0.000018       0.000000
      0.001697       0.000114       0.000000
      0.001819       0.000197       0.000000
      0.001861       0.000138       0.000000
      0.001741       0.000065       0.000000
      0.001647       0.000018       0.000000
      0.001741       0.000065       0.000000
      0.001727       0.000019       0.000000
      0.001655      -0.000018       0.000000
      0.001741       0.000065       0.000000
      0.001861       0.000138       0.000000
      0.001815       0.000081       0.000000
      0.001727       0.000019       0.000000
      0.001819       0.000197       0.000000
      0.001969       0.000322       0.000000
      0.002022       0.000255       0.000000
      0.001861       0.000138       0.000000
      0.001969       0.000322       0.000000
      0.002137       0.000488       0.000000
      0.002259       0.000456       0.000000
      0.002022       0.000255       0.000000
      0.001861       0.000138       0.000000
      0.002022       0.000255       0.000000
      0.001926       0.000181       0.000000
      0.001815       0.000081       0.000000
      0.001655      -0.000018       0.000000
      0.001727       0.000019       0.000000
      0.001679      -0.000010       0.000000
      0.001636      -0.000043       0.000000
      0.001727       0.000019       0.000000
      0.001815       0.000081       0.000000
      0.001723       0.000050       0.000000
      0.001679      -0.000010       0.000000
      0.001636      -0.000043       0.000000
      0.001679      -0.000010       0.000000
      0.001625      -0.000022       0.000000
      0.001609      -0.000056       0.000000
      0.001679      -0.000010       0.000000
      0.001723       0.000050       0.000000
      0.001631       0.000041       0.000000
      0.001625      -0.000022       0.000000
      0.001815       0.000081       0.000000
      0.001867       0.000125       0.000000
      0.001807       0.000105       0.000000
      0.001771       0.000062       0.000000
      0.001867       0.000125       0.000000
      0.001926       0.000181       0.000000
      0.001844       0.000160       0.000000
      0.001807       0.000105       0.000000
      0.001771       0.000062       0.000000
      0.001807       0.000105       0.000000
      0.001744       0.000094       0.000000
      0.001723       0.000050       0.000000
      0.001807       0.000105       0.000000
      0.001844       0.000160       0.000000
      0.001763       0.000151       0.000000
      0.001744       0.000094       0.000000
      0.001926       0.000181       0.000000
      0.001996       0.000253       0.000000
      0.001882       0.000231       0.000000
      0.001844       0.000160       0.000000
      0.001844       0.000160       0.000000
      0.001882       0.000231       0.000000
      0.001780       0.000224       0.000000
      0.001763       0.000151       0.000000
      0.001723       0.000050       0.000000
      0.001744       0.000094       0.000000
      0.001685       0.000089       0.000000
      0.001675       0.000043       0.000000
      0.001744       0.000094       0.000000
      0.001763       0.000151       0.000000
      0.001693       0.000148       0.000000
      0.001685       0.000089       0.000000
      0.001675       0.000043       0.000000
      0.001685       0.000089       0.000000
      0.001631       0.000087       0.000000
      0.001631       0.000041       0.000000
      0.001685       0.000089       0.000000
      0.001693       0.000148       0.000000
      0.001629       0.000147       0.000000
      0.001631       0.000087       0.000000
      0.001763       0.000151       0.000000
      0.001772       0.000185       0.000000
      0.001732       0.000183       0.000000
      0.001727       0.000149       0.000000
      0.001772       0.000185       0.000000
      0.001780       0.000224       0.000000
      0.001738       0.000222       0.000000
      0.001732       0.000183       0.000000
      0.001727       0.000149       0.000000
      0.001732       0.000183       0.000000
      0.001697       0.000182       0.000000
      0.001693       0.000148       0.000000
      0.001732       0.000183       0.000000
      0.001738       0.000222       0.000000
      0.001700       0.000219       0.000000
      0.001697       0.000182       0.000000
      0.001780       0.000224       0.000000
      0.001789       0.000269       0.000000
      0.001745       0.000265       0.000000
      0.001738       0.000222       0.000000
      0.001789       0.000269       0.000000
      0.001800       0.000320       0.000000
      0.001760       0.000322       0.000000
      0.001745       0.000265       0.000000
      0.001738       0.000222       0.000000
      0.001745       0.000265       0.000000
      0.001707       0.000261       0.000000
      0.001700       0.000219       0.000000
      0.001745       0.000265       0.000000
      0.001760       0.000322       0.000000
      0.001712       0.000322       0.000000
      0.001707       0.000261       0.000000
      0.001693       0.000148       0.000000
      0.001697       0.000182       0.000000
      0.001663       0.000181       0.000000
      0.001661       0.000147       0.000000
      0.001697       0.000182       0.000000
      0.001700       0.000219       0.000000
      0.001666       0.000217       0.000000
      0.001663       0.000181       0.000000
      0.001661       0.000147       0.000000
      0.001663       0.000181       0.000000
      0.001630       0.000181       0.000000
      0.001629       0.000147       0.000000
      0.001663       0.000181       0.000000
      0.001666       0.000217       0.000000
      0.001636       0.000219       0.000000
      0.001630       0.000181       0.000000
      0.001700       0.000219       0.000000
      0.001707       0.000261       0.000000
      0.001671       0.000252       0.000000
      0.001666       0.000217       0.000000
      0.001707       0.000261       0.000000
      0.001712       0.000322       0.000000
      0.001448       0.000262       0.000000
      0.001671       0.000252       0.000000
      0.001666       0.000217       0.000000
      0.001671       0.000252       0.000000
      0.001679       0.000264       0.000000
      0.001636       0.000219       0.000000
      0.001671       0.000252       0.000000
      0.001448       0.000262       0.000000
      0.007372       0.000662       0.000000
      0.001679       0.000264       0.000000
      0.001882       0.000231       0.000000
      0.001901       0.000276       0.000000
      0.001841       0.000272       0.000000
      0.001828       0.000227       0.000000
      0.001901       0.000276       0.000000
      0.001922       0.000328       0.000000
      0.001855       0.000325       0.000000
      0.001841       0.000272       0.000000
      0.001828       0.000227       0.000000
      0.001841       0.000272       0.000000
      0.001789       0.000269       0.000000
      0.001780       0.000224       0.000000
      0.001841       0.000272       0.000000
      0.001855       0.000325       0.000000
      0.001800       0.000320       0.000000
      0.001789       0.000269       0.000000
      0.002022       0.000255       0.000000
      0.002128       0.000341       0.000000
      0.002089       0.000294       0.000000
      0.001991       0.000215       0.000000
      0.002128       0.000341       0.000000
      0.002259       0.000456       0.000000
      0.002223       0.000404       0.000000
      0.002089       0.000294       0.000000
      0.001991       0.000215       0.000000
      0.002089       0.000294       0.000000
      0.001996       0.000253       0.000000
      0.001926       0.000181       0.000000
      0.001996       0.000253       0.000000
      0.002038       0.000297       0.000000
      0.001969       0.000283       0.000000
      0.001939       0.000240       0.000000
      0.002038       0.000297       0.000000
      0.002089       0.000350       0.000000
      0.002003       0.000335       0.000000
      0.001969       0.000283       0.000000
      0.001939       0.000240       0.000000
      0.001969       0.000283       0.000000
      0.001901       0.000276       0.000000
      0.001882       0.000231       0.000000
      0.001969       0.000283       0.000000
      0.002003       0.000335       0.000000
      0.001922       0.000328       0.000000
      0.001901       0.000276       0.000000
      0.002089       0.000294       0.000000
      0.002150       0.000344       0.000000
      0.002101       0.000318       0.000000
      0.002048       0.000271       0.000000
      0.002150       0.000344       0.000000
      0.002223       0.000404       0.000000
      0.002167       0.000375       0.000000
      0.002101       0.000318       0.000000
      0.002048       0.000271       0.000000
      0.002101       0.000318       0.000000
      0.002038       0.000297       0.000000
      0.001996       0.000253       0.000000
      0.002101       0.000318       0.000000
      0.002167       0.000375       0.000000
      0.002089       0.000350       0.000000
      0.002038       0.000297       0.000000
      0.000000       0.000000       0.000000
      0.000000       0.000000       0.000000
      0.000565       0.000153       0.000000
      0.000570       0.000146       0.000000
      0.000000       0.000000       0.000000
      0.000000       0.000000       0.000000
      0.000565       0.000126       0.000000
      0.000565       0.000153       0.000000
      0.000570       0.000146       0.000000
      0.000565       0.000153       0.000000
      0.001149       0.000307       0.000000
      0.001123       0.000289       0.000000
      0.000565       0.000153       0.000000
      0.000565       0.000126       0.000000
      0.001184       0.000237       0.000000
      0.001149       0.000307       0.000000
      0.000000       0.000000       0.000000
      0.000000       0.000000       0.000000
      0.000581       0.000084       0.000000
      0.000565       0.000126       0.000000
      0.000000       0.000000       0.000000
      0.000000       0.000000       0.000000
      0.000607       0.000047       0.000000
      0.000581       0.000084       0.000000
      0.000565       0.000126       0.000000
      0.000581       0.000084       0.000000
      0.001245       0.000143       0.000000
      0.001184       0.000237       0.000000
      0.000581       0.000084       0.000000
      0.000607       0.000047       0.000000
      0.001310       0.000071       0.000000
      0.001245       0.000143       0.000000
      0.000000       0.000000       0.000000
      0.000000       0.000000       0.000000
      0.000629       0.000020       0.000000
      0.000607       0.000047       0.000000
      0.000000       0.000000       0.000000
      0.000000       0.000000       0.000000
      0.000637       0.000000       0.000000
      0.000629       0.000020       0.000000
      0.000607       0.000047       0.000000
      0.000629       0.000020       0.000000
      0.001356       0.000027       0.000000
      0.001310       0.000071       0.000000
      0.000629       0.000020       0.000000
      0.000637       0.000000       0.000000
      0.001372       0.000000       0.000000
      0.001356       0.000027       0.000000
      0.001123       0.000289       0.000000
      0.001149       0.000307       0.000000
      0.001755       0.000455       0.000000
      0.001660       0.000414       0.000000
      0.001149       0.000307       0.000000
      0.001184       0.000237       0.000000
      0.001875       0.000308       0.000000
      0.001755       0.000455       0.000000
      0.001660       0.000414       0.000000
      0.001755       0.000455       0.000000
      0.002427       0.000587       0.000000
      0.002137       0.000488       0.000000
      0.001755       0.000455       0.000000
      0.001875       0.000308       0.000000
      0.002750       0.000284       0.000000
      0.002427       0.000587       0.000000
      0.001184       0.000237       0.000000
      0.001245       0.000143       0.000000
      0.002020       0.000154       0.000000
      0.001875       0.000308       0.000000
      0.001245       0.000143       0.000000
      0.001310       0.000071       0.000000
      0.002138       0.000062       0.000000
      0.002020       0.000154       0.000000
      0.001875       0.000308       0.000000
      0.002020       0.000154       0.000000
      0.002995       0.000100       0.000000
      0.002750       0.000284       0.000000
      0.002020       0.000154       0.000000
      0.002138       0.000062       0.000000
      0.003140       0.000022       0.000000
      0.002995       0.000100       0.000000
      0.001310       0.000071       0.000000
      0.001356       0.000027       0.000000
      0.002209       0.000019       0.000000
      0.002138       0.000062       0.000000
      0.001356       0.000027       0.000000
      0.001372       0.000000       0.000000
      0.002233       0.000000       0.000000
      0.002209       0.000019       0.000000
      0.002138       0.000062       0.000000
      0.002209       0.000019       0.000000
      0.003215      -0.000001       0.000000
      0.003140       0.000022       0.000000
      0.002209       0.000019       0.000000
      0.002233       0.000000       0.000000
      0.003238       0.000000       0.000000
      0.003215      -0.000001       0.000000
      0.002750       0.000284       0.000000
      0.002995       0.000100       0.000000
      0.004272       0.000027       0.000000
      0.004144       0.000161       0.000000
      0.002995       0.000100       0.000000
      0.003140       0.000022       0.000000
      0.004334      -0.000017       0.000000
      0.004272       0.000027       0.000000
      0.004144       0.000161       0.000000
      0.004272       0.000027       0.000000
      0.005696       0.000045       0.000000