# vtk DataFile Version 2.0
time_10.vtk
ASCII
DATASET UNSTRUCTURED_GRID
POINTS  1152 float
      0.000000       0.000000       0.000000
      0.083333       0.000000       0.000000
      0.083333       0.083333       0.000000
      0.000000       0.083333       0.000000
      0.083333       0.000000       0.000000
      0.166667       0.000000       0.000000
      0.166667       0.083333       0.000000
      0.083333       0.083333       0.000000
      0.000000       0.083333       0.000000
      0.083333       0.083333       0.000000
      0.083333       0.166667       0.000000
      0.000000       0.166667       0.000000
      0.083333       0.083333       0.000000
      0.166667       0.083333       0.000000
      0.166667       0.166667       0.000000
      0.083333       0.166667       0.000000
      0.166667       0.000000       0.000000
      0.250000       0.000000       0.000000
      0.250000       0.083333       0.000000
      0.166667       0.083333       0.000000
      0.250000       0.000000       0.000000
      0.333333       0.000000       0.000000
      0.333333       0.083333       0.000000
      0.250000       0.083333       0.000000
      0.166667       0.083333       0.000000
      0.250000       0.083333       0.000000
      0.250000       0.166667       0.000000
      0.166667       0.166667       0.000000
      0.250000       0.083333       0.000000
      0.333333       0.083333       0.000000
      0.333333       0.166667       0.000000
      0.250000       0.166667       0.000000
      0.333333       0.000000       0.000000
      0.416667      -0.000000       0.000000
      0.416667       0.083333       0.000000
      0.333333       0.083333       0.000000
      0.416667      -0.000000       0.000000
      0.500000       0.000000       0.000000
      0.500000       0.083333       0.000000
      0.416667       0.083333       0.000000
      0.333333       0.083333       0.000000
      0.416667       0.083333       0.000000
      0.416667       0.166667       0.000000
      0.333333       0.166667       0.000000
      0.416667       0.083333       0.000000
      0.500000       0.083333       0.000000
      0.500000       0.166667       0.000000
      0.416667       0.166667       0.000000
      0.000000       0.166667       0.000000
      0.083333       0.166667       0.000000
      0.083333       0.250000       0.000000
      0.000000       0.250000       0.000000
      0.083333       0.166667       0.000000
      0.166667       0.166667       0.000000
      0.166667       0.250000       0.000000
      0.083333       0.250000       0.000000
      0.000000       0.250000       0.000000
      0.083333       0.250000       0.000000
      0.083333       0.333333       0.000000
      0.000000       0.333333       0.000000
      0.083333       0.250000       0.000000
      0.166667       0.250000       0.000000
      0.166667       0.333333       0.000000
      0.083333       0.333333       0.000000
      0.166667       0.166667       0.000000
      0.250000       0.166667       0.000000
      0.250000       0.250000       0.000000
      0.166667       0.250000       0.000000
      0.250000       0.166667       0.000000
      0.333333       0.166667       0.000000
      0.333333       0.250000       0.000000
      0.250000       0.250000       0.000000
      0.166667       0.250000       0.000000
      0.250000       0.250000       0.000000
      0.250000       0.333333       0.000000
      0.166667       0.333333       0.000000
      0.250000       0.250000       0.000000
      0.333333       0.250000       0.000000
      0.333333       0.333333       0.000000
      0.250000       0.333333       0.000000
      0.333333       0.166667       0.000000
      0.416667       0.166667       0.000000
      0.416667       0.250000       0.000000
      0.333333       0.250000       0.000000
      0.416667       0.166667       0.000000
      0.500000       0.166667       0.000000
      0.500000       0.250000       0.000000
      0.416667       0.250000       0.000000
      0.333333       0.250000       0.000000
      0.416667       0.250000       0.000000
      0.416667       0.333333       0.000000
      0.333333       0.333333       0.000000
      0.416667       0.250000       0.000000
      0.500000       0.250000       0.000000
      0.500000       0.333333       0.000000
      0.416667       0.333333       0.000000
      0.000000       0.333333       0.000000
      0.083333       0.333333       0.000000
      0.083333       0.416667       0.000000
     -0.000000       0.416667       0.000000
      0.083333       0.333333       0.000000
      0.166667       0.333333       0.000000
      0.166667       0.416667       0.000000
      0.083333       0.416667       0.000000
     -0.000000       0.416667       0.000000
      0.083333       0.416667       0.000000
      0.083333       0.500000       0.000000
      0.000000       0.500000       0.000000
      0.083333       0.416667       0.000000
      0.166667       0.416667       0.000000
      0.166667       0.500000       0.000000
      0.083333       0.500000       0.000000
      0.166667       0.333333       0.000000
      0.250000       0.333333       0.000000
      0.250000       0.416667       0.000000
      0.166667       0.416667       0.000000
      0.250000       0.333333       0.000000
      0.333333       0.333333       0.000000
      0.333333       0.416667       0.000000
      0.250000       0.416667       0.000000
      0.166667       0.416667       0.000000
      0.250000       0.416667       0.000000
      0.250000       0.500000       0.000000
      0.166667       0.500000       0.000000
      0.250000       0.416667       0.000000
      0.333333       0.416667       0.000000
      0.333333       0.500000       0.000000
      0.250000       0.500000       0.000000
      0.333333       0.333333       0.000000
      0.375000       0.333333       0.000000
      0.375000       0.375000       0.000000
      0.333333       0.375000       0.000000
      0.375000       0.333333       0.000000
      0.416667       0.333333       0.000000
      0.416667       0.375000       0.000000
      0.375000       0.375000       0.000000
      0.333333       0.375000       0.000000
      0.375000       0.375000       0.000000
      0.375000       0.416667       0.000000
      0.333333       0.416667       0.000000
      0.375000       0.375000       0.000000
      0.416667       0.375000       0.000000
      0.416667       0.416667       0.000000
      0.375000       0.416667       0.000000
      0.416667       0.333333       0.000000
      0.458333       0.333333       0.000000
      0.458333       0.375000       0.000000
      0.416667       0.375000       0.000000
      0.458333       0.333333       0.000000
      0.500000       0.333333       0.000000
      0.500000       0.375000       0.000000
      0.458333       0.375000       0.000000
      0.416667       0.375000       0.000000
      0.458333       0.375000       0.000000
      0.458333       0.416667       0.000000
      0.416667       0.416667       0.000000
      0.458333       0.375000       0.000000
      0.500000       0.375000       0.000000
      0.500000       0.416667       0.000000
      0.458333       0.416667       0.000000
      0.333333       0.416667       0.000000
      0.375000       0.416667       0.000000
      0.375000       0.458333       0.000000
      0.333333       0.458333       0.000000
      0.375000       0.416667       0.000000
      0.416667       0.416667       0.000000
      0.416667       0.458333       0.000000
      0.375000       0.458333       0.000000
      0.333333       0.458333       0.000000
      0.375000       0.458333       0.000000
      0.375000       0.500000       0.000000
      0.333333       0.500000       0.000000
      0.375000       0.458333       0.000000
      0.416667       0.458333       0.000000
      0.416667       0.500000       0.000000
      0.375000       0.500000       0.000000
      0.416667       0.416667       0.000000
      0.437500       0.416667       0.000000
      0.437500       0.437500       0.000000
      0.416667       0.437500       0.000000
      0.437500       0.416667       0.000000
      0.458333       0.416667       0.000000
      0.458333       0.437500       0.000000
      0.437500       0.437500       0.000000
      0.416667       0.437500       0.000000
      0.437500       0.437500       0.000000
      0.437500       0.458333       0.000000
      0.416667       0.458333       0.000000
      0.437500       0.437500       0.000000
      0.458333       0.437500       0.000000
      0.458333       0.458333       0.000000
      0.437500       0.458333       0.000000
      0.458333       0.416667       0.000000
      0.479167       0.416667       0.000000
      0.479167       0.437500       0.000000
      0.458333       0.437500       0.000000
      0.479167       0.416667       0.000000
      0.500000       0.416667       0.000000
      0.500000       0.437500       0.000000
      0.479167       0.437500       0.000000
      0.458333       0.437500       0.000000
      0.479167       0.437500       0.000000
      0.479167       0.458333       0.000000
      0.458333       0.458333       0.000000
      0.479167       0.437500       0.000000
      0.500000       0.437500       0.000000
      0.500000       0.458333       0.000000
      0.479167       0.458333       0.000000
      0.416667       0.458333       0.000000
      0.437500       0.458333       0.000000
      0.437500       0.479167       0.000000
      0.416667       0.479167       0.000000
      0.437500       0.458333       0.000000
      0.458333       0.458333       0.000000
      0.458333       0.479167       0.000000
      0.437500       0.479167       0.000000
      0.416667       0.479167       0.000000
      0.437500       0.479167       0.000000
      0.437500       0.500000       0.000000
      0.416667       0.500000       0.000000
[...]
POINT_DATA  1152
VECTORS U float 
      0.000000       0.000000       0.000000
      0.000000       0.000000       0.000000
      0.000509       0.000020       0.000000
      0.000507       0.000000       0.000000
      0.000000       0.000000       0.000000
      0.000000       0.000000       0.000000
      0.000514       0.000042       0.000000
      0.000509       0.000020       0.000000
      0.000507       0.000000       0.000000
      0.000509       0.000020       0.000000
      0.000955       0.000036       0.000000
      0.000949       0.000000       0.000000
      0.000509       0.000020       0.000000
      0.000514       0.000042       0.000000
      0.000972       0.000076       0.000000
      0.000955       0.000036       0.000000
      0.000000       0.000000       0.000000
      0.000000       0.000000       0.000000
      0.000520       0.000063       0.000000
      0.000514       0.000042       0.000000
      0.000000       0.000000       0.000000
      0.000000       0.000000       0.000000
      0.000523       0.000083       0.000000
      0.000520       0.000063       0.000000
      0.000514       0.000042       0.000000
      0.000520       0.000063       0.000000
      0.000994       0.000119       0.000000
      0.000972       0.000076       0.000000
      0.000520       0.000063       0.000000
      0.000523       0.000083       0.000000
      0.001015       0.000162       0.000000
      0.000994       0.000119       0.000000
      0.000000       0.000000       0.000000
      0.000000       0.000000       0.000000
      0.000520       0.000096       0.000000
      0.000523       0.000083       0.000000
      0.000000       0.000000       0.000000
      0.000000       0.000000       0.000000
      0.000515       0.000095       0.000000
      0.000520       0.000096       0.000000
      0.000523       0.000083       0.000000
      0.000520       0.000096       0.000000
      0.001029       0.000191       0.000000
      0.001015       0.000162       0.000000
      0.000520       0.000096       0.000000
      0.000515       0.000095       0.000000
      0.001038       0.000191       0.000000
      0.001029       0.000191       0.000000
      0.000949       0.000000       0.000000
      0.000955       0.000036       0.000000
      0.001327       0.000045       0.000000
      0.001315       0.000000       0.000000
      0.000955       0.000036       0.000000
      0.000972       0.000076       0.000000
      0.001361       0.000096       0.000000
      0.001327       0.000045       0.000000
      0.001315       0.000000       0.000000
      0.001327       0.000045       0.000000
      0.001608       0.000042       0.000000
      0.001589       0.000000       0.000000
      0.001327       0.000045       0.000000
      0.001361       0.000096       0.000000
      0.001663       0.000094       0.000000
      0.001608       0.000042       0.000000
      0.000972       0.000076       0.000000
      0.000994       0.000119       0.000000
      0.001413       0.000156       0.000000
      0.001361       0.000096       0.000000
      0.000994       0.000119       0.000000
      0.001015       0.000162       0.000000
      0.001473       0.000223       0.000000
      0.001413       0.000156       0.000000
      0.001361       0.000096       0.000000
      0.001413       0.000156       0.000000
      0.001754       0.000161       0.000000
      0.001663       0.000094       0.000000
      0.001413       0.000156       0.000000
      0.001473       0.000223       0.000000
      0.001876       0.000248       0.000000
      0.001754       0.000161       0.000000
      0.001015       0.000162       0.000000
      0.001029       0.000191       0.000000
      0.001527       0.000277       0.000000
      0.001473       0.000223       0.000000
      0.001029       0.000191       0.000000
      0.001038       0.000191       0.000000
      0.001571       0.000280       0.000000
      0.001527       0.000277       0.000000
      0.001473       0.000223       0.000000
      0.001527       0.000277       0.000000
      0.002009       0.000339       0.000000
      0.001876       0.000248       0.000000
      0.001527       0.000277       0.000000
      0.001571       0.000280       0.000000
      0.002122       0.000359       0.000000
      0.002009       0.000339       0.000000
      0.001589       0.000000       0.000000
      0.001608       0.000042       0.000000
      0.001778       0.000029       0.000000
      0.001755       0.000000       0.000000
      0.001608       0.000042       0.000000
      0.001663       0.000094       0.000000
      0.001850       0.000067       0.000000
      0.001778       0.000029       0.000000
      0.001755       0.000000       0.000000
      0.001778       0.000029       0.000000
      0.001827       0.000009       0.000000
      0.001804       0.000000       0.000000
      0.001778       0.000029       0.000000
      0.001850       0.000067       0.000000
      0.001899       0.000026       0.000000
      0.001827       0.000009       0.000000
      0.001663       0.000094       0.000000
      0.001754       0.000161       0.000000
      0.001976       0.000123       0.000000
      0.001850       0.000067       0.000000
      0.001754       0.000161       0.000000
      0.001876       0.000248       0.000000
      0.002168       0.000209       0.000000
      0.001976       0.000123       0.000000
      0.001850       0.000067       0.000000
      0.001976       0.000123       0.000000
      0.002031       0.000055       0.000000
      0.001899       0.000026       0.000000
      0.001976       0.000123       0.000000
      0.002168       0.000209       0.000000
      0.002245       0.000105       0.000000
      0.002031       0.000055       0.000000
      0.001876       0.000248       0.000000
      0.001943       0.000296       0.000000
      0.002136       0.000293       0.000000
      0.002041       0.000238       0.000000
      0.001943       0.000296       0.000000
      0.002009       0.000339       0.000000
      0.002235       0.000350       0.000000
      0.002136       0.000293       0.000000
      0.002041       0.000238       0.000000
      0.002136       0.000293       0.000000
      0.002292       0.000266       0.000000
      0.002168       0.000209       0.000000
      0.002136       0.000293       0.000000
      0.002235       0.000350       0.000000
      0.002436       0.000334       0.000000
      0.002292       0.000266       0.000000
      0.002009       0.000339       0.000000
      0.002069       0.000365       0.000000
      0.002330       0.000394       0.000000
      0.002235       0.000350       0.000000
      0.002069       0.000365       0.000000
      0.002122       0.000359       0.000000
      0.002414       0.000393       0.000000
      0.002330       0.000394       0.000000
      0.002235       0.000350       0.000000
      0.002330       0.000394       0.000000
      0.002590       0.000405       0.000000
      0.002436       0.000334       0.000000
      0.002330       0.000394       0.000000
      0.002414       0.000393       0.000000
      0.002728       0.000422       0.000000
      0.002590       0.000405       0.000000
      0.002168       0.000209       0.000000
      0.002292       0.000266       0.000000
      0.002388       0.000211       0.000000
      0.002240       0.000162       0.000000
      0.002292       0.000266       0.000000
      0.002436       0.000334       0.000000
      0.002576       0.000276       0.000000
      0.002388       0.000211       0.000000
      0.002240       0.000162       0.000000
      0.002388       0.000211       0.000000
      0.002398       0.000139       0.000000
      0.002245       0.000105       0.000000
      0.002388       0.000211       0.000000
      0.002576       0.000276       0.000000
      0.002599       0.000181       0.000000
      0.002398       0.000139       0.000000
      0.002436       0.000334       0.000000
      0.002513       0.000371       0.000000
      0.002612       0.000352       0.000000
      0.002517       0.000311       0.000000
      0.002513       0.000371       0.000000
      0.002590       0.000405       0.000000
      0.002713       0.000396       0.000000
      0.002612       0.000352       0.000000
      0.002517       0.000311       0.000000
      0.002612       0.000352       0.000000
      0.002689       0.000317       0.000000
      0.002576       0.000276       0.000000
      0.002612       0.000352       0.000000
      0.002713       0.000396       0.000000
      0.002820       0.000369       0.000000
      0.002689       0.000317       0.000000
      0.002590       0.000405       0.000000
      0.002661       0.000426       0.000000
      0.002811       0.000432       0.000000
      0.002713       0.000396       0.000000
      0.002661       0.000426       0.000000
      0.002728       0.000422       0.000000
      0.002903       0.000433       0.000000
      0.002811       0.000432       0.000000
      0.002713       0.000396       0.000000
      0.002811       0.000432       0.000000
      0.002964       0.000425       0.000000
      0.002820       0.000369       0.000000
      0.002811       0.000432       0.000000
      0.002903       0.000433       0.000000
      0.003103       0.000442       0.000000
      0.002964       0.000425       0.000000
      0.002576       0.000276       0.000000
      0.002689       0.000317       0.000000
      0.002732       0.000266       0.000000
      0.002604       0.000231       0.000000
      0.002689       0.000317       0.000000
      0.002820       0.000369       0.000000
      0.002891       0.000313       0.000000
      0.002732       0.000266       0.000000
      0.002604       0.000231       0.000000
      0.002732       0.000266       0.000000
      0.002730       0.000206       0.000000
      0.002599       0.000181       0.000000
      0.002732       0.000266       0.000000
      0.002891       0.000313       0.000000
      0.002899       0.000232       0.000000
      0.002730       0.000206       0.000000
      0.002820       0.000369       0.000000
      0.002891       0.000398       0.000000
      0.002947       0.000377       0.000000
      0.002862       0.000345       0.000000
      0.002891       0.000398       0.000000
      0.002964       0.000425       0.000000
      0.003039       0.000413       0.000000
      0.002947       0.000377       0.000000
      0.002862       0.000345       0.000000
      0.002947       0.000377       0.000000
      0.002990       0.000345       0.000000
      0.002891       0.000313       0.000000
      0.002947       0.000377       0.000000
      0.003039       0.000413       0.000000
      0.003108       0.000386       0.000000
      0.002990       0.000345       0.000000
      0.002964       0.000425       0.000000
      0.003035       0.000443       0.000000
      0.003132       0.000442       0.000000
      0.003039       0.000413       0.000000
      0.003035       0.000443       0.000000
      0.003103       0.000442       0.000000
      0.003223       0.000443       0.000000
      0.003132       0.000442       0.000000
      0.003039       0.000413       0.000000
      0.003132       0.000442       0.000000
      0.003240       0.000433       0.000000
      0.003108       0.000386       0.000000
      0.003132       0.000442       0.000000
      0.003223       0.000443       0.000000
      0.003373       0.000442       0.000000
      0.003240       0.000433       0.000000
      0.002891       0.000313       0.000000
      0.002990       0.000345       0.000000
      0.003013       0.000299       0.000000
      0.002904       0.000274       0.000000
      0.002990       0.000345       0.000000
      0.003108       0.000386       0.000000
      0.003157       0.000336       0.000000
      0.003013       0.000299       0.000000
      0.002904       0.000274       0.000000
      0.003013       0.000299       0.000000
      0.003011       0.000246       0.000000
      0.002899       0.000232       0.000000
      0.003013       0.000299       0.000000
      0.003157       0.000336       0.000000
      0.003165       0.000260       0.000000
      0.003011       0.000246       0.000000
      0.003108       0.000386       0.000000
      0.003240       0.000433       0.000000
      0.003361       0.000401       0.000000
      0.003157       0.000336       0.000000
      0.003240       0.000433       0.000000
      0.003373       0.000442       0.000000
      0.003605       0.000432       0.000000
      0.003361       0.000401       0.000000
      0.003157       0.000336       0.000000
      0.003361       0.000401       0.000000
      0.003427       0.000277       0.000000
      0.003165       0.000260       0.000000
      0.003361       0.000401       0.000000
      0.003605       0.000432       0.000000
      0.004366       0.000344       0.000000
      0.003427       0.000277       0.000000
      0.000000       0.000000       0.000000
      0.000000       0.000000       0.000000
      0.000514       0.000081       0.000000
      0.000515       0.000095       0.000000
      0.000000       0.000000       0.000000
      0.000000       0.000000       0.000000
      0.000522       0.000059       0.000000
      0.000514       0.000081       0.000000
      0.000515       0.000095       0.000000
      0.000514       0.000081       0.000000
      0.001054       0.000157       0.000000
      0.001038       0.000191       0.000000
      0.000514       0.000081       0.000000
      0.000522       0.000059       0.000000
      0.001083       0.000106       0.000000
      0.001054       0.000157       0.000000
      0.000000       0.000000       0.000000
      0.000000       0.000000       0.000000
      0.000537       0.000037       0.000000
      0.000522       0.000059       0.000000
      0.000000       0.000000       0.000000
      0.000000       0.000000       0.000000
      0.000554       0.000021       0.000000
      0.000537       0.000037       0.000000
      0.000522       0.000059       0.000000
      0.000537       0.000037       0.000000
      0.001120       0.000060       0.000000
      0.001083       0.000106       0.000000
      0.000537       0.000037       0.000000
      0.000554       0.000021       0.000000
      0.001156       0.000029       0.000000
      0.001120       0.000060       0.000000
      0.000000       0.000000       0.000000
      0.000000       0.000000       0.000000
      0.000566       0.000009       0.000000
      0.000554       0.000021       0.000000
      0.000000       0.000000       0.000000
      0.000000       0.000000       0.000000
      0.000571       0.000000       0.000000
      0.000566       0.000009       0.000000
      0.000554       0.000021       0.000000
      0.000566       0.000009       0.000000
      0.001180       0.000011       0.000000
      0.001156       0.000029       0.000000
      0.000566       0.000009       0.000000
      0.000571       0.000000       0.000000
      0.001188       0.000000       0.000000
      0.001180       0.000011       0.000000
      0.001038       0.000191       0.000000
      0.001054       0.000157       0.000000
      0.001621       0.000217       0.000000
      0.001571       0.000280       0.000000
      0.001054       0.000157       0.000000
      0.001083       0.000106       0.000000
      0.001690       0.000129       0.000000
      0.001621       0.000217       0.000000
      0.001571       0.000280       0.000000
      0.001621       0.000217       0.000000
      0.002240       0.000245       0.000000
      0.002122       0.000359       0.000000
      0.001621       0.000217       0.000000
      0.001690       0.000129       0.000000
      0.002374       0.000113       0.000000
      0.002240       0.000245       0.000000
      0.001083       0.000106       0.000000
      0.001120       0.000060       0.000000
      0.001761       0.000062       0.000000
      0.001690       0.000129       0.000000
      0.001120       0.000060       0.000000
      0.001156       0.000029       0.000000
      0.001818       0.000023       0.000000
      0.001761       0.000062       0.000000
      0.001690       0.000129       0.000000
      0.001761       0.000062       0.000000
      0.002484       0.000035       0.000000
      0.002374       0.000113       0.000000
      0.001761       0.000062       0.000000
      0.001818       0.000023       0.000000
      0.002557       0.000002       0.000000
      0.002484       0.000035       0.000000
      0.001156       0.000029       0.000000
      0.001180       0.000011       0.000000
      0.001854       0.000006       0.000000
      0.001818       0.000023       0.000000
      0.001180       0.000011       0.000000
      0.001188       0.000000       0.000000
      0.001866       0.000000       0.000000
      0.001854       0.000006       0.000000
      0.001818       0.000023       0.000000
      0.001854       0.000006       0.000000
      0.002598      -0.000005       0.000000
      0.002557       0.000002       0.000000
      0.001854       0.000006       0.000000
      0.001866       0.000000       0.000000
      0.002611       0.000000       0.000000
      0.002598      -0.000005       0.000000
      0.002374       0.000113       0.000000
      0.002484       0.000035       0.000000
      0.003324      -0.000011       0.000000
      0.003213       0.000048       0.000000
      0.002484       0.000035       0.000000
      0.002557       0.000002       0.000000
      0.003382      -0.000025       0.000000
      0.003324      -0.000011       0.000000
      0.003213       0.000048       0.000000
      0.003324      -0.000011       0.000000
      0.004272      -0.000036       0.000000
      0.004276      -0.000004       0.000000
      0.003324      -0.000011       0.000000
      0.003382      -0.000025       0.000000
      0.004271      -0.000038       0.000000
      0.004272      -0.000036       0.000000
      0.002557       0.000002       0.000000
      0.002598      -0.000005       0.000000
      0.003411      -0.000017       0.000000
      0.003382      -0.000025       0.000000
      0.002598      -0.000005       0.000000
      0.002611       0.000000       0.000000
      0.003420       0.000000       0.000000
      0.003411      -0.000017       0.000000
      0.003382      -0.000025       0.000000
      0.003411      -0.000017       0.000000
      0.004270      -0.000023       0.000000
      0.004271      -0.000038       0.000000
      0.003411      -0.000017       0.000000
      0.003420       0.000000       0.000000
      0.004269       0.000000       0.000000
      0.004270      -0.000023       0.000000
      0.002122       0.000359       0.000000
      0.002177       0.000314       0.000000
      0.002497       0.000330       0.000000
      0.002414       0.000393       0.000000
      0.002177       0.000314       0.000000
      0.002240       0.000245       0.000000
      0.002591       0.000237       0.000000
      0.002497       0.000330       0.000000
      0.002414       0.000393       0.000000
      0.002497       0.000330       0.000000
      0.002864       0.000327       0.000000
      0.002728       0.000422       0.000000
      0.002497       0.000330       0.000000
      0.002591       0.000237       0.000000
      0.003006       0.000201       0.000000
      0.002864       0.000327       0.000000
      0.002240       0.000245       0.000000
      0.002308       0.000174       0.000000
      0.002684       0.000151       0.000000
      0.002591       0.000237       0.000000
      0.002308       0.000174       0.000000
      0.002374       0.000113       0.000000
      0.002767       0.000086       0.000000
      0.002684       0.000151       0.000000
      0.002591       0.000237       0.000000
      0.002684       0.000151       0.000000
      0.003124       0.000108       0.000000