# vtk DataFile Version 2.0
time_10.vtk
ASCII
DATASET UNSTRUCTURED_GRID
POINTS  1152 float
      0.000000       0.000000       0.000000
      0.083333       0.000000       0.000000
      0.083333       0.083333       0.000000
      0.000000       0.083333       0.000000
      0.083333       0.000000       0.000000
      0.166667       0.000000       0.000000
      0.166667       0.083333       0.000000
      0.083333       0.083333       0.000000
      0.000000       0.083333       0.000000
      0.083333       0.083333       0.000000
      0.083333       0.166667       0.000000
      0.000000       0.166667       0.000000
      0.083333       0.083333       0.000000
      0.166667       0.083333       0.000000
      0.166667       0.166667       0.000000
      0.083333       0.166667       0.000000
      0.166667       0.000000       0.000000
      0.250000       0.000000       0.000000
      0.250000       0.083333       0.000000
      0.166667       0.083333       0.000000
      0.250000       0.000000       0.000000
      0.333333       0.000000       0.000000
      0.333333       0.083333       0.000000
      0.250000       0.083333       0.000000
      0.166667       0.083333       0.000000
      0.250000       0.083333       0.000000
      0.250000       0.166667       0.000000
      0.166667       0.166667       0.000000
      0.250000       0.083333       0.000000
      0.333333       0.083333       0.000000
      0.333333       0.166667       0.000000
      0.250000       0.166667       0.000000
      0.333333       0.000000       0.000000
      0.416667      -0.000000       0.000000
      0.416667       0.083333       0.000000
      0.333333       0.083333       0.000000
      0.416667      -0.000000       0.000000
      0.500000       0.000000       0.000000
      0.500000       0.083333       0.000000
      0.416667       0.083333       0.000000
      0.333333       0.083333       0.000000
      0.416667       0.083333       0.000000
      0.416667       0.166667       0.000000
      0.333333       0.166667       0.000000
      0.416667       0.083333       0.000000
      0.500000       0.083333       0.000000
      0.500000       0.166667       0.000000
      0.416667       0.166667       0.000000
      0.000000       0.166667       0.000000
      0.083333       0.166667       0.000000
      0.083333       0.250000       0.000000
      0.000000       0.250000       0.000000
      0.083333       0.166667       0.000000
      0.166667       0.166667       0.000000
      0.166667       0.250000       0.000000
      0.083333       0.250000       0.000000
      0.000000       0.250000       0.000000
      0.083333       0.250000       0.000000
      0.083333       0.333333       0.000000
      0.000000       0.333333       0.000000
      0.083333       0.250000       0.000000
      0.166667       0.250000       0.000000
      0.166667       0.333333       0.000000
      0.083333       0.333333       0.000000
      0.166667       0.166667       0.000000
      0.250000       0.166667       0.000000
      0.250000       0.250000       0.000000
      0.166667       0.250000       0.000000
      0.250000       0.166667       0.000000
      0.333333       0.166667       0.000000
      0.333333       0.250000       0.000000
      0.250000       0.250000       0.000000
      0.166667       0.250000       0.000000
      0.250000       0.250000       0.000000
      0.250000       0.333333       0.000000
      0.166667       0.333333       0.000000
      0.250000       0.250000       0.000000
      0.333333       0.250000       0.000000
      0.333333       0.333333       0.000000
      0.250000       0.333333       0.000000
      0.333333       0.166667       0.000000
      0.416667       0.166667       0.000000
      0.416667       0.250000       0.000000
      0.333333       0.250000       0.000000
      0.416667       0.166667       0.000000
      0.500000       0.166667       0.000000
      0.500000       0.250000       0.000000
      0.416667       0.250000       0.000000
      0.333333       0.250000       0.000000
      0.416667       0.250000       0.000000
      0.416667       0.333333       0.000000
      0.333333       0.333333       0.000000
      0.416667       0.250000       0.000000
      0.500000       0.250000       0.000000
      0.500000       0.333333       0.000000
      0.416667       0.333333       0.000000
      0.000000       0.333333       0.000000
      0.083333       0.333333       0.000000
      0.083333       0.416667       0.000000
     -0.000000       0.416667       0.000000
      0.083333       0.333333       0.000000
      0.166667       0.333333       0.000000
      0.166667       0.416667       0.000000
      0.083333       0.416667       0.000000
     -0.000000       0.416667       0.000000
      0.083333       0.416667       0.000000
      0.083333       0.500000       0.000000
      0.000000       0.500000       0.000000
      0.083333       0.416667       0.000000
      0.166667       0.416667       0.000000
      0.166667       0.500000       0.000000
      0.083333       0.500000       0.000000
      0.166667       0.333333       0.000000
      0.250000       0.333333       0.000000
      0.250000       0.416667       0.000000
      0.166667       0.416667       0.000000
      0.250000       0.333333       0.000000
      0.333333       0.333333       0.000000
      0.333333       0.416667       0.000000
      0.250000       0.416667       0.000000
      0.166667       0.416667       0.000000
      0.250000       0.416667       0.000000
      0.250000       0.500000       0.000000
      0.166667       0.500000       0.000000
      0.250000       0.416667       0.000000
      0.333333       0.416667       0.000000
      0.333333       0.500000       0.000000
      0.250000       0.500000       0.000000
      0.333333       0.333333       0.000000
      0.375000       0.333333       0.000000
      0.375000       0.375000       0.000000
      0.333333       0.375000       0.000000
      0.375000       0.333333       0.000000
      0.416667       0.333333       0.000000
      0.416667       0.375000       0.000000
      0.375000       0.375000       0.000000
      0.333333       0.375000       0.000000
      0.375000       0.375000       0.000000
      0.375000       0.416667       0.000000
      0.333333       0.416667       0.000000
      0.375000       0.375000       0.000000
      0.416667       0.375000       0.000000
      0.416667       0.416667       0.000000
      0.375000       0.416667       0.000000
      0.416667       0.333333       0.000000
      0.458333       0.333333       0.000000
      0.458333       0.375000       0.000000
      0.416667       0.375000       0.000000
      0.458333       0.333333       0.000000
      0.500000       0.333333       0.000000
      0.500000       0.375000       0.000000
      0.458333       0.375000       0.000000
      0.416667       0.375000       0.000000
      0.458333       0.375000       0.000000
      0.458333       0.416667       0.000000
      0.416667       0.416667       0.000000
      0.458333       0.375000       0.000000
      0.500000       0.375000       0.000000
      0.500000       0.416667       0.000000
      0.458333       0.416667       0.000000
      0.333333       0.416667       0.000000
      0.375000       0.416667       0.000000
      0.375000       0.458333       0.000000
      0.333333       0.458333       0.000000
      0.375000       0.416667       0.000000
      0.416667       0.416667       0.000000
      0.416667       0.458333       0.000000
      0.375000       0.458333       0.000000
      0.333333       0.458333       0.000000
      0.375000       0.458333       0.000000
      0.375000       0.500000       0.000000
      0.333333       0.500000       0.000000
      0.375000       0.458333       0.000000
      0.416667       0.458333       0.000000
      0.416667       0.500000       0.000000
      0.375000       0.500000       0.000000
      0.416667       0.416667       0.000000
      0.437500       0.416667       0.000000
      0.437500       0.437500       0.000000
      0.416667       0.437500       0.000000
      0.437500       0.416667       0.000000
      0.458333       0.416667       0.000000
      0.458333       0.437500       0.000000
      0.437500       0.437500       0.000000
      0.416667       0.437500       0.000000
      0.437500       0.437500       0.000000
      0.437500       0.458333       0.000000
      0.416667       0.458333       0.000000
      0.437500       0.437500       0.000000
      0.458333       0.437500       0.000000
      0.458333       0.458333       0.000000
      0.437500       0.458333       0.000000
      0.458333       0.416667       0.000000
      0.479167       0.416667       0.000000
      0.479167       0.437500       0.000000
      0.458333       0.437500       0.000000
      0.479167       0.416667       0.000000
      0.500000       0.416667       0.000000
      0.500000       0.437500       0.000000
      0.479167       0.437500       0.000000
      0.458333       0.437500       0.000000
      0.479167       0.437500       0.000000
      0.479167       0.458333       0.000000
      0.458333       0.458333       0.000000
      0.479167       0.437500       0.000000
      0.500000       0.437500       0.000000
      0.500000       0.458333       0.000000
      0.479167       0.458333       0.000000
      0.416667       0.458333       0.000000
      0.437500       0.458333       0.000000
      0.437500       0.479167       0.000000
      0.416667       0.479167       0.000000
      0.437500       0.458333       0.000000
      0.458333       0.458333       0.000000
      0.458333       0.479167       0.000000
      0.437500       0.479167       0.000000
      0.416667       0.479167       0.000000
      0.437500       0.479167       0.000000
      0.437500       0.500000       0.000000
      0.416667       0.500000       0.000000
[...]
POINT_DATA  1152
VECTORS U float 
      0.000000       0.000000       0.000000
      0.000000       0.000000       0.000000
      0.000508       0.000020       0.000000
      0.000506       0.000000       0.000000
      0.000000       0.000000       0.000000
      0.000000       0.000000       0.000000
      0.000513       0.000041       0.000000
      0.000508       0.000020       0.000000
      0.000506       0.000000       0.000000
      0.000508       0.000020       0.000000
      0.000954       0.000036       0.000000
      0.000948       0.000000       0.000000
      0.000508       0.000020       0.000000
      0.000513       0.000041       0.000000
      0.000970       0.000076       0.000000
      0.000954       0.000036       0.000000
      0.000000       0.000000       0.000000
      0.000000       0.000000       0.000000
      0.000519       0.000063       0.000000
      0.000513       0.000041       0.000000
      0.000000       0.000000       0.000000
      0.000000       0.000000       0.000000
      0.000522       0.000083       0.000000
      0.000519       0.000063       0.000000
      0.000513       0.000041       0.000000
      0.000519       0.000063       0.000000
      0.000992       0.000119       0.000000
      0.000970       0.000076       0.000000
      0.000519       0.000063       0.000000
      0.000522       0.000083       0.000000
      0.001013       0.000161       0.000000
      0.000992       0.000119       0.000000
      0.000000       0.000000       0.000000
      0.000000       0.000000       0.000000
      0.000519       0.000095       0.000000
      0.000522       0.000083       0.000000
      0.000000       0.000000       0.000000
      0.000000       0.000000       0.000000
      0.000514       0.000095       0.000000
      0.000519       0.000095       0.000000
      0.000522       0.000083       0.000000
      0.000519       0.000095       0.000000
      0.001027       0.000191       0.000000
      0.001013       0.000161       0.000000
      0.000519       0.000095       0.000000
      0.000514       0.000095       0.000000
      0.001036       0.000190       0.000000
      0.001027       0.000191       0.000000
      0.000948       0.000000       0.000000
      0.000954       0.000036       0.000000
      0.001325       0.000045       0.000000
      0.001314       0.000000       0.000000
      0.000954       0.000036       0.000000
      0.000970       0.000076       0.000000
      0.001359       0.000096       0.000000
      0.001325       0.000045       0.000000
      0.001314       0.000000       0.000000
      0.001325       0.000045       0.000000
      0.001605       0.000043       0.000000
      0.001587       0.000000       0.000000
      0.001325       0.000045       0.000000
      0.001359       0.000096       0.000000
      0.001661       0.000094       0.000000
      0.001605       0.000043       0.000000
      0.000970       0.000076       0.000000
      0.000992       0.000119       0.000000
      0.001411       0.000156       0.000000
      0.001359       0.000096       0.000000
      0.000992       0.000119       0.000000
      0.001013       0.000161       0.000000
      0.001470       0.000223       0.000000
      0.001411       0.000156       0.000000
      0.001359       0.000096       0.000000
      0.001411       0.000156       0.000000
      0.001751       0.000161       0.000000
      0.001661       0.000094       0.000000
      0.001411       0.000156       0.000000
      0.001470       0.000223       0.000000
      0.001873       0.000248       0.000000
      0.001751       0.000161       0.000000
      0.001013       0.000161       0.000000
      0.001027       0.000191       0.000000
      0.001525       0.000277       0.000000
      0.001470       0.000223       0.000000
      0.001027       0.000191       0.000000
      0.001036       0.000190       0.000000
      0.001568       0.000279       0.000000
      0.001525       0.000277       0.000000
      0.001470       0.000223       0.000000
      0.001525       0.000277       0.000000
      0.002006       0.000339       0.000000
      0.001873       0.000248       0.000000
      0.001525       0.000277       0.000000
      0.001568       0.000279       0.000000
      0.002119       0.000358       0.000000
      0.002006       0.000339       0.000000
      0.001587       0.000000       0.000000
      0.001605       0.000043       0.000000
      0.001776       0.000029       0.000000
      0.001752       0.000000       0.000000
      0.001605       0.000043       0.000000
      0.001661       0.000094       0.000000
      0.001847       0.000067       0.000000
      0.001776       0.000029       0.000000
      0.001752       0.000000       0.000000
      0.001776       0.000029       0.000000
      0.001825       0.000009       0.000000
      0.001801       0.000000       0.000000
      0.001776       0.000029       0.000000
      0.001847       0.000067       0.000000
      0.001897       0.000026       0.000000
      0.001825       0.000009       0.000000
      0.001661       0.000094       0.000000
      0.001751       0.000161       0.000000
      0.001973       0.000124       0.000000
      0.001847       0.000067       0.000000
      0.001751       0.000161       0.000000
      0.001873       0.000248       0.000000
      0.002165       0.000209       0.000000
      0.001973       0.000124       0.000000
      0.001847       0.000067       0.000000
      0.001973       0.000124       0.000000
      0.002028       0.000056       0.000000
      0.001897       0.000026       0.000000
      0.001973       0.000124       0.000000
      0.002165       0.000209       0.000000
      0.002243       0.000105       0.000000
      0.002028       0.000056       0.000000
      0.001873       0.000248       0.000000
      0.001940       0.000295       0.000000
      0.002133       0.000293       0.000000
      0.002038       0.000238       0.000000
      0.001940       0.000295       0.000000
      0.002006       0.000339       0.000000
      0.002232       0.000350       0.000000
      0.002133       0.000293       0.000000
      0.002038       0.000238       0.000000
      0.002133       0.000293       0.000000
      0.002290       0.000266       0.000000
      0.002165       0.000209       0.000000
      0.002133       0.000293       0.000000
      0.002232       0.000350       0.000000
      0.002433       0.000334       0.000000
      0.002290       0.000266       0.000000
      0.002006       0.000339       0.000000
      0.002065       0.000365       0.000000
      0.002326       0.000393       0.000000
      0.002232       0.000350       0.000000
      0.002065       0.000365       0.000000
      0.002119       0.000358       0.000000
      0.002410       0.000391       0.000000
      0.002326       0.000393       0.000000
      0.002232       0.000350       0.000000
      0.002326       0.000393       0.000000
      0.002586       0.000404       0.000000
      0.002433       0.000334       0.000000
      0.002326       0.000393       0.000000
      0.002410       0.000391       0.000000
      0.002724       0.000420       0.000000
      0.002586       0.000404       0.000000
      0.002165       0.000209       0.000000
      0.002290       0.000266       0.000000
      0.002385       0.000211       0.000000
      0.002237       0.000162       0.000000
      0.002290       0.000266       0.000000
      0.002433       0.000334       0.000000
      0.002573       0.000276       0.000000
      0.002385       0.000211       0.000000
      0.002237       0.000162       0.000000
      0.002385       0.000211       0.000000
      0.002395       0.000139       0.000000
      0.002243       0.000105       0.000000
      0.002385       0.000211       0.000000
      0.002573       0.000276       0.000000
      0.002597       0.000181       0.000000
      0.002395       0.000139       0.000000
      0.002433       0.000334       0.000000
      0.002510       0.000370       0.000000
      0.002609       0.000352       0.000000
      0.002514       0.000311       0.000000
      0.002510       0.000370       0.000000
      0.002586       0.000404       0.000000
      0.002709       0.000395       0.000000
      0.002609       0.000352       0.000000
      0.002514       0.000311       0.000000
      0.002609       0.000352       0.000000
      0.002687       0.000318       0.000000
      0.002573       0.000276       0.000000
      0.002609       0.000352       0.000000
      0.002709       0.000395       0.000000
      0.002817       0.000369       0.000000
      0.002687       0.000318       0.000000
      0.002586       0.000404       0.000000
      0.002657       0.000425       0.000000
      0.002807       0.000430       0.000000
      0.002709       0.000395       0.000000
      0.002657       0.000425       0.000000
      0.002724       0.000420       0.000000
      0.002898       0.000431       0.000000
      0.002807       0.000430       0.000000
      0.002709       0.000395       0.000000
      0.002807       0.000430       0.000000
      0.002960       0.000425       0.000000
      0.002817       0.000369       0.000000
      0.002807       0.000430       0.000000
      0.002898       0.000431       0.000000
      0.003098       0.000440       0.000000
      0.002960       0.000425       0.000000
      0.002573       0.000276       0.000000
      0.002687       0.000318       0.000000
      0.002730       0.000267       0.000000
      0.002602       0.000231       0.000000
      0.002687       0.000318       0.000000
      0.002817       0.000369       0.000000
      0.002889       0.000313       0.000000
      0.002730       0.000267       0.000000
      0.002602       0.000231       0.000000
      0.002730       0.000267       0.000000
      0.002728       0.000206       0.000000
      0.002597       0.000181       0.000000
      0.002730       0.000267       0.000000
      0.002889       0.000313       0.000000
      0.002897       0.000232       0.000000
      0.002728       0.000206       0.000000
      0.002817       0.000369       0.000000
      0.002888       0.000397       0.000000
      0.002945       0.000377       0.000000
      0.002860       0.000345       0.000000
      0.002888       0.000397       0.000000
      0.002960       0.000425       0.000000
      0.003036       0.000412       0.000000
      0.002945       0.000377       0.000000
      0.002860       0.000345       0.000000
      0.002945       0.000377       0.000000
      0.002988       0.000345       0.000000
      0.002889       0.000313       0.000000
      0.002945       0.000377       0.000000
      0.003036       0.000412       0.000000
      0.003106       0.000386       0.000000
      0.002988       0.000345       0.000000
      0.002960       0.000425       0.000000
      0.003031       0.000442       0.000000
      0.003129       0.000440       0.000000
      0.003036       0.000412       0.000000
      0.003031       0.000442       0.000000
      0.003098       0.000440       0.000000
      0.003218       0.000441       0.000000
      0.003129       0.000440       0.000000
      0.003036       0.000412       0.000000
      0.003129       0.000440       0.000000
      0.003237       0.000432       0.000000
      0.003106       0.000386       0.000000
      0.003129       0.000440       0.000000
      0.003218       0.000441       0.000000
      0.003369       0.000440       0.000000
      0.003237       0.000432       0.000000
      0.002889       0.000313       0.000000
      0.002988       0.000345       0.000000
      0.003012       0.000299       0.000000
      0.002902       0.000274       0.000000
      0.002988       0.000345       0.000000
      0.003106       0.000386       0.000000
      0.003156       0.000336       0.000000
      0.003012       0.000299       0.000000
      0.002902       0.000274       0.000000
      0.003012       0.000299       0.000000
      0.003010       0.000246       0.000000
      0.002897       0.000232       0.000000
      0.003012       0.000299       0.000000
      0.003156       0.000336       0.000000
      0.003164       0.000260       0.000000
      0.003010       0.000246       0.000000
      0.003106       0.000386       0.000000
      0.003237       0.000432       0.000000
      0.003359       0.000401       0.000000
      0.003156       0.000336       0.000000
      0.003237       0.000432       0.000000
      0.003369       0.000440       0.000000
      0.003600       0.000429       0.000000
      0.003359       0.000401       0.000000
      0.003156       0.000336       0.000000
      0.003359       0.000401       0.000000
      0.003426       0.000278       0.000000
      0.003164       0.000260       0.000000
      0.003359       0.000401       0.000000
      0.003600       0.000429       0.000000
      0.004352       0.000343       0.000000
      0.003426       0.000278       0.000000
      0.000000       0.000000       0.000000
      0.000000       0.000000       0.000000
      0.000513       0.000081       0.000000
      0.000514       0.000095       0.000000
      0.000000       0.000000       0.000000
      0.000000       0.000000       0.000000
      0.000521       0.000059       0.000000
      0.000513       0.000081       0.000000
      0.000514       0.000095       0.000000
      0.000513       0.000081       0.000000
      0.001052       0.000156       0.000000
      0.001036       0.000190       0.000000
      0.000513       0.000081       0.000000
      0.000521       0.000059       0.000000
      0.001081       0.000105       0.000000
      0.001052       0.000156       0.000000
      0.000000       0.000000       0.000000
      0.000000       0.000000       0.000000
      0.000536       0.000037       0.000000
      0.000521       0.000059       0.000000
      0.000000       0.000000       0.000000
      0.000000       0.000000       0.000000
      0.000553       0.000021       0.000000
      0.000536       0.000037       0.000000
      0.000521       0.000059       0.000000
      0.000536       0.000037       0.000000
      0.001118       0.000060       0.000000
      0.001081       0.000105       0.000000
      0.000536       0.000037       0.000000
      0.000553       0.000021       0.000000
      0.001154       0.000029       0.000000
      0.001118       0.000060       0.000000
      0.000000       0.000000       0.000000
      0.000000       0.000000       0.000000
      0.000565       0.000009       0.000000
      0.000553       0.000021       0.000000
      0.000000       0.000000       0.000000
      0.000000       0.000000       0.000000
      0.000570       0.000000       0.000000
      0.000565       0.000009       0.000000
      0.000553       0.000021       0.000000
      0.000565       0.000009       0.000000
      0.001178       0.000011       0.000000
      0.001154       0.000029       0.000000
      0.000565       0.000009       0.000000
      0.000570       0.000000       0.000000
      0.001186       0.000000       0.000000
      0.001178       0.000011       0.000000
      0.001036       0.000190       0.000000
      0.001052       0.000156       0.000000
      0.001618       0.000216       0.000000
      0.001568       0.000279       0.000000
      0.001052       0.000156       0.000000
      0.001081       0.000105       0.000000
      0.001687       0.000128       0.000000
      0.001618       0.000216       0.000000
      0.001568       0.000279       0.000000
      0.001618       0.000216       0.000000
      0.002236       0.000244       0.000000
      0.002119       0.000358       0.000000
      0.001618       0.000216       0.000000
      0.001687       0.000128       0.000000
      0.002369       0.000112       0.000000
      0.002236       0.000244       0.000000
      0.001081       0.000105       0.000000
      0.001118       0.000060       0.000000
      0.001758       0.000061       0.000000
      0.001687       0.000128       0.000000
      0.001118       0.000060       0.000000
      0.001154       0.000029       0.000000
      0.001815       0.000023       0.000000
      0.001758       0.000061       0.000000
      0.001687       0.000128       0.000000
      0.001758       0.000061       0.000000
      0.002479       0.000035       0.000000
      0.002369       0.000112       0.000000
      0.001758       0.000061       0.000000
      0.001815       0.000023       0.000000
      0.002552       0.000002       0.000000
      0.002479       0.000035       0.000000
      0.001154       0.000029       0.000000
      0.001178       0.000011       0.000000
      0.001850       0.000006       0.000000
      0.001815       0.000023       0.000000
      0.001178       0.000011       0.000000
      0.001186       0.000000       0.000000
      0.001862       0.000000       0.000000
      0.001850       0.000006       0.000000
      0.001815       0.000023       0.000000
      0.001850       0.000006       0.000000
      0.002593      -0.000005       0.000000
      0.002552       0.000002       0.000000
      0.001850       0.000006       0.000000
      0.001862       0.000000       0.000000
      0.002606       0.000000       0.000000
      0.002593      -0.000005       0.000000
      0.002369       0.000112       0.000000
      0.002479       0.000035       0.000000
      0.003316      -0.000011       0.000000
      0.003206       0.000047       0.000000
      0.002479       0.000035       0.000000
      0.002552       0.000002       0.000000
      0.003375      -0.000025       0.000000
      0.003316      -0.000011       0.000000
      0.003206       0.000047       0.000000
      0.003316      -0.000011       0.000000
      0.004262      -0.000036       0.000000
      0.004266      -0.000004       0.000000
      0.003316      -0.000011       0.000000
      0.003375      -0.000025       0.000000
      0.004260      -0.000038       0.000000
      0.004262      -0.000036       0.000000
      0.002552       0.000002       0.000000
      0.002593      -0.000005       0.000000
      0.003404      -0.000017       0.000000
      0.003375      -0.000025       0.000000
      0.002593      -0.000005       0.000000
      0.002606       0.000000       0.000000
      0.003412       0.000000       0.000000
      0.003404      -0.000017       0.000000
      0.003375      -0.000025       0.000000
      0.003404      -0.000017       0.000000
      0.004260      -0.000023       0.000000
      0.004260      -0.000038       0.000000
      0.003404      -0.000017       0.000000
      0.003412       0.000000       0.000000
      0.004259       0.000000       0.000000
      0.004260      -0.000023       0.000000
      0.002119       0.000358       0.000000
      0.002174       0.000313       0.000000
      0.002493       0.000329       0.000000
      0.002410       0.000391       0.000000
      0.002174       0.000313       0.000000
      0.002236       0.000244       0.000000
      0.002586       0.000235       0.000000
      0.002493       0.000329       0.000000
      0.002410       0.000391       0.000000
      0.002493       0.000329       0.000000
      0.002859       0.000325       0.000000
      0.002724       0.000420       0.000000
      0.002493       0.000329       0.000000
      0.002586       0.000235       0.000000
      0.003000       0.000200       0.000000
      0.002859       0.000325       0.000000
      0.002236       0.000244       0.000000
      0.002303       0.000173       0.000000
      0.002679       0.000150       0.000000
      0.002586       0.000235       0.000000
      0.002303       0.000173       0.000000
      0.002369       0.000112       0.000000
      0.002762       0.000085       0.000000
      0.002679       0.000150       0.000000
      0.002586       0.000235       0.000000
      0.002679       0.000150       0.000000
      0.003118       0.000107       0.000000