# vtk DataFile Version 2.0
time_10.vtk
ASCII
DATASET UNSTRUCTURED_GRID
POINTS  1152 float
      0.000000       0.000000       0.000000
      0.083333       0.000000       0.000000
      0.083333       0.083333       0.000000
      0.000000       0.083333       0.000000
      0.083333       0.000000       0.000000
      0.166667       0.000000       0.000000
      0.166667       0.083333       0.000000
      0.083333       0.083333       0.000000
      0.000000       0.083333       0.000000
      0.083333       0.083333       0.000000
      0.083333       0.166667       0.000000
      0.000000       0.166667       0.000000
      0.083333       0.083333       0.000000
      0.166667       0.083333       0.000000
      0.166667       0.166667       0.000000
      0.083333       0.166667       0.000000
      0.166667       0.000000       0.000000
      0.250000       0.000000       0.000000
      0.250000       0.083333       0.000000
      0.166667       0.083333       0.000000
      0.250000       0.000000       0.000000
      0.333333       0.000000       0.000000
      0.333333       0.083333       0.000000
      0.250000       0.083333       0.000000
      0.166667       0.083333       0.000000
      0.250000       0.083333       0.000000
      0.250000       0.166667       0.000000
      0.166667       0.166667       0.000000
      0.250000       0.083333       0.000000
      0.333333       0.083333       0.000000
      0.333333       0.166667       0.000000
      0.250000       0.166667       0.000000
      0.333333       0.000000       0.000000
      0.416667      -0.000000       0.000000
      0.416667       0.083333       0.000000
      0.333333       0.083333       0.000000
      0.416667      -0.000000       0.000000
      0.500000       0.000000       0.000000
      0.500000       0.083333       0.000000
      0.416667       0.083333       0.000000
      0.333333       0.083333       0.000000
      0.416667       0.083333       0.000000
      0.416667       0.166667       0.000000
      0.333333       0.166667       0.000000
      0.416667       0.083333       0.000000
      0.500000       0.083333       0.000000
      0.500000       0.166667       0.000000
      0.416667       0.166667       0.000000
      0.000000       0.166667       0.000000
      0.083333       0.166667       0.000000
      0.083333       0.250000       0.000000
      0.000000       0.250000       0.000000
      0.083333       0.166667       0.000000
      0.166667       0.166667       0.000000
      0.166667       0.250000       0.000000
      0.083333       0.250000       0.000000
      0.000000       0.250000       0.000000
      0.083333       0.250000       0.000000
      0.083333       0.333333       0.000000
      0.000000       0.333333       0.000000
      0.083333       0.250000       0.000000
      0.166667       0.250000       0.000000
      0.166667       0.333333       0.000000
      0.083333       0.333333       0.000000
      0.166667       0.166667       0.000000
      0.250000       0.166667       0.000000
      0.250000       0.250000       0.000000
      0.166667       0.250000       0.000000
      0.250000       0.166667       0.000000
      0.333333       0.166667       0.000000
      0.333333       0.250000       0.000000
      0.250000       0.250000       0.000000
      0.166667       0.250000       0.000000
      0.250000       0.250000       0.000000
      0.250000       0.333333       0.000000
      0.166667       0.333333       0.000000
      0.250000       0.250000       0.000000
      0.333333       0.250000       0.000000
      0.333333       0.333333       0.000000
      0.250000       0.333333       0.000000
      0.333333       0.166667       0.000000
      0.416667       0.166667       0.000000
      0.416667       0.250000       0.000000
      0.333333       0.250000       0.000000
      0.416667       0.166667       0.000000
      0.500000       0.166667       0.000000
      0.500000       0.250000       0.000000
      0.416667       0.250000       0.000000
      0.333333       0.250000       0.000000
      0.416667       0.250000       0.000000
      0.416667       0.333333       0.000000
      0.333333       0.333333       0.000000
      0.416667       0.250000       0.000000
      0.500000       0.250000       0.000000
      0.500000       0.333333       0.000000
      0.416667       0.333333       0.000000
      0.000000       0.333333       0.000000
      0.083333       0.333333       0.000000
      0.083333       0.416667       0.000000
     -0.000000       0.416667       0.000000
      0.083333       0.333333       0.000000
      0.166667       0.333333       0.000000
      0.166667       0.416667       0.000000
      0.083333       0.416667       0.000000
     -0.000000       0.416667       0.000000
      0.083333       0.416667       0.000000
      0.083333       0.500000       0.000000
      0.000000       0.500000       0.000000
      0.083333       0.416667       0.000000
      0.166667       0.416667       0.000000
      0.166667       0.500000       0.000000
      0.083333       0.500000       0.000000
      0.166667       0.333333       0.000000
      0.250000       0.333333       0.000000
      0.250000       0.416667       0.000000
      0.166667       0.416667       0.000000
      0.250000       0.333333       0.000000
      0.333333       0.333333       0.000000
      0.333333       0.416667       0.000000
      0.250000       0.416667       0.000000
      0.166667       0.416667       0.000000
      0.250000       0.416667       0.000000
      0.250000       0.500000       0.000000
      0.166667       0.500000       0.000000
      0.250000       0.416667       0.000000
      0.333333       0.416667       0.000000
      0.333333       0.500000       0.000000
      0.250000       0.500000       0.000000
      0.333333       0.333333       0.000000
      0.375000       0.333333       0.000000
      0.375000       0.375000       0.000000
      0.333333       0.375000       0.000000
      0.375000       0.333333       0.000000
      0.416667       0.333333       0.000000
      0.416667       0.375000       0.000000
      0.375000       0.375000       0.000000
      0.333333       0.375000       0.000000
      0.375000       0.375000       0.000000
      0.375000       0.416667       0.000000
      0.333333       0.416667       0.000000
      0.375000       0.375000       0.000000
      0.416667       0.375000       0.000000
      0.416667       0.416667       0.000000
      0.375000       0.416667       0.000000
      0.416667       0.333333       0.000000
      0.458333       0.333333       0.000000
      0.458333       0.375000       0.000000
      0.416667       0.375000       0.000000
      0.458333       0.333333       0.000000
      0.500000       0.333333       0.000000
      0.500000       0.375000       0.000000
      0.458333       0.375000       0.000000
      0.416667       0.375000       0.000000
      0.458333       0.375000       0.000000
      0.458333       0.416667       0.000000
      0.416667       0.416667       0.000000
      0.458333       0.375000       0.000000
      0.500000       0.375000       0.000000
      0.500000       0.416667       0.000000
      0.458333       0.416667       0.000000
      0.333333       0.416667       0.000000
      0.375000       0.416667       0.000000
      0.375000       0.458333       0.000000
      0.333333       0.458333       0.000000
      0.375000       0.416667       0.000000
      0.416667       0.416667       0.000000
      0.416667       0.458333       0.000000
      0.375000       0.458333       0.000000
      0.333333       0.458333       0.000000
      0.375000       0.458333       0.000000
      0.375000       0.500000       0.000000
      0.333333       0.500000       0.000000
      0.375000       0.458333       0.000000
      0.416667       0.458333       0.000000
      0.416667       0.500000       0.000000
      0.375000       0.500000       0.000000
      0.416667       0.416667       0.000000
      0.437500       0.416667       0.000000
      0.437500       0.437500       0.000000
      0.416667       0.437500       0.000000
      0.437500       0.416667       0.000000
      0.458333       0.416667       0.000000
      0.458333       0.437500       0.000000
      0.437500       0.437500       0.000000
      0.416667       0.437500       0.000000
      0.437500       0.437500       0.000000
      0.437500       0.458333       0.000000
      0.416667       0.458333       0.000000
      0.437500       0.437500       0.000000
      0.458333       0.437500       0.000000
      0.458333       0.458333       0.000000
      0.437500       0.458333       0.000000
      0.458333       0.416667       0.000000
      0.479167       0.416667       0.000000
      0.479167       0.437500       0.000000
      0.458333       0.437500       0.000000
      0.479167       0.416667       0.000000
      0.500000       0.416667       0.000000
      0.500000       0.437500       0.000000
      0.479167       0.437500       0.000000
      0.458333       0.437500       0.000000
      0.479167       0.437500       0.000000
      0.479167       0.458333       0.000000
      0.458333       0.458333       0.000000
      0.479167       0.437500       0.000000
      0.500000       0.437500       0.000000
      0.500000       0.458333       0.000000
      0.479167       0.458333       0.000000
      0.416667       0.458333       0.000000
      0.437500       0.458333       0.000000
      0.437500       0.479167       0.000000
      0.416667       0.479167       0.000000
      0.437500       0.458333       0.000000
      0.458333       0.458333       0.000000
      0.458333       0.479167       0.000000
      0.437500       0.479167       0.000000
      0.416667       0.479167       0.000000
      0.437500       0.479167       0.000000
      0.437500       0.500000       0.000000
      0.416667       0.500000       0.000000
[...]
POINT_DATA  1152
VECTORS U float 
      0.000000       0.000000       0.000000
      0.000000       0.000000       0.000000
      0.000512       0.000020       0.000000
      0.000510       0.000000       0.000000
      0.000000       0.000000       0.000000
      0.000000       0.000000       0.000000
      0.000517       0.000042       0.000000
      0.000512       0.000020       0.000000
      0.000510       0.000000       0.000000
      0.000512       0.000020       0.000000
      0.000961       0.000036       0.000000
      0.000955       0.000000       0.000000
      0.000512       0.000020       0.000000
      0.000517       0.000042       0.000000
      0.000977       0.000076       0.000000
      0.000961       0.000036       0.000000
      0.000000       0.000000       0.000000
      0.000000       0.000000       0.000000
      0.000523       0.000063       0.000000
      0.000517       0.000042       0.000000
      0.000000       0.000000       0.000000
      0.000000       0.000000       0.000000
      0.000526       0.000083       0.000000
      0.000523       0.000063       0.000000
      0.000517       0.000042       0.000000
      0.000523       0.000063       0.000000
      0.001000       0.000119       0.000000
      0.000977       0.000076       0.000000
      0.000523       0.000063       0.000000
      0.000526       0.000083       0.000000
      0.001022       0.000162       0.000000
      0.001000       0.000119       0.000000
      0.000000       0.000000       0.000000
      0.000000       0.000000       0.000000
      0.000524       0.000096       0.000000
      0.000526       0.000083       0.000000
      0.000000       0.000000       0.000000
      0.000000       0.000000       0.000000
      0.000519       0.000097       0.000000
      0.000524       0.000096       0.000000
      0.000526       0.000083       0.000000
      0.000524       0.000096       0.000000
      0.001037       0.000193       0.000000
      0.001022       0.000162       0.000000
      0.000524       0.000096       0.000000
      0.000519       0.000097       0.000000
      0.001046       0.000193       0.000000
      0.001037       0.000193       0.000000
      0.000955       0.000000       0.000000
      0.000961       0.000036       0.000000
      0.001335       0.000045       0.000000
      0.001323       0.000000       0.000000
      0.000961       0.000036       0.000000
      0.000977       0.000076       0.000000
      0.001369       0.000096       0.000000
      0.001335       0.000045       0.000000
      0.001323       0.000000       0.000000
      0.001335       0.000045       0.000000
      0.001616       0.000042       0.000000
      0.001598       0.000000       0.000000
      0.001335       0.000045       0.000000
      0.001369       0.000096       0.000000
      0.001672       0.000093       0.000000
      0.001616       0.000042       0.000000
      0.000977       0.000076       0.000000
      0.001000       0.000119       0.000000
      0.001421       0.000156       0.000000
      0.001369       0.000096       0.000000
      0.001000       0.000119       0.000000
      0.001022       0.000162       0.000000
      0.001482       0.000224       0.000000
      0.001421       0.000156       0.000000
      0.001369       0.000096       0.000000
      0.001421       0.000156       0.000000
      0.001763       0.000161       0.000000
      0.001672       0.000093       0.000000
      0.001421       0.000156       0.000000
      0.001482       0.000224       0.000000
      0.001886       0.000248       0.000000
      0.001763       0.000161       0.000000
      0.001022       0.000162       0.000000
      0.001037       0.000193       0.000000
      0.001538       0.000279       0.000000
      0.001482       0.000224       0.000000
      0.001037       0.000193       0.000000
      0.001046       0.000193       0.000000
      0.001582       0.000284       0.000000
      0.001538       0.000279       0.000000
      0.001482       0.000224       0.000000
      0.001538       0.000279       0.000000
      0.002022       0.000341       0.000000
      0.001886       0.000248       0.000000
      0.001538       0.000279       0.000000
      0.001582       0.000284       0.000000
      0.002137       0.000364       0.000000
      0.002022       0.000341       0.000000
      0.001598       0.000000       0.000000
      0.001616       0.000042       0.000000
      0.001787       0.000029       0.000000
      0.001764       0.000000       0.000000
      0.001616       0.000042       0.000000
      0.001672       0.000093       0.000000
      0.001859       0.000066       0.000000
      0.001787       0.000029       0.000000
      0.001764       0.000000       0.000000
      0.001787       0.000029       0.000000
      0.001837       0.000009       0.000000
      0.001814       0.000000       0.000000
      0.001787       0.000029       0.000000
      0.001859       0.000066       0.000000
      0.001909       0.000025       0.000000
      0.001837       0.000009       0.000000
      0.001672       0.000093       0.000000
      0.001763       0.000161       0.000000
      0.001986       0.000123       0.000000
      0.001859       0.000066       0.000000
      0.001763       0.000161       0.000000
      0.001886       0.000248       0.000000
      0.002178       0.000208       0.000000
      0.001986       0.000123       0.000000
      0.001859       0.000066       0.000000
      0.001986       0.000123       0.000000
      0.002041       0.000054       0.000000
      0.001909       0.000025       0.000000
      0.001986       0.000123       0.000000
      0.002178       0.000208       0.000000
      0.002255       0.000104       0.000000
      0.002041       0.000054       0.000000
      0.001886       0.000248       0.000000
      0.001955       0.000297       0.000000
      0.002148       0.000293       0.000000
      0.002052       0.000237       0.000000
      0.001955       0.000297       0.000000
      0.002022       0.000341       0.000000
      0.002249       0.000351       0.000000
      0.002148       0.000293       0.000000
      0.002052       0.000237       0.000000
      0.002148       0.000293       0.000000
      0.002303       0.000265       0.000000
      0.002178       0.000208       0.000000
      0.002148       0.000293       0.000000
      0.002249       0.000351       0.000000
      0.002449       0.000334       0.000000
      0.002303       0.000265       0.000000
      0.002022       0.000341       0.000000
      0.002083       0.000369       0.000000
      0.002345       0.000397       0.000000
      0.002249       0.000351       0.000000
      0.002083       0.000369       0.000000
      0.002137       0.000364       0.000000
      0.002430       0.000399       0.000000
      0.002345       0.000397       0.000000
      0.002249       0.000351       0.000000
      0.002345       0.000397       0.000000
      0.002604       0.000407       0.000000
      0.002449       0.000334       0.000000
      0.002345       0.000397       0.000000
      0.002430       0.000399       0.000000
      0.002745       0.000429       0.000000
      0.002604       0.000407       0.000000
      0.002178       0.000208       0.000000
      0.002303       0.000265       0.000000
      0.002398       0.000210       0.000000
      0.002250       0.000161       0.000000
      0.002303       0.000265       0.000000
      0.002449       0.000334       0.000000
      0.002585       0.000275       0.000000
      0.002398       0.000210       0.000000
      0.002250       0.000161       0.000000
      0.002398       0.000210       0.000000
      0.002407       0.000138       0.000000
      0.002255       0.000104       0.000000
      0.002398       0.000210       0.000000
      0.002585       0.000275       0.000000
      0.002607       0.000181       0.000000
      0.002407       0.000138       0.000000
      0.002449       0.000334       0.000000
      0.002526       0.000372       0.000000
      0.002624       0.000352       0.000000
      0.002528       0.000310       0.000000
      0.002526       0.000372       0.000000
      0.002604       0.000407       0.000000
      0.002726       0.000398       0.000000
      0.002624       0.000352       0.000000
      0.002528       0.000310       0.000000
      0.002624       0.000352       0.000000
      0.002699       0.000317       0.000000
      0.002585       0.000275       0.000000
      0.002624       0.000352       0.000000
      0.002726       0.000398       0.000000
      0.002831       0.000369       0.000000
      0.002699       0.000317       0.000000
      0.002604       0.000407       0.000000
      0.002677       0.000431       0.000000
      0.002826       0.000436       0.000000
      0.002726       0.000398       0.000000
      0.002677       0.000431       0.000000
      0.002745       0.000429       0.000000
      0.002920       0.000441       0.000000
      0.002826       0.000436       0.000000
      0.002726       0.000398       0.000000
      0.002826       0.000436       0.000000
      0.002977       0.000428       0.000000
      0.002831       0.000369       0.000000
      0.002826       0.000436       0.000000
      0.002920       0.000441       0.000000
      0.003120       0.000450       0.000000
      0.002977       0.000428       0.000000
      0.002585       0.000275       0.000000
      0.002699       0.000317       0.000000
      0.002739       0.000266       0.000000
      0.002613       0.000230       0.000000
      0.002699       0.000317       0.000000
      0.002831       0.000369       0.000000
      0.002897       0.000312       0.000000
      0.002739       0.000266       0.000000
      0.002613       0.000230       0.000000
      0.002739       0.000266       0.000000
      0.002736       0.000205       0.000000
      0.002607       0.000181       0.000000
      0.002739       0.000266       0.000000
      0.002897       0.000312       0.000000
      0.002902       0.000232       0.000000
      0.002736       0.000205       0.000000
      0.002831       0.000369       0.000000
      0.002903       0.000399       0.000000
      0.002956       0.000377       0.000000
      0.002871       0.000344       0.000000
      0.002903       0.000399       0.000000
      0.002977       0.000428       0.000000
      0.003050       0.000415       0.000000
      0.002956       0.000377       0.000000
      0.002871       0.000344       0.000000
      0.002956       0.000377       0.000000
      0.002997       0.000344       0.000000
      0.002897       0.000312       0.000000
      0.002956       0.000377       0.000000
      0.003050       0.000415       0.000000
      0.003115       0.000387       0.000000
      0.002997       0.000344       0.000000
      0.002977       0.000428       0.000000
      0.003050       0.000449       0.000000
      0.003146       0.000447       0.000000
      0.003050       0.000415       0.000000
      0.003050       0.000449       0.000000
      0.003120       0.000450       0.000000
      0.003239       0.000452       0.000000
      0.003146       0.000447       0.000000
      0.003050       0.000415       0.000000
      0.003146       0.000447       0.000000
      0.003251       0.000436       0.000000
      0.003115       0.000387       0.000000
      0.003146       0.000447       0.000000
      0.003239       0.000452       0.000000
      0.003389       0.000451       0.000000
      0.003251       0.000436       0.000000
      0.002897       0.000312       0.000000
      0.002997       0.000344       0.000000
      0.003016       0.000299       0.000000
      0.002908       0.000273       0.000000
      0.002997       0.000344       0.000000
      0.003115       0.000387       0.000000
      0.003159       0.000335       0.000000
      0.003016       0.000299       0.000000
      0.002908       0.000273       0.000000
      0.003016       0.000299       0.000000
      0.003013       0.000246       0.000000
      0.002902       0.000232       0.000000
      0.003016       0.000299       0.000000
      0.003159       0.000335       0.000000
      0.003165       0.000259       0.000000
      0.003013       0.000246       0.000000
      0.003115       0.000387       0.000000
      0.003251       0.000436       0.000000
      0.003367       0.000402       0.000000
      0.003159       0.000335       0.000000
      0.003251       0.000436       0.000000
      0.003389       0.000451       0.000000
      0.003623       0.000440       0.000000
      0.003367       0.000402       0.000000
      0.003159       0.000335       0.000000
      0.003367       0.000402       0.000000
      0.003427       0.000274       0.000000
      0.003165       0.000259       0.000000
      0.003367       0.000402       0.000000
      0.003623       0.000440       0.000000
      0.004423       0.000348       0.000000
      0.003427       0.000274       0.000000
      0.000000       0.000000       0.000000
      0.000000       0.000000       0.000000
      0.000518       0.000082       0.000000
      0.000519       0.000097       0.000000
      0.000000       0.000000       0.000000
      0.000000       0.000000       0.000000
      0.000525       0.000060       0.000000
      0.000518       0.000082       0.000000
      0.000519       0.000097       0.000000
      0.000518       0.000082       0.000000
      0.001061       0.000159       0.000000
      0.001046       0.000193       0.000000
      0.000518       0.000082       0.000000
      0.000525       0.000060       0.000000
      0.001091       0.000108       0.000000
      0.001061       0.000159       0.000000
      0.000000       0.000000       0.000000
      0.000000       0.000000       0.000000
      0.000541       0.000038       0.000000
      0.000525       0.000060       0.000000
      0.000000       0.000000       0.000000
      0.000000       0.000000       0.000000
      0.000557       0.000021       0.000000
      0.000541       0.000038       0.000000
      0.000525       0.000060       0.000000
      0.000541       0.000038       0.000000
      0.001128       0.000062       0.000000
      0.001091       0.000108       0.000000
      0.000541       0.000038       0.000000
      0.000557       0.000021       0.000000
      0.001164       0.000030       0.000000
      0.001128       0.000062       0.000000
      0.000000       0.000000       0.000000
      0.000000       0.000000       0.000000
      0.000570       0.000009       0.000000
      0.000557       0.000021       0.000000
      0.000000       0.000000       0.000000
      0.000000       0.000000       0.000000
      0.000575       0.000000       0.000000
      0.000570       0.000009       0.000000
      0.000557       0.000021       0.000000
      0.000570       0.000009       0.000000
      0.001189       0.000012       0.000000
      0.001164       0.000030       0.000000
      0.000570       0.000009       0.000000
      0.000575       0.000000       0.000000
      0.001197       0.000000       0.000000
      0.001189       0.000012       0.000000
      0.001046       0.000193       0.000000
      0.001061       0.000159       0.000000
      0.001633       0.000221       0.000000
      0.001582       0.000284       0.000000
      0.001061       0.000159       0.000000
      0.001091       0.000108       0.000000
      0.001702       0.000132       0.000000
      0.001633       0.000221       0.000000
      0.001582       0.000284       0.000000
      0.001633       0.000221       0.000000
      0.002256       0.000251       0.000000
      0.002137       0.000364       0.000000
      0.001633       0.000221       0.000000
      0.001702       0.000132       0.000000
      0.002392       0.000117       0.000000
      0.002256       0.000251       0.000000
      0.001091       0.000108       0.000000
      0.001128       0.000062       0.000000
      0.001774       0.000063       0.000000
      0.001702       0.000132       0.000000
      0.001128       0.000062       0.000000
      0.001164       0.000030       0.000000
      0.001832       0.000024       0.000000
      0.001774       0.000063       0.000000
      0.001702       0.000132       0.000000
      0.001774       0.000063       0.000000
      0.002504       0.000037       0.000000
      0.002392       0.000117       0.000000
      0.001774       0.000063       0.000000
      0.001832       0.000024       0.000000
      0.002578       0.000003       0.000000
      0.002504       0.000037       0.000000
      0.001164       0.000030       0.000000
      0.001189       0.000012       0.000000
      0.001869       0.000007       0.000000
      0.001832       0.000024       0.000000
      0.001189       0.000012       0.000000
      0.001197       0.000000       0.000000
      0.001881       0.000000       0.000000
      0.001869       0.000007       0.000000
      0.001832       0.000024       0.000000
      0.001869       0.000007       0.000000
      0.002620      -0.000005       0.000000
      0.002578       0.000003       0.000000
      0.001869       0.000007       0.000000
      0.001881       0.000000       0.000000
      0.002633       0.000000       0.000000
      0.002620      -0.000005       0.000000
      0.002392       0.000117       0.000000
      0.002504       0.000037       0.000000
      0.003352      -0.000010       0.000000
      0.003239       0.000050       0.000000
      0.002504       0.000037       0.000000
      0.002578       0.000003       0.000000
      0.003412      -0.000025       0.000000
      0.003352      -0.000010       0.000000
      0.003239       0.000050       0.000000
      0.003352      -0.000010       0.000000
      0.004313      -0.000036       0.000000
      0.004317      -0.000002       0.000000
      0.003352      -0.000010       0.000000
      0.003412      -0.000025       0.000000
      0.004311      -0.000038       0.000000
      0.004313      -0.000036       0.000000
      0.002578       0.000003       0.000000
      0.002620      -0.000005       0.000000
      0.003442      -0.000017       0.000000
      0.003412      -0.000025       0.000000
      0.002620      -0.000005       0.000000
      0.002633       0.000000       0.000000
      0.003451       0.000000       0.000000
      0.003442      -0.000017       0.000000
      0.003412      -0.000025       0.000000
      0.003442      -0.000017       0.000000
      0.004310      -0.000023       0.000000
      0.004311      -0.000038       0.000000
      0.003442      -0.000017       0.000000
      0.003451       0.000000       0.000000
      0.004310       0.000000       0.000000
      0.004310      -0.000023       0.000000
      0.002137       0.000364       0.000000
      0.002193       0.000320       0.000000
      0.002514       0.000337       0.000000
      0.002430       0.000399       0.000000
      0.002193       0.000320       0.000000
      0.002256       0.000251       0.000000
      0.002609       0.000243       0.000000
      0.002514       0.000337       0.000000
      0.002430       0.000399       0.000000
      0.002514       0.000337       0.000000
      0.002883       0.000335       0.000000
      0.002745       0.000429       0.000000
      0.002514       0.000337       0.000000
      0.002609       0.000243       0.000000
      0.003028       0.000208       0.000000
      0.002883       0.000335       0.000000
      0.002256       0.000251       0.000000
      0.002324       0.000179       0.000000
      0.002704       0.000155       0.000000
      0.002609       0.000243       0.000000
      0.002324       0.000179       0.000000
      0.002392       0.000117       0.000000
      0.002789       0.000089       0.000000
      0.002704       0.000155       0.000000
      0.002609       0.000243       0.000000
      0.002704       0.000155       0.000000
      0.003149       0.000112       0.000000