# vtk DataFile Version 2.0
time_10.vtk
ASCII
DATASET UNSTRUCTURED_GRID
POINTS  1812 float
      0.000000       0.000000       0.000000
      0.083333       0.000000       0.000000
      0.083333       0.083333       0.000000
      0.000000       0.083333       0.000000
      0.083333       0.000000       0.000000
      0.166667       0.000000       0.000000
      0.166667       0.083333       0.000000
      0.083333       0.083333       0.000000
      0.000000       0.083333       0.000000
      0.083333       0.083333       0.000000
      0.083333       0.166667       0.000000
      0.000000       0.166667       0.000000
      0.083333       0.083333       0.000000
      0.166667       0.083333       0.000000
      0.166667       0.166667       0.000000
      0.083333       0.166667       0.000000
      0.166667       0.000000       0.000000
      0.250000       0.000000       0.000000
      0.250000       0.083333       0.000000
      0.166667       0.083333       0.000000
      0.250000       0.000000       0.000000
      0.333333       0.000000       0.000000
      0.333333       0.083333       0.000000
      0.250000       0.083333       0.000000
      0.166667       0.083333       0.000000
      0.250000       0.083333       0.000000
      0.250000       0.166667       0.000000
      0.166667       0.166667       0.000000
      0.250000       0.083333       0.000000
      0.333333       0.083333       0.000000
      0.333333       0.166667       0.000000
      0.250000       0.166667       0.000000
      0.333333       0.000000       0.000000
      0.416667      -0.000000       0.000000
      0.416667       0.083333       0.000000
      0.333333       0.083333       0.000000
      0.416667      -0.000000       0.000000
      0.500000       0.000000       0.000000
      0.500000       0.083333       0.000000
      0.416667       0.083333       0.000000
      0.333333       0.083333       0.000000
      0.416667       0.083333       0.000000
      0.416667       0.166667       0.000000
      0.333333       0.166667       0.000000
      0.416667       0.083333       0.000000
      0.500000       0.083333       0.000000
      0.500000       0.166667       0.000000
      0.416667       0.166667       0.000000
      0.000000       0.166667       0.000000
      0.083333       0.166667       0.000000
      0.083333       0.250000       0.000000
      0.000000       0.250000       0.000000
      0.083333       0.166667       0.000000
      0.166667       0.166667       0.000000
      0.166667       0.250000       0.000000
      0.083333       0.250000       0.000000
      0.000000       0.250000       0.000000
      0.083333       0.250000       0.000000
      0.083333       0.333333       0.000000
      0.000000       0.333333       0.000000
      0.083333       0.250000       0.000000
      0.166667       0.250000       0.000000
      0.166667       0.333333       0.000000
      0.083333       0.333333       0.000000
      0.166667       0.166667       0.000000
      0.250000       0.166667       0.000000
      0.250000       0.250000       0.000000
      0.166667       0.250000       0.000000
      0.250000       0.166667       0.000000
      0.333333       0.166667       0.000000
      0.333333       0.250000       0.000000
      0.250000       0.250000       0.000000
      0.166667       0.250000       0.000000
      0.250000       0.250000       0.000000
      0.250000       0.333333       0.000000
      0.166667       0.333333       0.000000
      0.250000       0.250000       0.000000
      0.333333       0.250000       0.000000
      0.333333       0.333333       0.000000
      0.250000       0.333333       0.000000
      0.333333       0.166667       0.000000
      0.416667       0.166667       0.000000
      0.416667       0.250000       0.000000
      0.333333       0.250000       0.000000
      0.333333       0.250000       0.000000
      0.416667       0.250000       0.000000
      0.416667       0.333333       0.000000
      0.333333       0.333333       0.000000
      0.000000       0.333333       0.000000
      0.083333       0.333333       0.000000
      0.083333       0.416667       0.000000
     -0.000000       0.416667       0.000000
      0.083333       0.333333       0.000000
      0.166667       0.333333       0.000000
      0.166667       0.416667       0.000000
      0.083333       0.416667       0.000000
     -0.000000       0.416667       0.000000
      0.083333       0.416667       0.000000
      0.083333       0.500000       0.000000
      0.000000       0.500000       0.000000
      0.083333       0.416667       0.000000
      0.166667       0.416667       0.000000
      0.166667       0.500000       0.000000
      0.083333       0.500000       0.000000
      0.166667       0.333333       0.000000
      0.250000       0.333333       0.000000
      0.250000       0.416667       0.000000
      0.166667       0.416667       0.000000
      0.250000       0.333333       0.000000
      0.333333       0.333333       0.000000
      0.333333       0.416667       0.000000
      0.250000       0.416667       0.000000
      0.166667       0.416667       0.000000
      0.250000       0.416667       0.000000
      0.250000       0.500000       0.000000
      0.166667       0.500000       0.000000
      0.250000       0.416667       0.000000
      0.333333       0.416667       0.000000
      0.333333       0.500000       0.000000
      0.250000       0.500000       0.000000
      0.333333       0.333333       0.000000
      0.375000       0.333333       0.000000
      0.375000       0.375000       0.000000
      0.333333       0.375000       0.000000
      0.375000       0.333333       0.000000
      0.416667       0.333333       0.000000
      0.416667       0.375000       0.000000
      0.375000       0.375000       0.000000
      0.333333       0.375000       0.000000
      0.375000       0.375000       0.000000
      0.375000       0.416667       0.000000
      0.333333       0.416667       0.000000
      0.375000       0.375000       0.000000
      0.416667       0.375000       0.000000
      0.416667       0.416667       0.000000
      0.375000       0.416667       0.000000
      0.416667       0.333333       0.000000
      0.458333       0.333333       0.000000
      0.458333       0.375000       0.000000
      0.416667       0.375000       0.000000
      0.416667       0.375000       0.000000
      0.458333       0.375000       0.000000
      0.458333       0.416667       0.000000
      0.416667       0.416667       0.000000
      0.333333       0.416667       0.000000
      0.375000       0.416667       0.000000
      0.375000       0.458333       0.000000
      0.333333       0.458333       0.000000
      0.375000       0.416667       0.000000
      0.416667       0.416667       0.000000
      0.416667       0.458333       0.000000
      0.375000       0.458333       0.000000
      0.333333       0.458333       0.000000
      0.375000       0.458333       0.000000
      0.375000       0.500000       0.000000
      0.333333       0.500000       0.000000
      0.375000       0.458333       0.000000
      0.416667       0.458333       0.000000
      0.416667       0.500000       0.000000
      0.375000       0.500000       0.000000
      0.416667       0.416667       0.000000
      0.437500       0.416667       0.000000
      0.437500       0.437500       0.000000
      0.416667       0.437500       0.000000
      0.437500       0.416667       0.000000
      0.458333       0.416667       0.000000
      0.458333       0.437500       0.000000
      0.437500       0.437500       0.000000
      0.416667       0.437500       0.000000
      0.437500       0.437500       0.000000
      0.437500       0.458333       0.000000
      0.416667       0.458333       0.000000
      0.437500       0.437500       0.000000
      0.458333       0.437500       0.000000
      0.458333       0.458333       0.000000
      0.437500       0.458333       0.000000
      0.458333       0.416667       0.000000
      0.479167       0.416667       0.000000
      0.479167       0.437500       0.000000
      0.458333       0.437500       0.000000
      0.458333       0.437500       0.000000
      0.479167       0.437500       0.000000
      0.479167       0.458333       0.000000
      0.458333       0.458333       0.000000
      0.416667       0.458333       0.000000
      0.437500       0.458333       0.000000
      0.437500       0.479167       0.000000
      0.416667       0.479167       0.000000
      0.437500       0.458333       0.000000
      0.458333       0.458333       0.000000
      0.458333       0.479167       0.000000
      0.437500       0.479167       0.000000
      0.416667       0.479167       0.000000
      0.437500       0.479167       0.000000
      0.437500       0.500000       0.000000
      0.416667       0.500000       0.000000
      0.437500       0.479167       0.000000
      0.458333       0.479167       0.000000
      0.458333       0.500000       0.000000
      0.437500       0.500000       0.000000
      0.458333       0.458333       0.000000
      0.468750       0.458333       0.000000
      0.468750       0.468750       0.000000
      0.458333       0.468750       0.000000
      0.468750       0.458333       0.000000
      0.479167       0.458333       0.000000
      0.479167       0.468750       0.000000
      0.468750       0.468750       0.000000
      0.458333       0.468750       0.000000
      0.468750       0.468750       0.000000
      0.468750       0.479167       0.000000
      0.458333       0.479167       0.000000
      0.468750       0.468750       0.000000
      0.479167       0.468750       0.000000
      0.479167       0.479167       0.000000
      0.468750       0.479167       0.000000
      0.479167       0.458333       0.000000
      0.489583       0.458333       0.000000
      0.489583       0.468750       0.000000
      0.479167       0.468750       0.000000
[...]
POINT_DATA  1812
VECTORS U float 
      0.000000       0.000000       0.000000
      0.000000       0.000000       0.000000
      0.000287       0.000000       0.000000
      0.000279       0.000000       0.000000
      0.000000       0.000000       0.000000
      0.000000       0.000000       0.000000
      0.000313       0.000003       0.000000
      0.000287       0.000000       0.000000
      0.000279       0.000000       0.000000
      0.000287       0.000000       0.000000
      0.000526      -0.000009       0.000000
      0.000513       0.000000       0.000000
      0.000287       0.000000       0.000000
      0.000313       0.000003       0.000000
      0.000566      -0.000014       0.000000
      0.000526      -0.000009       0.000000
      0.000000       0.000000       0.000000
      0.000000       0.000000       0.000000
      0.000358       0.000013       0.000000
      0.000313       0.000003       0.000000
      0.000000       0.000000       0.000000
      0.000000       0.000000       0.000000
      0.000421       0.000034       0.000000
      0.000358       0.000013       0.000000
      0.000313       0.000003       0.000000
      0.000358       0.000013       0.000000
      0.000635      -0.000008       0.000000
      0.000566      -0.000014       0.000000
      0.000358       0.000013       0.000000
      0.000421       0.000034       0.000000
      0.000737       0.000020       0.000000
      0.000635      -0.000008       0.000000
      0.000000       0.000000       0.000000
      0.000000       0.000000       0.000000
      0.000494       0.000077       0.000000
      0.000421       0.000034       0.000000
      0.000000       0.000000       0.000000
      0.000000       0.000000       0.000000
      0.000556       0.000145       0.000000
      0.000494       0.000077       0.000000
      0.000421       0.000034       0.000000
      0.000494       0.000077       0.000000
      0.000872       0.000094       0.000000
      0.000737       0.000020       0.000000
      0.000494       0.000077       0.000000
      0.000556       0.000145       0.000000
      0.001028       0.000242       0.000000
      0.000872       0.000094       0.000000
      0.000513       0.000000       0.000000
      0.000526      -0.000009       0.000000
      0.000703      -0.000023       0.000000
      0.000689       0.000000       0.000000
      0.000526      -0.000009       0.000000
      0.000566      -0.000014       0.000000
      0.000744      -0.000041       0.000000
      0.000703      -0.000023       0.000000
      0.000689       0.000000       0.000000
      0.000703      -0.000023       0.000000
      0.000820      -0.000036       0.000000
      0.000810       0.000000       0.000000
      0.000703      -0.000023       0.000000
      0.000744      -0.000041       0.000000
      0.000851      -0.000067       0.000000
      0.000820      -0.000036       0.000000
      0.000566      -0.000014       0.000000
      0.000635      -0.000008       0.000000
      0.000815      -0.000048       0.000000
      0.000744      -0.000041       0.000000
      0.000635      -0.000008       0.000000
      0.000737       0.000020       0.000000
      0.000924      -0.000028       0.000000
      0.000815      -0.000048       0.000000
      0.000744      -0.000041       0.000000
      0.000815      -0.000048       0.000000
      0.000905      -0.000086       0.000000
      0.000851      -0.000067       0.000000
      0.000815      -0.000048       0.000000
      0.000924      -0.000028       0.000000
      0.000982      -0.000080       0.000000
      0.000905      -0.000086       0.000000
      0.000737       0.000020       0.000000
      0.000872       0.000094       0.000000
      0.001085       0.000042       0.000000
      0.000924      -0.000028       0.000000
      0.000924      -0.000028       0.000000
      0.001085       0.000042       0.000000
      0.001088      -0.000029       0.000000
      0.000982      -0.000080       0.000000
      0.000810       0.000000       0.000000
      0.000820      -0.000036       0.000000
      0.000893      -0.000045       0.000000
      0.000888       0.000000       0.000000
      0.000820      -0.000036       0.000000
      0.000851      -0.000067       0.000000
      0.000908      -0.000084       0.000000
      0.000893      -0.000045       0.000000
      0.000888       0.000000       0.000000
      0.000893      -0.000045       0.000000
      0.000943      -0.000047       0.000000
      0.000942       0.000000       0.000000
      0.000893      -0.000045       0.000000
      0.000908      -0.000084       0.000000
      0.000945      -0.000089       0.000000
      0.000943      -0.000047       0.000000
      0.000851      -0.000067       0.000000
      0.000905      -0.000086       0.000000
      0.000933      -0.000109       0.000000
      0.000908      -0.000084       0.000000
      0.000905      -0.000086       0.000000
      0.000982      -0.000080       0.000000
      0.000965      -0.000106       0.000000
      0.000933      -0.000109       0.000000
      0.000908      -0.000084       0.000000
      0.000933      -0.000109       0.000000
      0.000942      -0.000115       0.000000
      0.000945      -0.000089       0.000000
      0.000933      -0.000109       0.000000
      0.000965      -0.000106       0.000000
      0.000931      -0.000109       0.000000
      0.000942      -0.000115       0.000000
      0.000982      -0.000080       0.000000
      0.001031      -0.000062       0.000000
      0.001010      -0.000079       0.000000
      0.000979      -0.000097       0.000000
      0.001031      -0.000062       0.000000
      0.001088      -0.000029       0.000000
      0.001043      -0.000046       0.000000
      0.001010      -0.000079       0.000000
      0.000979      -0.000097       0.000000
      0.001010      -0.000079       0.000000
      0.000981      -0.000087       0.000000
      0.000965      -0.000106       0.000000
      0.001010      -0.000079       0.000000
      0.001043      -0.000046       0.000000
      0.000995      -0.000051       0.000000
      0.000981      -0.000087       0.000000
      0.001088      -0.000029       0.000000
      0.001153       0.000024       0.000000
      0.001074       0.000008       0.000000
      0.001043      -0.000046       0.000000
      0.001043      -0.000046       0.000000
      0.001074       0.000008       0.000000
      0.001006       0.000005       0.000000
      0.000995      -0.000051       0.000000
      0.000965      -0.000106       0.000000
      0.000981      -0.000087       0.000000
      0.000951      -0.000089       0.000000
      0.000947      -0.000110       0.000000
      0.000981      -0.000087       0.000000
      0.000995      -0.000051       0.000000
      0.000954      -0.000051       0.000000
      0.000951      -0.000089       0.000000
      0.000947      -0.000110       0.000000
      0.000951      -0.000089       0.000000
      0.000921      -0.000087       0.000000
      0.000931      -0.000109       0.000000
      0.000951      -0.000089       0.000000
      0.000954      -0.000051       0.000000
      0.000912      -0.000049       0.000000
      0.000921      -0.000087       0.000000
      0.000995      -0.000051       0.000000
      0.001001      -0.000026       0.000000
      0.000977      -0.000026       0.000000
      0.000974      -0.000051       0.000000
      0.001001      -0.000026       0.000000
      0.001006       0.000005       0.000000
      0.000980       0.000004       0.000000
      0.000977      -0.000026       0.000000
      0.000974      -0.000051       0.000000
      0.000977      -0.000026       0.000000
      0.000955      -0.000025       0.000000
      0.000954      -0.000051       0.000000
      0.000977      -0.000026       0.000000
      0.000980       0.000004       0.000000
      0.000956       0.000004       0.000000
      0.000955      -0.000025       0.000000
      0.001006       0.000005       0.000000
      0.001011       0.000041       0.000000
      0.000983       0.000039       0.000000
      0.000980       0.000004       0.000000
      0.000980       0.000004       0.000000
      0.000983       0.000039       0.000000
      0.000958       0.000037       0.000000
      0.000956       0.000004       0.000000
      0.000954      -0.000051       0.000000
      0.000955      -0.000025       0.000000
      0.000933      -0.000025       0.000000
      0.000934      -0.000050       0.000000
      0.000955      -0.000025       0.000000
      0.000956       0.000004       0.000000
      0.000933       0.000003       0.000000
      0.000933      -0.000025       0.000000
      0.000934      -0.000050       0.000000
      0.000933      -0.000025       0.000000
      0.000909      -0.000025       0.000000
      0.000912      -0.000049       0.000000
      0.000933      -0.000025       0.000000
      0.000933       0.000003       0.000000
      0.000908       0.000003       0.000000
      0.000909      -0.000025       0.000000
      0.000956       0.000004       0.000000
      0.000957       0.000020       0.000000
      0.000946       0.000019       0.000000
      0.000945       0.000004       0.000000
      0.000957       0.000020       0.000000
      0.000958       0.000037       0.000000
      0.000947       0.000035       0.000000
      0.000946       0.000019       0.000000
      0.000945       0.000004       0.000000
      0.000946       0.000019       0.000000
      0.000934       0.000018       0.000000
      0.000933       0.000003       0.000000
      0.000946       0.000019       0.000000
      0.000947       0.000035       0.000000
      0.000936       0.000034       0.000000
      0.000934       0.000018       0.000000
      0.000958       0.000037       0.000000
      0.000961       0.000055       0.000000
      0.000950       0.000053       0.000000
      0.000947       0.000035       0.000000
      0.000961       0.000055       0.000000
      0.000966       0.000075       0.000000
      0.000956       0.000079       0.000000
      0.000950       0.000053       0.000000
      0.000947       0.000035       0.000000
      0.000950       0.000053       0.000000
      0.000939       0.000050       0.000000
      0.000936       0.000034       0.000000
      0.000950       0.000053       0.000000
      0.000956       0.000079       0.000000
      0.000935       0.000083       0.000000
      0.000939       0.000050       0.000000
      0.000933       0.000003       0.000000
      0.000934       0.000018       0.000000
      0.000922       0.000018       0.000000
      0.000922       0.000003       0.000000
      0.000934       0.000018       0.000000
      0.000936       0.000034       0.000000
      0.000924       0.000032       0.000000
      0.000922       0.000018       0.000000
      0.000922       0.000003       0.000000
      0.000922       0.000018       0.000000
      0.000910       0.000018       0.000000
      0.000908       0.000003       0.000000
      0.000922       0.000018       0.000000
      0.000924       0.000032       0.000000
      0.000917       0.000035       0.000000
      0.000910       0.000018       0.000000
      0.000936       0.000034       0.000000
      0.000939       0.000050       0.000000
      0.000927       0.000042       0.000000
      0.000924       0.000032       0.000000
      0.000939       0.000050       0.000000
      0.000935       0.000083       0.000000
      0.000648       0.000077       0.000000
      0.000927       0.000042       0.000000
      0.000924       0.000032       0.000000
      0.000927       0.000042       0.000000
      0.000971       0.000059       0.000000
      0.000917       0.000035       0.000000
      0.000927       0.000042       0.000000
      0.000648       0.000077       0.000000
      0.008530       0.000837       0.000000
      0.000971       0.000059       0.000000
      0.000983       0.000039       0.000000
      0.000985       0.000058       0.000000
      0.000972       0.000057       0.000000
      0.000970       0.000038       0.000000
      0.000985       0.000058       0.000000
      0.000987       0.000079       0.000000
      0.000976       0.000077       0.000000
      0.000972       0.000057       0.000000
      0.000970       0.000038       0.000000
      0.000972       0.000057       0.000000
      0.000961       0.000055       0.000000
      0.000958       0.000037       0.000000
      0.000972       0.000057       0.000000
      0.000976       0.000077       0.000000
      0.000966       0.000075       0.000000
      0.000961       0.000055       0.000000
      0.001074       0.000008       0.000000
      0.001088       0.000045       0.000000
      0.001045       0.000042       0.000000
      0.001038       0.000005       0.000000
      0.001088       0.000045       0.000000
      0.001101       0.000092       0.000000
      0.001053       0.000089       0.000000
      0.001045       0.000042       0.000000
      0.001038       0.000005       0.000000
      0.001045       0.000042       0.000000
      0.001011       0.000041       0.000000
      0.001006       0.000005       0.000000
      0.001011       0.000041       0.000000
      0.001013       0.000062       0.000000
      0.000998       0.000060       0.000000
      0.000996       0.000040       0.000000
      0.001013       0.000062       0.000000
      0.001016       0.000084       0.000000
      0.001001       0.000082       0.000000
      0.000998       0.000060       0.000000
      0.000996       0.000040       0.000000
      0.000998       0.000060       0.000000
      0.000985       0.000058       0.000000
      0.000983       0.000039       0.000000
      0.000998       0.000060       0.000000
      0.001001       0.000082       0.000000
      0.000987       0.000079       0.000000
      0.000985       0.000058       0.000000
      0.001045       0.000042       0.000000
      0.001049       0.000064       0.000000
      0.001030       0.000063       0.000000
      0.001027       0.000042       0.000000
      0.001049       0.000064       0.000000
      0.001053       0.000089       0.000000
      0.001033       0.000087       0.000000
      0.001030       0.000063       0.000000
      0.001027       0.000042       0.000000
      0.001030       0.000063       0.000000
      0.001013       0.000062       0.000000
      0.001011       0.000041       0.000000
      0.001030       0.000063       0.000000
      0.001033       0.000087       0.000000
      0.001016       0.000084       0.000000
      0.001013       0.000062       0.000000
      0.001085       0.000042       0.000000
      0.001195       0.000112       0.000000
      0.001208       0.000063       0.000000
      0.001109       0.000003       0.000000
      0.001195       0.000112       0.000000
      0.001336       0.000224       0.000000
      0.001341       0.000162       0.000000
      0.001208       0.000063       0.000000
      0.001109       0.000003       0.000000
      0.001208       0.000063       0.000000
      0.001153       0.000024       0.000000
      0.001088      -0.000029       0.000000
      0.001153       0.000024       0.000000
      0.001190       0.000061       0.000000
      0.001138       0.000050       0.000000
      0.001114       0.000013       0.000000
      0.001190       0.000061       0.000000
      0.001230       0.000110       0.000000
      0.001161       0.000098       0.000000
      0.001138       0.000050       0.000000
      0.001114       0.000013       0.000000
      0.001138       0.000050       0.000000
      0.001088       0.000045       0.000000
      0.001074       0.000008       0.000000
      0.001138       0.000050       0.000000
      0.001161       0.000098       0.000000
      0.001101       0.000092       0.000000
      0.001088       0.000045       0.000000
      0.001208       0.000063       0.000000
      0.001269       0.000106       0.000000
      0.001237       0.000080       0.000000
      0.001187       0.000041       0.000000
      0.001269       0.000106       0.000000
      0.001341       0.000162       0.000000
      0.001295       0.000131       0.000000
      0.001237       0.000080       0.000000
      0.001187       0.000041       0.000000
      0.001237       0.000080       0.000000
      0.001190       0.000061       0.000000
      0.001153       0.000024       0.000000
      0.001237       0.000080       0.000000
      0.001295       0.000131       0.000000
      0.001230       0.000110       0.000000
      0.001190       0.000061       0.000000
      0.000872       0.000094       0.000000
      0.000950       0.000158       0.000000
      0.001104       0.000148       0.000000
      0.001004       0.000076       0.000000
      0.000950       0.000158       0.000000
      0.001028       0.000242       0.000000
      0.001216       0.000252       0.000000
      0.001104       0.000148       0.000000
      0.001004       0.000076       0.000000
      0.001104       0.000148       0.000000
      0.001195       0.000112       0.000000
      0.001085       0.000042       0.000000
      0.001104       0.000148       0.000000
      0.001216       0.000252       0.000000
      0.001336       0.000224       0.000000
      0.001195       0.000112       0.000000
      0.000000       0.000000       0.000000
      0.000000       0.000000       0.000000
      0.000580       0.000207       0.000000
      0.000556       0.000145       0.000000
      0.000000       0.000000       0.000000
      0.000000       0.000000       0.000000
      0.000578       0.000201       0.000000
      0.000580       0.000207       0.000000
      0.000556       0.000145       0.000000
      0.000580       0.000207       0.000000
      0.001144       0.000413       0.000000
      0.001028       0.000242       0.000000
      0.000580       0.000207       0.000000
      0.000578       0.000201       0.000000
      0.001213       0.000389       0.000000
      0.001144       0.000413       0.000000
      0.000000       0.000000       0.000000
      0.000000       0.000000       0.000000
      0.000599       0.000135       0.000000
      0.000578       0.000201       0.000000
      0.000000       0.000000       0.000000
      0.000000       0.000000       0.000000
      0.000643       0.000070       0.000000
      0.000599       0.000135       0.000000
      0.000578       0.000201       0.000000
      0.000599       0.000135       0.000000
      0.001326       0.000224       0.000000
      0.001213       0.000389       0.000000
      0.000599       0.000135       0.000000
      0.000643       0.000070       0.000000
      0.001445       0.000099       0.000000
      0.001326       0.000224       0.000000
      0.000000       0.000000       0.000000
      0.000000       0.000000       0.000000
      0.000683       0.000028       0.000000
      0.000643       0.000070       0.000000
      0.000000       0.000000       0.000000
      0.000000       0.000000       0.000000
      0.000698       0.000000       0.000000
      0.000683       0.000028       0.000000
      0.000643       0.000070       0.000000
      0.000683       0.000028       0.000000
      0.001525       0.000034       0.000000
      0.001445       0.000099       0.000000
      0.000683       0.000028       0.000000
      0.000698       0.000000       0.000000
      0.001553       0.000000       0.000000
      0.001525       0.000034       0.000000
      0.001213       0.000389       0.000000
      0.001326       0.000224       0.000000
      0.002287       0.000218       0.000000
      0.001990       0.000507       0.000000
      0.001326       0.000224       0.000000
      0.001445       0.000099       0.000000
      0.002477       0.000075       0.000000
      0.002287       0.000218       0.000000
      0.002287       0.000218       0.000000
      0.002477       0.000075       0.000000
      0.003806       0.000035       0.000000