# vtk DataFile Version 2.0
time_10.vtk
ASCII
DATASET UNSTRUCTURED_GRID
POINTS  2352 float
      0.000000       0.000000       0.000000
      0.083333       0.000000       0.000000
      0.083333       0.083333       0.000000
      0.000000       0.083333       0.000000
      0.083333       0.000000       0.000000
      0.166667       0.000000       0.000000
      0.166667       0.083333       0.000000
      0.083333       0.083333       0.000000
      0.000000       0.083333       0.000000
      0.083333       0.083333       0.000000
      0.083333       0.166667       0.000000
      0.000000       0.166667       0.000000
      0.083333       0.083333       0.000000
      0.166667       0.083333       0.000000
      0.166667       0.166667       0.000000
      0.083333       0.166667       0.000000
      0.166667       0.000000       0.000000
      0.250000       0.000000       0.000000
      0.250000       0.083333       0.000000
      0.166667       0.083333       0.000000
      0.250000       0.000000       0.000000
      0.333333       0.000000       0.000000
      0.333333       0.083333       0.000000
      0.250000       0.083333       0.000000
      0.166667       0.083333       0.000000
      0.250000       0.083333       0.000000
      0.250000       0.166667       0.000000
      0.166667       0.166667       0.000000
      0.250000       0.083333       0.000000
      0.333333       0.083333       0.000000
      0.333333       0.166667       0.000000
      0.250000       0.166667       0.000000
      0.333333       0.000000       0.000000
      0.416667      -0.000000       0.000000
      0.416667       0.083333       0.000000
      0.333333       0.083333       0.000000
      0.416667      -0.000000       0.000000
      0.500000       0.000000       0.000000
      0.500000       0.083333       0.000000
      0.416667       0.083333       0.000000
      0.333333       0.083333       0.000000
      0.416667       0.083333       0.000000
      0.416667       0.166667       0.000000
      0.333333       0.166667       0.000000
      0.416667       0.083333       0.000000
      0.500000       0.083333       0.000000
      0.500000       0.166667       0.000000
      0.416667       0.166667       0.000000
      0.000000       0.166667       0.000000
      0.083333       0.166667       0.000000
      0.083333       0.250000       0.000000
      0.000000       0.250000       0.000000
      0.083333       0.166667       0.000000
      0.166667       0.166667       0.000000
      0.166667       0.250000       0.000000
      0.083333       0.250000       0.000000
      0.000000       0.250000       0.000000
      0.083333       0.250000       0.000000
      0.083333       0.333333       0.000000
      0.000000       0.333333       0.000000
      0.083333       0.250000       0.000000
      0.166667       0.250000       0.000000
      0.166667       0.333333       0.000000
      0.083333       0.333333       0.000000
      0.166667       0.166667       0.000000
      0.250000       0.166667       0.000000
      0.250000       0.250000       0.000000
      0.166667       0.250000       0.000000
      0.250000       0.166667       0.000000
      0.333333       0.166667       0.000000
      0.333333       0.250000       0.000000
      0.250000       0.250000       0.000000
      0.166667       0.250000       0.000000
      0.250000       0.250000       0.000000
      0.250000       0.333333       0.000000
      0.166667       0.333333       0.000000
      0.250000       0.250000       0.000000
      0.333333       0.250000       0.000000
      0.333333       0.333333       0.000000
      0.250000       0.333333       0.000000
      0.333333       0.166667       0.000000
      0.416667       0.166667       0.000000
      0.416667       0.250000       0.000000
      0.333333       0.250000       0.000000
      0.333333       0.250000       0.000000
      0.416667       0.250000       0.000000
      0.416667       0.333333       0.000000
      0.333333       0.333333       0.000000
      0.000000       0.333333       0.000000
      0.083333       0.333333       0.000000
      0.083333       0.416667       0.000000
     -0.000000       0.416667       0.000000
      0.083333       0.333333       0.000000
      0.166667       0.333333       0.000000
      0.166667       0.416667       0.000000
      0.083333       0.416667       0.000000
     -0.000000       0.416667       0.000000
      0.083333       0.416667       0.000000
      0.083333       0.500000       0.000000
      0.000000       0.500000       0.000000
      0.083333       0.416667       0.000000
      0.166667       0.416667       0.000000
      0.166667       0.500000       0.000000
      0.083333       0.500000       0.000000
      0.166667       0.333333       0.000000
      0.250000       0.333333       0.000000
      0.250000       0.416667       0.000000
      0.166667       0.416667       0.000000
      0.250000       0.333333       0.000000
      0.333333       0.333333       0.000000
      0.333333       0.416667       0.000000
      0.250000       0.416667       0.000000
      0.166667       0.416667       0.000000
      0.250000       0.416667       0.000000
      0.250000       0.500000       0.000000
      0.166667       0.500000       0.000000
      0.250000       0.416667       0.000000
      0.333333       0.416667       0.000000
      0.333333       0.500000       0.000000
      0.250000       0.500000       0.000000
      0.333333       0.333333       0.000000
      0.375000       0.333333       0.000000
      0.375000       0.375000       0.000000
      0.333333       0.375000       0.000000
      0.375000       0.333333       0.000000
      0.416667       0.333333       0.000000
      0.416667       0.375000       0.000000
      0.375000       0.375000       0.000000
      0.333333       0.375000       0.000000
      0.375000       0.375000       0.000000
      0.375000       0.416667       0.000000
      0.333333       0.416667       0.000000
      0.375000       0.375000       0.000000
      0.416667       0.375000       0.000000
      0.416667       0.416667       0.000000
      0.375000       0.416667       0.000000
      0.416667       0.333333       0.000000
      0.458333       0.333333       0.000000
      0.458333       0.375000       0.000000
      0.416667       0.375000       0.000000
      0.416667       0.375000       0.000000
      0.458333       0.375000       0.000000
      0.458333       0.416667       0.000000
      0.416667       0.416667       0.000000
      0.333333       0.416667       0.000000
      0.375000       0.416667       0.000000
      0.375000       0.458333       0.000000
      0.333333       0.458333       0.000000
      0.375000       0.416667       0.000000
      0.416667       0.416667       0.000000
      0.416667       0.458333       0.000000
      0.375000       0.458333       0.000000
      0.333333       0.458333       0.000000
      0.375000       0.458333       0.000000
      0.375000       0.500000       0.000000
      0.333333       0.500000       0.000000
      0.375000       0.458333       0.000000
      0.416667       0.458333       0.000000
      0.416667       0.500000       0.000000
      0.375000       0.500000       0.000000
      0.416667       0.416667       0.000000
      0.437500       0.416667       0.000000
      0.437500       0.437500       0.000000
      0.416667       0.437500       0.000000
      0.437500       0.416667       0.000000
      0.458333       0.416667       0.000000
      0.458333       0.437500       0.000000
      0.437500       0.437500       0.000000
      0.416667       0.437500       0.000000
      0.437500       0.437500       0.000000
      0.437500       0.458333       0.000000
      0.416667       0.458333       0.000000
      0.437500       0.437500       0.000000
      0.458333       0.437500       0.000000
      0.458333       0.458333       0.000000
      0.437500       0.458333       0.000000
      0.458333       0.416667       0.000000
      0.479167       0.416667       0.000000
      0.479167       0.437500       0.000000
      0.458333       0.437500       0.000000
      0.458333       0.437500       0.000000
      0.479167       0.437500       0.000000
      0.479167       0.458333       0.000000
      0.458333       0.458333       0.000000
      0.416667       0.458333       0.000000
      0.437500       0.458333       0.000000
      0.437500       0.479167       0.000000
      0.416667       0.479167       0.000000
      0.437500       0.458333       0.000000
      0.458333       0.458333       0.000000
      0.458333       0.479167       0.000000
      0.437500       0.479167       0.000000
      0.416667       0.479167       0.000000
      0.437500       0.479167       0.000000
      0.437500       0.500000       0.000000
      0.416667       0.500000       0.000000
      0.437500       0.479167       0.000000
      0.458333       0.479167       0.000000
      0.458333       0.500000       0.000000
      0.437500       0.500000       0.000000
      0.458333       0.458333       0.000000
      0.468750       0.458333       0.000000
      0.468750       0.468750       0.000000
      0.458333       0.468750       0.000000
      0.468750       0.458333       0.000000
      0.479167       0.458333       0.000000
      0.479167       0.468750       0.000000
      0.468750       0.468750       0.000000
      0.458333       0.468750       0.000000
      0.468750       0.468750       0.000000
      0.468750       0.479167       0.000000
      0.458333       0.479167       0.000000
      0.468750       0.468750       0.000000
      0.479167       0.468750       0.000000
      0.479167       0.479167       0.000000
      0.468750       0.479167       0.000000
      0.479167       0.458333       0.000000
      0.489583       0.458333       0.000000
      0.489583       0.468750       0.000000
      0.479167       0.468750       0.000000
[...]
POINT_DATA  2352
VECTORS U float 
      0.000000       0.000000       0.000000
      0.000000       0.000000       0.000000
      0.000125      -0.000003       0.000000
      0.000121       0.000000       0.000000
      0.000000       0.000000       0.000000
      0.000000       0.000000       0.000000
      0.000139      -0.000005       0.000000
      0.000125      -0.000003       0.000000
      0.000121       0.000000       0.000000
      0.000125      -0.000003       0.000000
      0.000233      -0.000010       0.000000
      0.000227       0.000000       0.000000
      0.000125      -0.000003       0.000000
      0.000139      -0.000005       0.000000
      0.000252      -0.000020       0.000000
      0.000233      -0.000010       0.000000
      0.000000       0.000000       0.000000
      0.000000       0.000000       0.000000
      0.000164      -0.000007       0.000000
      0.000139      -0.000005       0.000000
      0.000000       0.000000       0.000000
      0.000000       0.000000       0.000000
      0.000207      -0.000007       0.000000
      0.000164      -0.000007       0.000000
      0.000139      -0.000005       0.000000
      0.000164      -0.000007       0.000000
      0.000288      -0.000030       0.000000
      0.000252      -0.000020       0.000000
      0.000164      -0.000007       0.000000
      0.000207      -0.000007       0.000000
      0.000344      -0.000039       0.000000
      0.000288      -0.000030       0.000000
      0.000000       0.000000       0.000000
      0.000000       0.000000       0.000000
      0.000275      -0.000000       0.000000
      0.000207      -0.000007       0.000000
      0.000000       0.000000       0.000000
      0.000000       0.000000       0.000000
      0.000379       0.000028       0.000000
      0.000275      -0.000000       0.000000
      0.000207      -0.000007       0.000000
      0.000275      -0.000000       0.000000
      0.000429      -0.000042       0.000000
      0.000344      -0.000039       0.000000
      0.000275      -0.000000       0.000000
      0.000379       0.000028       0.000000
      0.000557      -0.000019       0.000000
      0.000429      -0.000042       0.000000
      0.000227       0.000000       0.000000
      0.000233      -0.000010       0.000000
      0.000316      -0.000018       0.000000
      0.000310       0.000000       0.000000
      0.000233      -0.000010       0.000000
      0.000252      -0.000020       0.000000
      0.000335      -0.000037       0.000000
      0.000316      -0.000018       0.000000
      0.000310       0.000000       0.000000
      0.000316      -0.000018       0.000000
      0.000376      -0.000025       0.000000
      0.000372       0.000000       0.000000
      0.000316      -0.000018       0.000000
      0.000335      -0.000037       0.000000
      0.000389      -0.000049       0.000000
      0.000376      -0.000025       0.000000
      0.000252      -0.000020       0.000000
      0.000288      -0.000030       0.000000
      0.000366      -0.000055       0.000000
      0.000335      -0.000037       0.000000
      0.000288      -0.000030       0.000000
      0.000344      -0.000039       0.000000
      0.000412      -0.000072       0.000000
      0.000366      -0.000055       0.000000
      0.000335      -0.000037       0.000000
      0.000366      -0.000055       0.000000
      0.000410      -0.000073       0.000000
      0.000389      -0.000049       0.000000
      0.000366      -0.000055       0.000000
      0.000412      -0.000072       0.000000
      0.000437      -0.000091       0.000000
      0.000410      -0.000073       0.000000
      0.000344      -0.000039       0.000000
      0.000429      -0.000042       0.000000
      0.000472      -0.000082       0.000000
      0.000412      -0.000072       0.000000
      0.000412      -0.000072       0.000000
      0.000472      -0.000082       0.000000
      0.000465      -0.000097       0.000000
      0.000437      -0.000091       0.000000
      0.000372       0.000000       0.000000
      0.000376      -0.000025       0.000000
      0.000419      -0.000029       0.000000
      0.000416       0.000000       0.000000
      0.000376      -0.000025       0.000000
      0.000389      -0.000049       0.000000
      0.000426      -0.000057       0.000000
      0.000419      -0.000029       0.000000
      0.000416       0.000000       0.000000
      0.000419      -0.000029       0.000000
      0.000452      -0.000030       0.000000
      0.000450       0.000000       0.000000
      0.000419      -0.000029       0.000000
      0.000426      -0.000057       0.000000
      0.000454      -0.000059       0.000000
      0.000452      -0.000030       0.000000
      0.000389      -0.000049       0.000000
      0.000410      -0.000073       0.000000
      0.000436      -0.000082       0.000000
      0.000426      -0.000057       0.000000
      0.000410      -0.000073       0.000000
      0.000437      -0.000091       0.000000
      0.000447      -0.000099       0.000000
      0.000436      -0.000082       0.000000
      0.000426      -0.000057       0.000000
      0.000436      -0.000082       0.000000
      0.000456      -0.000084       0.000000
      0.000454      -0.000059       0.000000
      0.000436      -0.000082       0.000000
      0.000447      -0.000099       0.000000
      0.000455      -0.000100       0.000000
      0.000456      -0.000084       0.000000
      0.000437      -0.000091       0.000000
      0.000451      -0.000097       0.000000
      0.000452      -0.000100       0.000000
      0.000443      -0.000096       0.000000
      0.000451      -0.000097       0.000000
      0.000465      -0.000097       0.000000
      0.000460      -0.000099       0.000000
      0.000452      -0.000100       0.000000
      0.000443      -0.000096       0.000000
      0.000452      -0.000100       0.000000
      0.000453      -0.000101       0.000000
      0.000447      -0.000099       0.000000
      0.000452      -0.000100       0.000000
      0.000460      -0.000099       0.000000
      0.000457      -0.000099       0.000000
      0.000453      -0.000101       0.000000
      0.000465      -0.000097       0.000000
      0.000477      -0.000091       0.000000
      0.000467      -0.000091       0.000000
      0.000460      -0.000099       0.000000
      0.000460      -0.000099       0.000000
      0.000467      -0.000091       0.000000
      0.000461      -0.000091       0.000000
      0.000457      -0.000099       0.000000
      0.000447      -0.000099       0.000000
      0.000453      -0.000101       0.000000
      0.000453      -0.000102       0.000000
      0.000451      -0.000100       0.000000
      0.000453      -0.000101       0.000000
      0.000457      -0.000099       0.000000
      0.000456      -0.000099       0.000000
      0.000453      -0.000102       0.000000
      0.000451      -0.000100       0.000000
      0.000453      -0.000102       0.000000
      0.000454      -0.000102       0.000000
      0.000455      -0.000100       0.000000
      0.000453      -0.000102       0.000000
      0.000456      -0.000099       0.000000
      0.000453      -0.000100       0.000000
      0.000454      -0.000102       0.000000
      0.000457      -0.000099       0.000000
      0.000459      -0.000096       0.000000
      0.000458      -0.000096       0.000000
      0.000456      -0.000099       0.000000
      0.000459      -0.000096       0.000000
      0.000461      -0.000091       0.000000
      0.000460      -0.000091       0.000000
      0.000458      -0.000096       0.000000
      0.000456      -0.000099       0.000000
      0.000458      -0.000096       0.000000
      0.000457      -0.000096       0.000000
      0.000456      -0.000099       0.000000
      0.000458      -0.000096       0.000000
      0.000460      -0.000091       0.000000
      0.000459      -0.000092       0.000000
      0.000457      -0.000096       0.000000
      0.000461      -0.000091       0.000000
      0.000463      -0.000085       0.000000
      0.000462      -0.000085       0.000000
      0.000460      -0.000091       0.000000
      0.000460      -0.000091       0.000000
      0.000462      -0.000085       0.000000
      0.000461      -0.000087       0.000000
      0.000459      -0.000092       0.000000
      0.000456      -0.000099       0.000000
      0.000457      -0.000096       0.000000
      0.000456      -0.000097       0.000000
      0.000455      -0.000100       0.000000
      0.000457      -0.000096       0.000000
      0.000459      -0.000092       0.000000
      0.000457      -0.000093       0.000000
      0.000456      -0.000097       0.000000
      0.000455      -0.000100       0.000000
      0.000456      -0.000097       0.000000
      0.000454      -0.000097       0.000000
      0.000453      -0.000100       0.000000
      0.000456      -0.000097       0.000000
      0.000457      -0.000093       0.000000
      0.000455      -0.000093       0.000000
      0.000454      -0.000097       0.000000
      0.000459      -0.000092       0.000000
      0.000460      -0.000089       0.000000
      0.000459      -0.000090       0.000000
      0.000458      -0.000092       0.000000
      0.000460      -0.000089       0.000000
      0.000461      -0.000087       0.000000
      0.000461      -0.000087       0.000000
      0.000459      -0.000090       0.000000
      0.000458      -0.000092       0.000000
      0.000459      -0.000090       0.000000
      0.000458      -0.000091       0.000000
      0.000457      -0.000093       0.000000
      0.000459      -0.000090       0.000000
      0.000461      -0.000087       0.000000
      0.000460      -0.000089       0.000000
      0.000458      -0.000091       0.000000
      0.000461      -0.000087       0.000000
      0.000463      -0.000083       0.000000
      0.000463      -0.000084       0.000000
      0.000461      -0.000087       0.000000
      0.000463      -0.000083       0.000000
      0.000467      -0.000079       0.000000
      0.000468      -0.000073       0.000000
      0.000463      -0.000084       0.000000
      0.000461      -0.000087       0.000000
      0.000463      -0.000084       0.000000
      0.000463      -0.000086       0.000000
      0.000460      -0.000089       0.000000
      0.000463      -0.000084       0.000000
      0.000468      -0.000073       0.000000
      0.000468      -0.000064       0.000000
      0.000463      -0.000086       0.000000
      0.000457      -0.000093       0.000000
      0.000458      -0.000091       0.000000
      0.000458      -0.000091       0.000000
      0.000457      -0.000093       0.000000
      0.000458      -0.000091       0.000000
      0.000460      -0.000089       0.000000
      0.000460      -0.000091       0.000000
      0.000458      -0.000091       0.000000
      0.000457      -0.000093       0.000000
      0.000458      -0.000091       0.000000
      0.000458      -0.000091       0.000000
      0.000455      -0.000093       0.000000
      0.000458      -0.000091       0.000000
      0.000460      -0.000091       0.000000
      0.000465      -0.000087       0.000000
      0.000458      -0.000091       0.000000
      0.000460      -0.000089       0.000000
      0.000463      -0.000086       0.000000
      0.000463      -0.000092       0.000000
      0.000460      -0.000091       0.000000
      0.000463      -0.000086       0.000000
      0.000468      -0.000064       0.000000
      0.000299       0.000024       0.000000
      0.000463      -0.000092       0.000000
      0.000460      -0.000091       0.000000
      0.000463      -0.000092       0.000000
      0.000530      -0.000073       0.000000
      0.000465      -0.000087       0.000000
      0.000463      -0.000092       0.000000
      0.000299       0.000024       0.000000
      0.009515       0.000921       0.000000
      0.000530      -0.000073       0.000000
      0.000462      -0.000085       0.000000
      0.000463      -0.000082       0.000000
      0.000463      -0.000082       0.000000
      0.000461      -0.000086       0.000000
      0.000463      -0.000082       0.000000
      0.000465      -0.000078       0.000000
      0.000465      -0.000079       0.000000
      0.000463      -0.000082       0.000000
      0.000461      -0.000086       0.000000
      0.000463      -0.000082       0.000000
      0.000463      -0.000083       0.000000
      0.000461      -0.000087       0.000000
      0.000463      -0.000082       0.000000
      0.000465      -0.000079       0.000000
      0.000467      -0.000079       0.000000
      0.000463      -0.000083       0.000000
      0.000467      -0.000091       0.000000
      0.000469      -0.000084       0.000000
      0.000466      -0.000084       0.000000
      0.000463      -0.000091       0.000000
      0.000469      -0.000084       0.000000
      0.000472      -0.000075       0.000000
      0.000468      -0.000075       0.000000
      0.000466      -0.000084       0.000000
      0.000463      -0.000091       0.000000
      0.000466      -0.000084       0.000000
      0.000463      -0.000085       0.000000
      0.000461      -0.000091       0.000000
      0.000463      -0.000085       0.000000
      0.000464      -0.000081       0.000000
      0.000463      -0.000081       0.000000
      0.000462      -0.000085       0.000000
      0.000464      -0.000081       0.000000
      0.000465      -0.000076       0.000000
      0.000465      -0.000077       0.000000
      0.000463      -0.000081       0.000000
      0.000462      -0.000085       0.000000
      0.000463      -0.000081       0.000000
      0.000463      -0.000082       0.000000
      0.000462      -0.000085       0.000000
      0.000463      -0.000081       0.000000
      0.000465      -0.000077       0.000000
      0.000465      -0.000078       0.000000
      0.000463      -0.000082       0.000000
      0.000466      -0.000084       0.000000
      0.000467      -0.000080       0.000000
      0.000465      -0.000080       0.000000
      0.000464      -0.000084       0.000000
      0.000467      -0.000080       0.000000
      0.000468      -0.000075       0.000000
      0.000466      -0.000076       0.000000
      0.000465      -0.000080       0.000000
      0.000464      -0.000084       0.000000
      0.000465      -0.000080       0.000000
      0.000464      -0.000081       0.000000
      0.000463      -0.000085       0.000000
      0.000465      -0.000080       0.000000
      0.000466      -0.000076       0.000000
      0.000465      -0.000076       0.000000
      0.000464      -0.000081       0.000000
      0.000472      -0.000082       0.000000
      0.000506      -0.000079       0.000000
      0.000492      -0.000088       0.000000
      0.000471      -0.000092       0.000000
      0.000506      -0.000079       0.000000
      0.000544      -0.000067       0.000000
      0.000512      -0.000074       0.000000
      0.000492      -0.000088       0.000000
      0.000471      -0.000092       0.000000
      0.000492      -0.000088       0.000000
      0.000477      -0.000091       0.000000
      0.000465      -0.000097       0.000000
      0.000477      -0.000091       0.000000
      0.000482      -0.000084       0.000000
      0.000475      -0.000084       0.000000
      0.000471      -0.000091       0.000000
      0.000482      -0.000084       0.000000
      0.000487      -0.000075       0.000000
      0.000478      -0.000075       0.000000
      0.000475      -0.000084       0.000000
      0.000471      -0.000091       0.000000
      0.000475      -0.000084       0.000000
      0.000469      -0.000084       0.000000
      0.000467      -0.000091       0.000000
      0.000475      -0.000084       0.000000
      0.000478      -0.000075       0.000000
      0.000472      -0.000075       0.000000
      0.000469      -0.000084       0.000000
      0.000492      -0.000088       0.000000
      0.000502      -0.000083       0.000000
      0.000492      -0.000084       0.000000
      0.000484      -0.000090       0.000000
      0.000502      -0.000083       0.000000
      0.000512      -0.000074       0.000000
      0.000498      -0.000075       0.000000
      0.000492      -0.000084       0.000000
      0.000484      -0.000090       0.000000
      0.000492      -0.000084       0.000000
      0.000482      -0.000084       0.000000
      0.000477      -0.000091       0.000000
      0.000492      -0.000084       0.000000
      0.000498      -0.000075       0.000000
      0.000487      -0.000075       0.000000
      0.000482      -0.000084       0.000000
      0.000429      -0.000042       0.000000
      0.000486      -0.000036       0.000000
      0.000509      -0.000061       0.000000
      0.000461      -0.000064       0.000000
      0.000486      -0.000036       0.000000
      0.000557      -0.000019       0.000000
      0.000567      -0.000048       0.000000
      0.000509      -0.000061       0.000000
      0.000461      -0.000064       0.000000
      0.000509      -0.000061       0.000000
      0.000506      -0.000079       0.000000
      0.000472      -0.000082       0.000000
      0.000509      -0.000061       0.000000
      0.000567      -0.000048       0.000000
      0.000544      -0.000067       0.000000
      0.000506      -0.000079       0.000000
      0.000000       0.000000       0.000000
      0.000000       0.000000       0.000000
      0.000517       0.000116       0.000000
      0.000379       0.000028       0.000000
      0.000000       0.000000       0.000000
      0.000000       0.000000       0.000000
      0.000619       0.000274       0.000000
      0.000517       0.000116       0.000000
      0.000379       0.000028       0.000000
      0.000517       0.000116       0.000000
      0.000768       0.000095       0.000000
      0.000557      -0.000019       0.000000
      0.000000       0.000000       0.000000
      0.000000       0.000000       0.000000
      0.000650       0.000269       0.000000
      0.000619       0.000274       0.000000
      0.000000       0.000000       0.000000
      0.000000       0.000000       0.000000
      0.000729       0.000129       0.000000
      0.000650       0.000269       0.000000
      0.000650       0.000269       0.000000
      0.000729       0.000129       0.000000
      0.001799       0.000164       0.000000
      0.001532       0.000450       0.000000
      0.000000       0.000000       0.000000
      0.000000       0.000000       0.000000
      0.000810       0.000043       0.000000
      0.000729       0.000129       0.000000
      0.000000       0.000000       0.000000
      0.000000       0.000000       0.000000
      0.000841       0.000000       0.000000
      0.000810       0.000043       0.000000
      0.000729       0.000129       0.000000
      0.000810       0.000043       0.000000
      0.001934       0.000047       0.000000
      0.001799       0.000164       0.000000
      0.000810       0.000043       0.000000
      0.000841       0.000000       0.000000
      0.001975       0.000000       0.000000
      0.001934       0.000047       0.000000
      0.003370       0.000521       0.000000
      0.003396       0.000167       0.000000
      0.005180       0.000251       0.000000
      0.005337       0.000664       0.000000
      0.001799       0.000164       0.000000
      0.001934       0.000047       0.000000
      0.003428       0.000047       0.000000
      0.003396       0.000167       0.000000
      0.001934       0.000047       0.000000
      0.001975       0.000000       0.000000
      0.003439       0.000000       0.000000
      0.003428       0.000047       0.000000
      0.003396       0.000167       0.000000
      0.003428       0.000047       0.000000
      0.005093       0.000082       0.000000
      0.005180       0.000251       0.000000
      0.003428       0.000047       0.000000
      0.003439       0.000000       0.000000
      0.005067       0.000000       0.000000