# vtk DataFile Version 2.0
time_10.vtk
ASCII
DATASET UNSTRUCTURED_GRID
POINTS  1152 float
      0.000000       0.000000       0.000000
      0.083333       0.000000       0.000000
      0.083333       0.083333       0.000000
      0.000000       0.083333       0.000000
      0.083333       0.000000       0.000000
      0.166667       0.000000       0.000000
      0.166667       0.083333       0.000000
      0.083333       0.083333       0.000000
      0.000000       0.083333       0.000000
      0.083333       0.083333       0.000000
      0.083333       0.166667       0.000000
      0.000000       0.166667       0.000000
      0.083333       0.083333       0.000000
      0.166667       0.083333       0.000000
      0.166667       0.166667       0.000000
      0.083333       0.166667       0.000000
      0.166667       0.000000       0.000000
      0.250000       0.000000       0.000000
      0.250000       0.083333       0.000000
      0.166667       0.083333       0.000000
      0.250000       0.000000       0.000000
      0.333333       0.000000       0.000000
      0.333333       0.083333       0.000000
      0.250000       0.083333       0.000000
      0.166667       0.083333       0.000000
      0.250000       0.083333       0.000000
      0.250000       0.166667       0.000000
      0.166667       0.166667       0.000000
      0.250000       0.083333       0.000000
      0.333333       0.083333       0.000000
      0.333333       0.166667       0.000000
      0.250000       0.166667       0.000000
      0.333333       0.000000       0.000000
      0.416667      -0.000000       0.000000
      0.416667       0.083333       0.000000
      0.333333       0.083333       0.000000
      0.416667      -0.000000       0.000000
      0.500000       0.000000       0.000000
      0.500000       0.083333       0.000000
      0.416667       0.083333       0.000000
      0.333333       0.083333       0.000000
      0.416667       0.083333       0.000000
      0.416667       0.166667       0.000000
      0.333333       0.166667       0.000000
      0.416667       0.083333       0.000000
      0.500000       0.083333       0.000000
      0.500000       0.166667       0.000000
      0.416667       0.166667       0.000000
      0.000000       0.166667       0.000000
      0.083333       0.166667       0.000000
      0.083333       0.250000       0.000000
      0.000000       0.250000       0.000000
      0.083333       0.166667       0.000000
      0.166667       0.166667       0.000000
      0.166667       0.250000       0.000000
      0.083333       0.250000       0.000000
      0.000000       0.250000       0.000000
      0.083333       0.250000       0.000000
      0.083333       0.333333       0.000000
      0.000000       0.333333       0.000000
      0.083333       0.250000       0.000000
      0.166667       0.250000       0.000000
      0.166667       0.333333       0.000000
      0.083333       0.333333       0.000000
      0.166667       0.166667       0.000000
      0.250000       0.166667       0.000000
      0.250000       0.250000       0.000000
      0.166667       0.250000       0.000000
      0.250000       0.166667       0.000000
      0.333333       0.166667       0.000000
      0.333333       0.250000       0.000000
      0.250000       0.250000       0.000000
      0.166667       0.250000       0.000000
      0.250000       0.250000       0.000000
      0.250000       0.333333       0.000000
      0.166667       0.333333       0.000000
      0.250000       0.250000       0.000000
      0.333333       0.250000       0.000000
      0.333333       0.333333       0.000000
      0.250000       0.333333       0.000000
      0.333333       0.166667       0.000000
      0.416667       0.166667       0.000000
      0.416667       0.250000       0.000000
      0.333333       0.250000       0.000000
      0.416667       0.166667       0.000000
      0.500000       0.166667       0.000000
      0.500000       0.250000       0.000000
      0.416667       0.250000       0.000000
      0.333333       0.250000       0.000000
      0.416667       0.250000       0.000000
      0.416667       0.333333       0.000000
      0.333333       0.333333       0.000000
      0.416667       0.250000       0.000000
      0.500000       0.250000       0.000000
      0.500000       0.333333       0.000000
      0.416667       0.333333       0.000000
      0.000000       0.333333       0.000000
      0.083333       0.333333       0.000000
      0.083333       0.416667       0.000000
     -0.000000       0.416667       0.000000
      0.083333       0.333333       0.000000
      0.166667       0.333333       0.000000
      0.166667       0.416667       0.000000
      0.083333       0.416667       0.000000
     -0.000000       0.416667       0.000000
      0.083333       0.416667       0.000000
      0.083333       0.500000       0.000000
      0.000000       0.500000       0.000000
      0.083333       0.416667       0.000000
      0.166667       0.416667       0.000000
      0.166667       0.500000       0.000000
      0.083333       0.500000       0.000000
      0.166667       0.333333       0.000000
      0.250000       0.333333       0.000000
      0.250000       0.416667       0.000000
      0.166667       0.416667       0.000000
      0.250000       0.333333       0.000000
      0.333333       0.333333       0.000000
      0.333333       0.416667       0.000000
      0.250000       0.416667       0.000000
      0.166667       0.416667       0.000000
      0.250000       0.416667       0.000000
      0.250000       0.500000       0.000000
      0.166667       0.500000       0.000000
      0.250000       0.416667       0.000000
      0.333333       0.416667       0.000000
      0.333333       0.500000       0.000000
      0.250000       0.500000       0.000000
      0.333333       0.333333       0.000000
      0.375000       0.333333       0.000000
      0.375000       0.375000       0.000000
      0.333333       0.375000       0.000000
      0.375000       0.333333       0.000000
      0.416667       0.333333       0.000000
      0.416667       0.375000       0.000000
      0.375000       0.375000       0.000000
      0.333333       0.375000       0.000000
      0.375000       0.375000       0.000000
      0.375000       0.416667       0.000000
      0.333333       0.416667       0.000000
      0.375000       0.375000       0.000000
      0.416667       0.375000       0.000000
      0.416667       0.416667       0.000000
      0.375000       0.416667       0.000000
      0.416667       0.333333       0.000000
      0.458333       0.333333       0.000000
      0.458333       0.375000       0.000000
      0.416667       0.375000       0.000000
      0.458333       0.333333       0.000000
      0.500000       0.333333       0.000000
      0.500000       0.375000       0.000000
      0.458333       0.375000       0.000000
      0.416667       0.375000       0.000000
      0.458333       0.375000       0.000000
      0.458333       0.416667       0.000000
      0.416667       0.416667       0.000000
      0.458333       0.375000       0.000000
      0.500000       0.375000       0.000000
      0.500000       0.416667       0.000000
      0.458333       0.416667       0.000000
      0.333333       0.416667       0.000000
      0.375000       0.416667       0.000000
      0.375000       0.458333       0.000000
      0.333333       0.458333       0.000000
      0.375000       0.416667       0.000000
      0.416667       0.416667       0.000000
      0.416667       0.458333       0.000000
      0.375000       0.458333       0.000000
      0.333333       0.458333       0.000000
      0.375000       0.458333       0.000000
      0.375000       0.500000       0.000000
      0.333333       0.500000       0.000000
      0.375000       0.458333       0.000000
      0.416667       0.458333       0.000000
      0.416667       0.500000       0.000000
      0.375000       0.500000       0.000000
      0.416667       0.416667       0.000000
      0.437500       0.416667       0.000000
      0.437500       0.437500       0.000000
      0.416667       0.437500       0.000000
      0.437500       0.416667       0.000000
      0.458333       0.416667       0.000000
      0.458333       0.437500       0.000000
      0.437500       0.437500       0.000000
      0.416667       0.437500       0.000000
      0.437500       0.437500       0.000000
      0.437500       0.458333       0.000000
      0.416667       0.458333       0.000000
      0.437500       0.437500       0.000000
      0.458333       0.437500       0.000000
      0.458333       0.458333       0.000000
      0.437500       0.458333       0.000000
      0.458333       0.416667       0.000000
      0.479167       0.416667       0.000000
      0.479167       0.437500       0.000000
      0.458333       0.437500       0.000000
      0.479167       0.416667       0.000000
      0.500000       0.416667       0.000000
      0.500000       0.437500       0.000000
      0.479167       0.437500       0.000000
      0.458333       0.437500       0.000000
      0.479167       0.437500       0.000000
      0.479167       0.458333       0.000000
      0.458333       0.458333       0.000000
      0.479167       0.437500       0.000000
      0.500000       0.437500       0.000000
      0.500000       0.458333       0.000000
      0.479167       0.458333       0.000000
      0.416667       0.458333       0.000000
      0.437500       0.458333       0.000000
      0.437500       0.479167       0.000000
      0.416667       0.479167       0.000000
      0.437500       0.458333       0.000000
      0.458333       0.458333       0.000000
      0.458333       0.479167       0.000000
      0.437500       0.479167       0.000000
      0.416667       0.479167       0.000000
      0.437500       0.479167       0.000000
      0.437500       0.500000       0.000000
      0.416667       0.500000       0.000000
[...]
POINT_DATA  1152
VECTORS U float 
      0.000000       0.000000       0.000000
      0.000000       0.000000       0.000000
      0.000506       0.000019       0.000000
      0.000502       0.000000       0.000000
      0.000000       0.000000       0.000000
      0.000000       0.000000       0.000000
      0.000514       0.000039       0.000000
      0.000506       0.000019       0.000000
      0.000502       0.000000       0.000000
      0.000506       0.000019       0.000000
      0.000947       0.000032       0.000000
      0.000939       0.000000       0.000000
      0.000506       0.000019       0.000000
      0.000514       0.000039       0.000000
      0.000968       0.000068       0.000000
      0.000947       0.000032       0.000000
      0.000000       0.000000       0.000000
      0.000000       0.000000       0.000000
      0.000525       0.000061       0.000000
      0.000514       0.000039       0.000000
      0.000000       0.000000       0.000000
      0.000000       0.000000       0.000000
      0.000533       0.000084       0.000000
      0.000525       0.000061       0.000000
      0.000514       0.000039       0.000000
      0.000525       0.000061       0.000000
      0.000998       0.000111       0.000000
      0.000968       0.000068       0.000000
      0.000525       0.000061       0.000000
      0.000533       0.000084       0.000000
      0.001029       0.000159       0.000000
      0.000998       0.000111       0.000000
      0.000000       0.000000       0.000000
      0.000000       0.000000       0.000000
      0.000535       0.000102       0.000000
      0.000533       0.000084       0.000000
      0.000000       0.000000       0.000000
      0.000000       0.000000       0.000000
      0.000530       0.000107       0.000000
      0.000535       0.000102       0.000000
      0.000533       0.000084       0.000000
      0.000535       0.000102       0.000000
      0.001052       0.000201       0.000000
      0.001029       0.000159       0.000000
      0.000535       0.000102       0.000000
      0.000530       0.000107       0.000000
      0.001065       0.000216       0.000000
      0.001052       0.000201       0.000000
      0.000939       0.000000       0.000000
      0.000947       0.000032       0.000000
      0.001311       0.000038       0.000000
      0.001298       0.000000       0.000000
      0.000947       0.000032       0.000000
      0.000968       0.000068       0.000000
      0.001349       0.000082       0.000000
      0.001311       0.000038       0.000000
      0.001298       0.000000       0.000000
      0.001311       0.000038       0.000000
      0.001582       0.000033       0.000000
      0.001564       0.000000       0.000000
      0.001311       0.000038       0.000000
      0.001349       0.000082       0.000000
      0.001638       0.000075       0.000000
      0.001582       0.000033       0.000000
      0.000968       0.000068       0.000000
      0.000998       0.000111       0.000000
      0.001408       0.000139       0.000000
      0.001349       0.000082       0.000000
      0.000998       0.000111       0.000000
      0.001029       0.000159       0.000000
      0.001481       0.000211       0.000000
      0.001408       0.000139       0.000000
      0.001349       0.000082       0.000000
      0.001408       0.000139       0.000000
      0.001732       0.000134       0.000000
      0.001638       0.000075       0.000000
      0.001408       0.000139       0.000000
      0.001481       0.000211       0.000000
      0.001863       0.000220       0.000000
      0.001732       0.000134       0.000000
      0.001029       0.000159       0.000000
      0.001052       0.000201       0.000000
      0.001552       0.000285       0.000000
      0.001481       0.000211       0.000000
      0.001052       0.000201       0.000000
      0.001065       0.000216       0.000000
      0.001606       0.000319       0.000000
      0.001552       0.000285       0.000000
      0.001481       0.000211       0.000000
      0.001552       0.000285       0.000000
      0.002019       0.000334       0.000000
      0.001863       0.000220       0.000000
      0.001552       0.000285       0.000000
      0.001606       0.000319       0.000000
      0.002158       0.000413       0.000000
      0.002019       0.000334       0.000000
      0.001564       0.000000       0.000000
      0.001582       0.000033       0.000000
      0.001747       0.000019       0.000000
      0.001725       0.000000       0.000000
      0.001582       0.000033       0.000000
      0.001638       0.000075       0.000000
      0.001814       0.000047       0.000000
      0.001747       0.000019       0.000000
      0.001725       0.000000       0.000000
      0.001747       0.000019       0.000000
      0.001799       0.000001       0.000000
      0.001778       0.000000       0.000000
      0.001747       0.000019       0.000000
      0.001814       0.000047       0.000000
      0.001864       0.000009       0.000000
      0.001799       0.000001       0.000000
      0.001638       0.000075       0.000000
      0.001732       0.000134       0.000000
      0.001932       0.000092       0.000000
      0.001814       0.000047       0.000000
      0.001732       0.000134       0.000000
      0.001863       0.000220       0.000000
      0.002114       0.000166       0.000000
      0.001932       0.000092       0.000000
      0.001814       0.000047       0.000000
      0.001932       0.000092       0.000000
      0.001981       0.000030       0.000000
      0.001864       0.000009       0.000000
      0.001932       0.000092       0.000000
      0.002114       0.000166       0.000000
      0.002164       0.000072       0.000000
      0.001981       0.000030       0.000000
      0.001863       0.000220       0.000000
      0.001940       0.000274       0.000000
      0.002111       0.000259       0.000000
      0.002010       0.000201       0.000000
      0.001940       0.000274       0.000000
      0.002019       0.000334       0.000000
      0.002224       0.000329       0.000000
      0.002111       0.000259       0.000000
      0.002010       0.000201       0.000000
      0.002111       0.000259       0.000000
      0.002235       0.000220       0.000000
      0.002114       0.000166       0.000000
      0.002111       0.000259       0.000000
      0.002224       0.000329       0.000000
      0.002383       0.000292       0.000000
      0.002235       0.000220       0.000000
      0.002019       0.000334       0.000000
      0.002094       0.000388       0.000000
      0.002341       0.000408       0.000000
      0.002224       0.000329       0.000000
      0.002094       0.000388       0.000000
      0.002158       0.000413       0.000000
      0.002443       0.000456       0.000000
      0.002341       0.000408       0.000000
      0.002224       0.000329       0.000000
      0.002341       0.000408       0.000000
      0.002560       0.000396       0.000000
      0.002383       0.000292       0.000000
      0.002341       0.000408       0.000000
      0.002443       0.000456       0.000000
      0.002736       0.000496       0.000000
      0.002560       0.000396       0.000000
      0.002114       0.000166       0.000000
      0.002235       0.000220       0.000000
      0.002294       0.000164       0.000000
      0.002165       0.000121       0.000000
      0.002235       0.000220       0.000000
      0.002383       0.000292       0.000000
      0.002456       0.000222       0.000000
      0.002294       0.000164       0.000000
      0.002165       0.000121       0.000000
      0.002294       0.000164       0.000000
      0.002287       0.000104       0.000000
      0.002164       0.000072       0.000000
      0.002294       0.000164       0.000000
      0.002456       0.000222       0.000000
      0.002436       0.000146       0.000000
      0.002287       0.000104       0.000000
      0.002383       0.000292       0.000000
      0.002468       0.000340       0.000000
      0.002529       0.000307       0.000000
      0.002432       0.000260       0.000000
      0.002468       0.000340       0.000000
      0.002560       0.000396       0.000000
      0.002641       0.000369       0.000000
      0.002529       0.000307       0.000000
      0.002432       0.000260       0.000000
      0.002529       0.000307       0.000000
      0.002556       0.000262       0.000000
      0.002456       0.000222       0.000000
      0.002529       0.000307       0.000000
      0.002641       0.000369       0.000000
      0.002681       0.000320       0.000000
      0.002556       0.000262       0.000000
      0.002560       0.000396       0.000000
      0.002651       0.000456       0.000000
      0.002765       0.000447       0.000000
      0.002641       0.000369       0.000000
      0.002651       0.000456       0.000000
      0.002736       0.000496       0.000000
      0.002887       0.000513       0.000000
      0.002765       0.000447       0.000000
      0.002641       0.000369       0.000000
      0.002765       0.000447       0.000000
      0.002844       0.000413       0.000000
      0.002681       0.000320       0.000000
      0.002765       0.000447       0.000000
      0.002887       0.000513       0.000000
      0.003043       0.000526       0.000000
      0.002844       0.000413       0.000000
      0.002456       0.000222       0.000000
      0.002556       0.000262       0.000000
      0.002549       0.000215       0.000000
      0.002455       0.000183       0.000000
      0.002556       0.000262       0.000000
      0.002681       0.000320       0.000000
      0.002663       0.000257       0.000000
      0.002549       0.000215       0.000000
      0.002455       0.000183       0.000000
      0.002549       0.000215       0.000000
      0.002521       0.000173       0.000000
      0.002436       0.000146       0.000000
      0.002549       0.000215       0.000000
      0.002663       0.000257       0.000000
      0.002616       0.000207       0.000000
      0.002521       0.000173       0.000000
      0.002681       0.000320       0.000000
      0.002757       0.000361       0.000000
      0.002757       0.000326       0.000000
      0.002679       0.000289       0.000000
      0.002757       0.000361       0.000000
      0.002844       0.000413       0.000000
      0.002856       0.000379       0.000000
      0.002757       0.000326       0.000000
      0.002679       0.000289       0.000000
      0.002757       0.000326       0.000000
      0.002736       0.000288       0.000000
      0.002663       0.000257       0.000000
      0.002757       0.000326       0.000000
      0.002856       0.000379       0.000000
      0.002834       0.000333       0.000000
      0.002736       0.000288       0.000000
      0.002844       0.000413       0.000000
      0.002941       0.000474       0.000000
      0.002979       0.000453       0.000000
      0.002856       0.000379       0.000000
      0.002941       0.000474       0.000000
      0.003043       0.000526       0.000000
      0.003124       0.000528       0.000000
      0.002979       0.000453       0.000000
      0.002856       0.000379       0.000000
      0.002979       0.000453       0.000000
      0.002983       0.000411       0.000000
      0.002834       0.000333       0.000000
      0.002979       0.000453       0.000000
      0.003124       0.000528       0.000000
      0.003215       0.000522       0.000000
      0.002983       0.000411       0.000000
      0.002663       0.000257       0.000000
      0.002736       0.000288       0.000000
      0.002700       0.000253       0.000000
      0.002639       0.000230       0.000000
      0.002736       0.000288       0.000000
      0.002834       0.000333       0.000000
      0.002778       0.000284       0.000000
      0.002700       0.000253       0.000000
      0.002639       0.000230       0.000000
      0.002700       0.000253       0.000000
      0.002669       0.000227       0.000000
      0.002616       0.000207       0.000000
      0.002700       0.000253       0.000000
      0.002778       0.000284       0.000000
      0.002730       0.000252       0.000000
      0.002669       0.000227       0.000000
      0.002834       0.000333       0.000000
      0.002983       0.000411       0.000000
      0.002913       0.000338       0.000000
      0.002778       0.000284       0.000000
      0.002983       0.000411       0.000000
      0.003215       0.000522       0.000000
      0.003357       0.000491       0.000000
      0.002913       0.000338       0.000000
      0.002778       0.000284       0.000000
      0.002913       0.000338       0.000000
      0.002825       0.000287       0.000000
      0.002730       0.000252       0.000000
      0.002913       0.000338       0.000000
      0.003357       0.000491       0.000000
      0.005478       0.000386       0.000000
      0.002825       0.000287       0.000000
      0.000000       0.000000       0.000000
      0.000000       0.000000       0.000000
      0.000527       0.000096       0.000000
      0.000530       0.000107       0.000000
      0.000000       0.000000       0.000000
      0.000000       0.000000       0.000000
      0.000532       0.000073       0.000000
      0.000527       0.000096       0.000000
      0.000530       0.000107       0.000000
      0.000527       0.000096       0.000000
      0.001079       0.000189       0.000000
      0.001065       0.000216       0.000000
      0.000527       0.000096       0.000000
      0.000532       0.000073       0.000000
      0.001106       0.000135       0.000000
      0.001079       0.000189       0.000000
      0.000000       0.000000       0.000000
      0.000000       0.000000       0.000000
      0.000546       0.000048       0.000000
      0.000532       0.000073       0.000000
      0.000000       0.000000       0.000000
      0.000000       0.000000       0.000000
      0.000563       0.000027       0.000000
      0.000546       0.000048       0.000000
      0.000532       0.000073       0.000000
      0.000546       0.000048       0.000000
      0.001145       0.000080       0.000000
      0.001106       0.000135       0.000000
      0.000546       0.000048       0.000000
      0.000563       0.000027       0.000000
      0.001184       0.000040       0.000000
      0.001145       0.000080       0.000000
      0.000000       0.000000       0.000000
      0.000000       0.000000       0.000000
      0.000577       0.000012       0.000000
      0.000563       0.000027       0.000000
      0.000000       0.000000       0.000000
      0.000000       0.000000       0.000000
      0.000582       0.000000       0.000000
      0.000577       0.000012       0.000000
      0.000563       0.000027       0.000000
      0.000577       0.000012       0.000000
      0.001211       0.000016       0.000000
      0.001184       0.000040       0.000000
      0.000577       0.000012       0.000000
      0.000582       0.000000       0.000000
      0.001221       0.000000       0.000000
      0.001211       0.000016       0.000000
      0.001065       0.000216       0.000000
      0.001079       0.000189       0.000000
      0.001657       0.000269       0.000000
      0.001606       0.000319       0.000000
      0.001079       0.000189       0.000000
      0.001106       0.000135       0.000000
      0.001729       0.000171       0.000000
      0.001657       0.000269       0.000000
      0.001606       0.000319       0.000000
      0.001657       0.000269       0.000000
      0.002284       0.000320       0.000000
      0.002158       0.000413       0.000000
      0.001657       0.000269       0.000000
      0.001729       0.000171       0.000000
      0.002438       0.000161       0.000000
      0.002284       0.000320       0.000000
      0.001106       0.000135       0.000000
      0.001145       0.000080       0.000000
      0.001809       0.000087       0.000000
      0.001729       0.000171       0.000000
      0.001145       0.000080       0.000000
      0.001184       0.000040       0.000000
      0.001876       0.000036       0.000000
      0.001809       0.000087       0.000000
      0.001729       0.000171       0.000000
      0.001809       0.000087       0.000000
      0.002572       0.000058       0.000000
      0.002438       0.000161       0.000000
      0.001809       0.000087       0.000000
      0.001876       0.000036       0.000000
      0.002661       0.000012       0.000000
      0.002572       0.000058       0.000000
      0.001184       0.000040       0.000000
      0.001211       0.000016       0.000000
      0.001918       0.000011       0.000000
      0.001876       0.000036       0.000000
      0.001211       0.000016       0.000000
      0.001221       0.000000       0.000000
      0.001933       0.000000       0.000000
      0.001918       0.000011       0.000000
      0.001876       0.000036       0.000000
      0.001918       0.000011       0.000000
      0.002711      -0.000002       0.000000
      0.002661       0.000012       0.000000
      0.001918       0.000011       0.000000
      0.001933       0.000000       0.000000
      0.002727       0.000000       0.000000
      0.002711      -0.000002       0.000000
      0.002438       0.000161       0.000000
      0.002572       0.000058       0.000000
      0.003483       0.000002       0.000000
      0.003342       0.000084       0.000000
      0.002572       0.000058       0.000000
      0.002661       0.000012       0.000000
      0.003555      -0.000021       0.000000
      0.003483       0.000002       0.000000
      0.003342       0.000084       0.000000
      0.003483       0.000002       0.000000
      0.004538      -0.000027       0.000000
      0.004552       0.000022       0.000000
      0.003483       0.000002       0.000000
      0.003555      -0.000021       0.000000
      0.004531      -0.000036       0.000000
      0.004538      -0.000027       0.000000
      0.002661       0.000012       0.000000
      0.002711      -0.000002       0.000000
      0.003591      -0.000017       0.000000
      0.003555      -0.000021       0.000000
      0.002711      -0.000002       0.000000
      0.002727       0.000000       0.000000
      0.003602       0.000000       0.000000
      0.003591      -0.000017       0.000000
      0.003555      -0.000021       0.000000
      0.003591      -0.000017       0.000000
      0.004528      -0.000023       0.000000
      0.004531      -0.000036       0.000000
      0.003591      -0.000017       0.000000
      0.003602       0.000000       0.000000
      0.004527       0.000000       0.000000
      0.004528      -0.000023       0.000000
      0.002158       0.000413       0.000000
      0.002217       0.000388       0.000000
      0.002535       0.000422       0.000000
      0.002443       0.000456       0.000000
      0.002217       0.000388       0.000000
      0.002284       0.000320       0.000000
      0.002640       0.000322       0.000000
      0.002535       0.000422       0.000000
      0.002443       0.000456       0.000000
      0.002535       0.000422       0.000000
      0.002898       0.000442       0.000000
      0.002736       0.000496       0.000000
      0.002535       0.000422       0.000000
      0.002640       0.000322       0.000000
      0.003074       0.000290       0.000000
      0.002898       0.000442       0.000000
      0.002284       0.000320       0.000000
      0.002360       0.000237       0.000000
      0.002753       0.000215       0.000000
      0.002640       0.000322       0.000000
      0.002360       0.000237       0.000000
      0.002438       0.000161       0.000000
      0.002855       0.000130       0.000000
      0.002753       0.000215       0.000000
      0.002640       0.000322       0.000000
      0.002753       0.000215       0.000000
      0.003228       0.000166       0.000000