# vtk DataFile Version 2.0
time_10.vtk
ASCII
DATASET UNSTRUCTURED_GRID
POINTS  1596 float
      0.000000       0.000000       0.000000
      0.083333       0.000000       0.000000
      0.083333       0.083333       0.000000
      0.000000       0.083333       0.000000
      0.083333       0.000000       0.000000
      0.166667       0.000000       0.000000
      0.166667       0.083333       0.000000
      0.083333       0.083333       0.000000
      0.000000       0.083333       0.000000
      0.083333       0.083333       0.000000
      0.083333       0.166667       0.000000
      0.000000       0.166667       0.000000
      0.083333       0.083333       0.000000
      0.166667       0.083333       0.000000
      0.166667       0.166667       0.000000
      0.083333       0.166667       0.000000
      0.166667       0.000000       0.000000
      0.250000       0.000000       0.000000
      0.250000       0.083333       0.000000
      0.166667       0.083333       0.000000
      0.250000       0.000000       0.000000
      0.333333       0.000000       0.000000
      0.333333       0.083333       0.000000
      0.250000       0.083333       0.000000
      0.166667       0.083333       0.000000
      0.250000       0.083333       0.000000
      0.250000       0.166667       0.000000
      0.166667       0.166667       0.000000
      0.250000       0.083333       0.000000
      0.333333       0.083333       0.000000
      0.333333       0.166667       0.000000
      0.250000       0.166667       0.000000
      0.333333       0.000000       0.000000
      0.416667      -0.000000       0.000000
      0.416667       0.083333       0.000000
      0.333333       0.083333       0.000000
      0.416667      -0.000000       0.000000
      0.500000       0.000000       0.000000
      0.500000       0.083333       0.000000
      0.416667       0.083333       0.000000
      0.333333       0.083333       0.000000
      0.416667       0.083333       0.000000
      0.416667       0.166667       0.000000
      0.333333       0.166667       0.000000
      0.416667       0.083333       0.000000
      0.500000       0.083333       0.000000
      0.500000       0.166667       0.000000
      0.416667       0.166667       0.000000
      0.000000       0.166667       0.000000
      0.083333       0.166667       0.000000
      0.083333       0.250000       0.000000
      0.000000       0.250000       0.000000
      0.083333       0.166667       0.000000
      0.166667       0.166667       0.000000
      0.166667       0.250000       0.000000
      0.083333       0.250000       0.000000
      0.000000       0.250000       0.000000
      0.083333       0.250000       0.000000
      0.083333       0.333333       0.000000
      0.000000       0.333333       0.000000
      0.083333       0.250000       0.000000
      0.166667       0.250000       0.000000
      0.166667       0.333333       0.000000
      0.083333       0.333333       0.000000
      0.166667       0.166667       0.000000
      0.250000       0.166667       0.000000
      0.250000       0.250000       0.000000
      0.166667       0.250000       0.000000
      0.250000       0.166667       0.000000
      0.333333       0.166667       0.000000
      0.333333       0.250000       0.000000
      0.250000       0.250000       0.000000
      0.166667       0.250000       0.000000
      0.250000       0.250000       0.000000
      0.250000       0.333333       0.000000
      0.166667       0.333333       0.000000
      0.250000       0.250000       0.000000
      0.333333       0.250000       0.000000
      0.333333       0.333333       0.000000
      0.250000       0.333333       0.000000
      0.333333       0.166667       0.000000
      0.416667       0.166667       0.000000
      0.416667       0.250000       0.000000
      0.333333       0.250000       0.000000
      0.416667       0.166667       0.000000
      0.500000       0.166667       0.000000
      0.500000       0.250000       0.000000
      0.416667       0.250000       0.000000
      0.333333       0.250000       0.000000
      0.416667       0.250000       0.000000
      0.416667       0.333333       0.000000
      0.333333       0.333333       0.000000
      0.000000       0.333333       0.000000
      0.083333       0.333333       0.000000
      0.083333       0.416667       0.000000
     -0.000000       0.416667       0.000000
      0.083333       0.333333       0.000000
      0.166667       0.333333       0.000000
      0.166667       0.416667       0.000000
      0.083333       0.416667       0.000000
     -0.000000       0.416667       0.000000
      0.083333       0.416667       0.000000
      0.083333       0.500000       0.000000
      0.000000       0.500000       0.000000
      0.083333       0.416667       0.000000
      0.166667       0.416667       0.000000
      0.166667       0.500000       0.000000
      0.083333       0.500000       0.000000
      0.166667       0.333333       0.000000
      0.250000       0.333333       0.000000
      0.250000       0.416667       0.000000
      0.166667       0.416667       0.000000
      0.250000       0.333333       0.000000
      0.333333       0.333333       0.000000
      0.333333       0.416667       0.000000
      0.250000       0.416667       0.000000
      0.166667       0.416667       0.000000
      0.250000       0.416667       0.000000
      0.250000       0.500000       0.000000
      0.166667       0.500000       0.000000
      0.250000       0.416667       0.000000
      0.333333       0.416667       0.000000
      0.333333       0.500000       0.000000
      0.250000       0.500000       0.000000
      0.333333       0.333333       0.000000
      0.375000       0.333333       0.000000
      0.375000       0.375000       0.000000
      0.333333       0.375000       0.000000
      0.375000       0.333333       0.000000
      0.416667       0.333333       0.000000
      0.416667       0.375000       0.000000
      0.375000       0.375000       0.000000
      0.333333       0.375000       0.000000
      0.375000       0.375000       0.000000
      0.375000       0.416667       0.000000
      0.333333       0.416667       0.000000
      0.375000       0.375000       0.000000
      0.416667       0.375000       0.000000
      0.416667       0.416667       0.000000
      0.375000       0.416667       0.000000
      0.416667       0.333333       0.000000
      0.458333       0.333333       0.000000
      0.458333       0.375000       0.000000
      0.416667       0.375000       0.000000
      0.416667       0.375000       0.000000
      0.458333       0.375000       0.000000
      0.458333       0.416667       0.000000
      0.416667       0.416667       0.000000
      0.333333       0.416667       0.000000
      0.375000       0.416667       0.000000
      0.375000       0.458333       0.000000
      0.333333       0.458333       0.000000
      0.375000       0.416667       0.000000
      0.416667       0.416667       0.000000
      0.416667       0.458333       0.000000
      0.375000       0.458333       0.000000
      0.333333       0.458333       0.000000
      0.375000       0.458333       0.000000
      0.375000       0.500000       0.000000
      0.333333       0.500000       0.000000
      0.375000       0.458333       0.000000
      0.416667       0.458333       0.000000
      0.416667       0.500000       0.000000
      0.375000       0.500000       0.000000
      0.416667       0.416667       0.000000
      0.437500       0.416667       0.000000
      0.437500       0.437500       0.000000
      0.416667       0.437500       0.000000
      0.437500       0.416667       0.000000
      0.458333       0.416667       0.000000
      0.458333       0.437500       0.000000
      0.437500       0.437500       0.000000
      0.416667       0.437500       0.000000
      0.437500       0.437500       0.000000
      0.437500       0.458333       0.000000
      0.416667       0.458333       0.000000
      0.437500       0.437500       0.000000
      0.458333       0.437500       0.000000
      0.458333       0.458333       0.000000
      0.437500       0.458333       0.000000
      0.458333       0.416667       0.000000
      0.479167       0.416667       0.000000
      0.479167       0.437500       0.000000
      0.458333       0.437500       0.000000
      0.458333       0.437500       0.000000
      0.479167       0.437500       0.000000
      0.479167       0.458333       0.000000
      0.458333       0.458333       0.000000
      0.416667       0.458333       0.000000
      0.437500       0.458333       0.000000
      0.437500       0.479167       0.000000
      0.416667       0.479167       0.000000
      0.437500       0.458333       0.000000
      0.458333       0.458333       0.000000
      0.458333       0.479167       0.000000
      0.437500       0.479167       0.000000
      0.416667       0.479167       0.000000
      0.437500       0.479167       0.000000
      0.437500       0.500000       0.000000
      0.416667       0.500000       0.000000
      0.437500       0.479167       0.000000
      0.458333       0.479167       0.000000
      0.458333       0.500000       0.000000
      0.437500       0.500000       0.000000
      0.458333       0.458333       0.000000
      0.468750       0.458333       0.000000
      0.468750       0.468750       0.000000
      0.458333       0.468750       0.000000
      0.468750       0.458333       0.000000
      0.479167       0.458333       0.000000
      0.479167       0.468750       0.000000
      0.468750       0.468750       0.000000
      0.458333       0.468750       0.000000
      0.468750       0.468750       0.000000
      0.468750       0.479167       0.000000
      0.458333       0.479167       0.000000
      0.468750       0.468750       0.000000
      0.479167       0.468750       0.000000
      0.479167       0.479167       0.000000
      0.468750       0.479167       0.000000
[...]
POINT_DATA  1596
VECTORS U float 
      0.000000       0.000000       0.000000
      0.000000       0.000000       0.000000
      0.000352       0.000004       0.000000
      0.000343       0.000000       0.000000
      0.000000       0.000000       0.000000
      0.000000       0.000000       0.000000
      0.000378       0.000010       0.000000
      0.000352       0.000004       0.000000
      0.000343       0.000000       0.000000
      0.000352       0.000004       0.000000
      0.000646      -0.000004       0.000000
      0.000632       0.000000       0.000000
      0.000352       0.000004       0.000000
      0.000378       0.000010       0.000000
      0.000688      -0.000001       0.000000
      0.000646      -0.000004       0.000000
      0.000000       0.000000       0.000000
      0.000000       0.000000       0.000000
      0.000422       0.000025       0.000000
      0.000378       0.000010       0.000000
      0.000000       0.000000       0.000000
      0.000000       0.000000       0.000000
      0.000477       0.000052       0.000000
      0.000422       0.000025       0.000000
      0.000378       0.000010       0.000000
      0.000422       0.000025       0.000000
      0.000760       0.000015       0.000000
      0.000688      -0.000001       0.000000
      0.000422       0.000025       0.000000
      0.000477       0.000052       0.000000
      0.000860       0.000060       0.000000
      0.000760       0.000015       0.000000
      0.000000       0.000000       0.000000
      0.000000       0.000000       0.000000
      0.000534       0.000098       0.000000
      0.000477       0.000052       0.000000
      0.000000       0.000000       0.000000
      0.000000       0.000000       0.000000
      0.000571       0.000155       0.000000
      0.000534       0.000098       0.000000
      0.000477       0.000052       0.000000
      0.000534       0.000098       0.000000
      0.000981       0.000151       0.000000
      0.000860       0.000060       0.000000
      0.000534       0.000098       0.000000
      0.000571       0.000155       0.000000
      0.001093       0.000287       0.000000
      0.000981       0.000151       0.000000
      0.000632       0.000000       0.000000
      0.000646      -0.000004       0.000000
      0.000867      -0.000017       0.000000
      0.000852       0.000000       0.000000
      0.000646      -0.000004       0.000000
      0.000688      -0.000001       0.000000
      0.000915      -0.000027       0.000000
      0.000867      -0.000017       0.000000
      0.000852       0.000000       0.000000
      0.000867      -0.000017       0.000000
      0.001016      -0.000032       0.000000
      0.001004       0.000000       0.000000
      0.000867      -0.000017       0.000000
      0.000915      -0.000027       0.000000
      0.001056      -0.000057       0.000000
      0.001016      -0.000032       0.000000
      0.000688      -0.000001       0.000000
      0.000760       0.000015       0.000000
      0.000997      -0.000020       0.000000
      0.000915      -0.000027       0.000000
      0.000760       0.000015       0.000000
      0.000860       0.000060       0.000000
      0.001122       0.000022       0.000000
      0.000997      -0.000020       0.000000
      0.000915      -0.000027       0.000000
      0.000997      -0.000020       0.000000
      0.001126      -0.000065       0.000000
      0.001056      -0.000057       0.000000
      0.000997      -0.000020       0.000000
      0.001122       0.000022       0.000000
      0.001233      -0.000041       0.000000
      0.001126      -0.000065       0.000000
      0.000860       0.000060       0.000000
      0.000981       0.000151       0.000000
      0.001301       0.000129       0.000000
      0.001122       0.000022       0.000000
      0.000981       0.000151       0.000000
      0.001093       0.000287       0.000000
      0.001539       0.000352       0.000000
      0.001301       0.000129       0.000000
      0.001122       0.000022       0.000000
      0.001301       0.000129       0.000000
      0.001395       0.000042       0.000000
      0.001233      -0.000041       0.000000
      0.001004       0.000000       0.000000
      0.001016      -0.000032       0.000000
      0.001107      -0.000042       0.000000
      0.001099       0.000000       0.000000
      0.001016      -0.000032       0.000000
      0.001056      -0.000057       0.000000
      0.001130      -0.000078       0.000000
      0.001107      -0.000042       0.000000
      0.001099       0.000000       0.000000
      0.001107      -0.000042       0.000000
      0.001162      -0.000047       0.000000
      0.001158       0.000000       0.000000
      0.001107      -0.000042       0.000000
      0.001130      -0.000078       0.000000
      0.001170      -0.000087       0.000000
      0.001162      -0.000047       0.000000
      0.001056      -0.000057       0.000000
      0.001126      -0.000065       0.000000
      0.001170      -0.000099       0.000000
      0.001130      -0.000078       0.000000
      0.001126      -0.000065       0.000000
      0.001233      -0.000041       0.000000
      0.001224      -0.000087       0.000000
      0.001170      -0.000099       0.000000
      0.001130      -0.000078       0.000000
      0.001170      -0.000099       0.000000
      0.001177      -0.000110       0.000000
      0.001170      -0.000087       0.000000
      0.001170      -0.000099       0.000000
      0.001224      -0.000087       0.000000
      0.001176      -0.000098       0.000000
      0.001177      -0.000110       0.000000
      0.001233      -0.000041       0.000000
      0.001305      -0.000010       0.000000
      0.001292      -0.000041       0.000000
      0.001239      -0.000068       0.000000
      0.001305      -0.000010       0.000000
      0.001395       0.000042       0.000000
      0.001353       0.000005       0.000000
      0.001292      -0.000041       0.000000
      0.001239      -0.000068       0.000000
      0.001292      -0.000041       0.000000
      0.001255      -0.000060       0.000000
      0.001224      -0.000087       0.000000
      0.001292      -0.000041       0.000000
      0.001353       0.000005       0.000000
      0.001286      -0.000013       0.000000
      0.001255      -0.000060       0.000000
      0.001395       0.000042       0.000000
      0.001510       0.000122       0.000000
      0.001423       0.000077       0.000000
      0.001353       0.000005       0.000000
      0.001353       0.000005       0.000000
      0.001423       0.000077       0.000000
      0.001315       0.000061       0.000000
      0.001286      -0.000013       0.000000
      0.001224      -0.000087       0.000000
      0.001255      -0.000060       0.000000
      0.001211      -0.000068       0.000000
      0.001199      -0.000096       0.000000
      0.001255      -0.000060       0.000000
      0.001286      -0.000013       0.000000
      0.001221      -0.000017       0.000000
      0.001211      -0.000068       0.000000
      0.001199      -0.000096       0.000000
      0.001211      -0.000068       0.000000
      0.001169      -0.000068       0.000000
      0.001176      -0.000098       0.000000
      0.001211      -0.000068       0.000000
      0.001221      -0.000017       0.000000
      0.001160      -0.000017       0.000000
      0.001169      -0.000068       0.000000
      0.001286      -0.000013       0.000000
      0.001301       0.000020       0.000000
      0.001261       0.000018       0.000000
      0.001253      -0.000016       0.000000
      0.001301       0.000020       0.000000
      0.001315       0.000061       0.000000
      0.001268       0.000059       0.000000
      0.001261       0.000018       0.000000
      0.001253      -0.000016       0.000000
      0.001261       0.000018       0.000000
      0.001225       0.000017       0.000000
      0.001221      -0.000017       0.000000
      0.001261       0.000018       0.000000
      0.001268       0.000059       0.000000
      0.001228       0.000059       0.000000
      0.001225       0.000017       0.000000
      0.001315       0.000061       0.000000
      0.001326       0.000112       0.000000
      0.001275       0.000109       0.000000
      0.001268       0.000059       0.000000
      0.001268       0.000059       0.000000
      0.001275       0.000109       0.000000
      0.001232       0.000106       0.000000
      0.001228       0.000059       0.000000
      0.001221      -0.000017       0.000000
      0.001225       0.000017       0.000000
      0.001191       0.000017       0.000000
      0.001191      -0.000018       0.000000
      0.001225       0.000017       0.000000
      0.001228       0.000059       0.000000
      0.001192       0.000058       0.000000
      0.001191       0.000017       0.000000
      0.001191      -0.000018       0.000000
      0.001191       0.000017       0.000000
      0.001155       0.000018       0.000000
      0.001160      -0.000017       0.000000
      0.001191       0.000017       0.000000
      0.001192       0.000058       0.000000
      0.001154       0.000058       0.000000
      0.001155       0.000018       0.000000
      0.001228       0.000059       0.000000
      0.001230       0.000082       0.000000
      0.001211       0.000081       0.000000
      0.001210       0.000058       0.000000
      0.001230       0.000082       0.000000
      0.001232       0.000106       0.000000
      0.001213       0.000105       0.000000
      0.001211       0.000081       0.000000
      0.001210       0.000058       0.000000
      0.001211       0.000081       0.000000
      0.001193       0.000080       0.000000
      0.001192       0.000058       0.000000
      0.001211       0.000081       0.000000
      0.001213       0.000105       0.000000
      0.001194       0.000103       0.000000
      0.001193       0.000080       0.000000
      0.001232       0.000106       0.000000
      0.001235       0.000133       0.000000
      0.001216       0.000131       0.000000
      0.001213       0.000105       0.000000
      0.001235       0.000133       0.000000
      0.001241       0.000162       0.000000
      0.001224       0.000166       0.000000
      0.001216       0.000131       0.000000
      0.001213       0.000105       0.000000
      0.001216       0.000131       0.000000
      0.001198       0.000127       0.000000
      0.001194       0.000103       0.000000
      0.001216       0.000131       0.000000
      0.001224       0.000166       0.000000
      0.001194       0.000168       0.000000
      0.001198       0.000127       0.000000
      0.001192       0.000058       0.000000
      0.001193       0.000080       0.000000
      0.001174       0.000079       0.000000
      0.001173       0.000058       0.000000
      0.001193       0.000080       0.000000
      0.001194       0.000103       0.000000
      0.001176       0.000101       0.000000
      0.001174       0.000079       0.000000
      0.001173       0.000058       0.000000
      0.001174       0.000079       0.000000
      0.001155       0.000080       0.000000
      0.001154       0.000058       0.000000
      0.001174       0.000079       0.000000
      0.001176       0.000101       0.000000
      0.001161       0.000104       0.000000
      0.001155       0.000080       0.000000
      0.001194       0.000103       0.000000
      0.001198       0.000127       0.000000
      0.001179       0.000119       0.000000
      0.001176       0.000101       0.000000
      0.001198       0.000127       0.000000
      0.001194       0.000168       0.000000
      0.000898       0.000132       0.000000
      0.001179       0.000119       0.000000
      0.001176       0.000101       0.000000
      0.001179       0.000119       0.000000
      0.001212       0.000135       0.000000
      0.001161       0.000104       0.000000
      0.001179       0.000119       0.000000
      0.000898       0.000132       0.000000
      0.008172       0.000783       0.000000
      0.001212       0.000135       0.000000
      0.001275       0.000109       0.000000
      0.001278       0.000138       0.000000
      0.001255       0.000136       0.000000
      0.001252       0.000108       0.000000
      0.001278       0.000138       0.000000
      0.001282       0.000169       0.000000
      0.001260       0.000166       0.000000
      0.001255       0.000136       0.000000
      0.001252       0.000108       0.000000
      0.001255       0.000136       0.000000
      0.001235       0.000133       0.000000
      0.001232       0.000106       0.000000
      0.001255       0.000136       0.000000
      0.001260       0.000166       0.000000
      0.001241       0.000162       0.000000
      0.001235       0.000133       0.000000
      0.001423       0.000077       0.000000
      0.001461       0.000126       0.000000
      0.001390       0.000116       0.000000
      0.001367       0.000066       0.000000
      0.001461       0.000126       0.000000
      0.001503       0.000191       0.000000
      0.001411       0.000180       0.000000
      0.001390       0.000116       0.000000
      0.001367       0.000066       0.000000
      0.001390       0.000116       0.000000
      0.001326       0.000112       0.000000
      0.001315       0.000061       0.000000
      0.001326       0.000112       0.000000
      0.001332       0.000141       0.000000
      0.001303       0.000140       0.000000
      0.001299       0.000110       0.000000
      0.001332       0.000141       0.000000
      0.001337       0.000175       0.000000
      0.001307       0.000172       0.000000
      0.001303       0.000140       0.000000
      0.001299       0.000110       0.000000
      0.001303       0.000140       0.000000
      0.001278       0.000138       0.000000
      0.001275       0.000109       0.000000
      0.001303       0.000140       0.000000
      0.001307       0.000172       0.000000
      0.001282       0.000169       0.000000
      0.001278       0.000138       0.000000
      0.001390       0.000116       0.000000
      0.001400       0.000146       0.000000
      0.001364       0.000143       0.000000
      0.001357       0.000113       0.000000
      0.001400       0.000146       0.000000
      0.001411       0.000180       0.000000
      0.001371       0.000178       0.000000
      0.001364       0.000143       0.000000
      0.001357       0.000113       0.000000
      0.001364       0.000143       0.000000
      0.001332       0.000141       0.000000
      0.001326       0.000112       0.000000
      0.001364       0.000143       0.000000
      0.001371       0.000178       0.000000
      0.001337       0.000175       0.000000
      0.001332       0.000141       0.000000
      0.001301       0.000129       0.000000
      0.001414       0.000224       0.000000
      0.001511       0.000182       0.000000
      0.001381       0.000089       0.000000
      0.001414       0.000224       0.000000
      0.001539       0.000352       0.000000
      0.001677       0.000327       0.000000
      0.001511       0.000182       0.000000
      0.001381       0.000089       0.000000
      0.001511       0.000182       0.000000
      0.001510       0.000122       0.000000
      0.001395       0.000042       0.000000
      0.001511       0.000182       0.000000
      0.001677       0.000327       0.000000
      0.001671       0.000253       0.000000
      0.001510       0.000122       0.000000
      0.001510       0.000122       0.000000
      0.001582       0.000179       0.000000
      0.001531       0.000147       0.000000
      0.001473       0.000096       0.000000
      0.001582       0.000179       0.000000
      0.001671       0.000253       0.000000
      0.001599       0.000214       0.000000
      0.001531       0.000147       0.000000
      0.001473       0.000096       0.000000
      0.001531       0.000147       0.000000
      0.001461       0.000126       0.000000
      0.001423       0.000077       0.000000
      0.001531       0.000147       0.000000
      0.001599       0.000214       0.000000
      0.001503       0.000191       0.000000
      0.001461       0.000126       0.000000
      0.000000       0.000000       0.000000
      0.000000       0.000000       0.000000
      0.000576       0.000190       0.000000
      0.000571       0.000155       0.000000
      0.000000       0.000000       0.000000
      0.000000       0.000000       0.000000
      0.000574       0.000169       0.000000
      0.000576       0.000190       0.000000
      0.000571       0.000155       0.000000
      0.000576       0.000190       0.000000
      0.001156       0.000383       0.000000
      0.001093       0.000287       0.000000
      0.000576       0.000190       0.000000
      0.000574       0.000169       0.000000
      0.001205       0.000323       0.000000
      0.001156       0.000383       0.000000
      0.000000       0.000000       0.000000
      0.000000       0.000000       0.000000
      0.000593       0.000113       0.000000
      0.000574       0.000169       0.000000
      0.000000       0.000000       0.000000
      0.000000       0.000000       0.000000
      0.000628       0.000061       0.000000
      0.000593       0.000113       0.000000
      0.000574       0.000169       0.000000
      0.000593       0.000113       0.000000
      0.001293       0.000190       0.000000
      0.001205       0.000323       0.000000
      0.000593       0.000113       0.000000
      0.000628       0.000061       0.000000
      0.001387       0.000089       0.000000
      0.001293       0.000190       0.000000
      0.000000       0.000000       0.000000
      0.000000       0.000000       0.000000
      0.000659       0.000025       0.000000
      0.000628       0.000061       0.000000
      0.000000       0.000000       0.000000
      0.000000       0.000000       0.000000
      0.000671       0.000000       0.000000
      0.000659       0.000025       0.000000
      0.000628       0.000061       0.000000
      0.000659       0.000025       0.000000
      0.001452       0.000032       0.000000
      0.001387       0.000089       0.000000
      0.000659       0.000025       0.000000
      0.000671       0.000000       0.000000
      0.001475       0.000000       0.000000
      0.001452       0.000032       0.000000
      0.001093       0.000287       0.000000
      0.001156       0.000383       0.000000
      0.001746       0.000582       0.000000
      0.001539       0.000352       0.000000
      0.001156       0.000383       0.000000
      0.001205       0.000323       0.000000
      0.001938       0.000420       0.000000
      0.001746       0.000582       0.000000
      0.001205       0.000323       0.000000
      0.001293       0.000190       0.000000
      0.002162       0.000194       0.000000
      0.001938       0.000420       0.000000
      0.001293       0.000190       0.000000
      0.001387       0.000089       0.000000
      0.002326       0.000071       0.000000
      0.002162       0.000194       0.000000
      0.001938       0.000420       0.000000
      0.002162       0.000194       0.000000
      0.003370       0.000120       0.000000
      0.003083       0.000366       0.000000
      0.002162       0.000194       0.000000
      0.002326       0.000071       0.000000
      0.003517       0.000025       0.000000
      0.003370       0.000120       0.000000
      0.001387       0.000089       0.000000
      0.001452       0.000032       0.000000
      0.002419       0.000020       0.000000
      0.002326       0.000071       0.000000
      0.001452       0.000032       0.000000
      0.001475       0.000000       0.000000
      0.002449       0.000000       0.000000
      0.002419       0.000020       0.000000
      0.002326       0.000071       0.000000
      0.002419       0.000020       0.000000
      0.003589      -0.000002       0.000000