# vtk DataFile Version 2.0
time_10.vtk
ASCII
DATASET UNSTRUCTURED_GRID
POINTS  1152 float
      0.000000       0.000000       0.000000
      0.083333       0.000000       0.000000
      0.083333       0.083333       0.000000
      0.000000       0.083333       0.000000
      0.083333       0.000000       0.000000
      0.166667       0.000000       0.000000
      0.166667       0.083333       0.000000
      0.083333       0.083333       0.000000
      0.000000       0.083333       0.000000
      0.083333       0.083333       0.000000
      0.083333       0.166667       0.000000
      0.000000       0.166667       0.000000
      0.083333       0.083333       0.000000
      0.166667       0.083333       0.000000
      0.166667       0.166667       0.000000
      0.083333       0.166667       0.000000
      0.166667       0.000000       0.000000
      0.250000       0.000000       0.000000
      0.250000       0.083333       0.000000
      0.166667       0.083333       0.000000
      0.250000       0.000000       0.000000
      0.333333       0.000000       0.000000
      0.333333       0.083333       0.000000
      0.250000       0.083333       0.000000
      0.166667       0.083333       0.000000
      0.250000       0.083333       0.000000
      0.250000       0.166667       0.000000
      0.166667       0.166667       0.000000
      0.250000       0.083333       0.000000
      0.333333       0.083333       0.000000
      0.333333       0.166667       0.000000
      0.250000       0.166667       0.000000
      0.333333       0.000000       0.000000
      0.416667      -0.000000       0.000000
      0.416667       0.083333       0.000000
      0.333333       0.083333       0.000000
      0.416667      -0.000000       0.000000
      0.500000       0.000000       0.000000
      0.500000       0.083333       0.000000
      0.416667       0.083333       0.000000
      0.333333       0.083333       0.000000
      0.416667       0.083333       0.000000
      0.416667       0.166667       0.000000
      0.333333       0.166667       0.000000
      0.416667       0.083333       0.000000
      0.500000       0.083333       0.000000
      0.500000       0.166667       0.000000
      0.416667       0.166667       0.000000
      0.000000       0.166667       0.000000
      0.083333       0.166667       0.000000
      0.083333       0.250000       0.000000
      0.000000       0.250000       0.000000
      0.083333       0.166667       0.000000
      0.166667       0.166667       0.000000
      0.166667       0.250000       0.000000
      0.083333       0.250000       0.000000
      0.000000       0.250000       0.000000
      0.083333       0.250000       0.000000
      0.083333       0.333333       0.000000
      0.000000       0.333333       0.000000
      0.083333       0.250000       0.000000
      0.166667       0.250000       0.000000
      0.166667       0.333333       0.000000
      0.083333       0.333333       0.000000
      0.166667       0.166667       0.000000
      0.250000       0.166667       0.000000
      0.250000       0.250000       0.000000
      0.166667       0.250000       0.000000
      0.250000       0.166667       0.000000
      0.333333       0.166667       0.000000
      0.333333       0.250000       0.000000
      0.250000       0.250000       0.000000
      0.166667       0.250000       0.000000
      0.250000       0.250000       0.000000
      0.250000       0.333333       0.000000
      0.166667       0.333333       0.000000
      0.250000       0.250000       0.000000
      0.333333       0.250000       0.000000
      0.333333       0.333333       0.000000
      0.250000       0.333333       0.000000
      0.333333       0.166667       0.000000
      0.416667       0.166667       0.000000
      0.416667       0.250000       0.000000
      0.333333       0.250000       0.000000
      0.416667       0.166667       0.000000
      0.500000       0.166667       0.000000
      0.500000       0.250000       0.000000
      0.416667       0.250000       0.000000
      0.333333       0.250000       0.000000
      0.416667       0.250000       0.000000
      0.416667       0.333333       0.000000
      0.333333       0.333333       0.000000
      0.416667       0.250000       0.000000
      0.500000       0.250000       0.000000
      0.500000       0.333333       0.000000
      0.416667       0.333333       0.000000
      0.000000       0.333333       0.000000
      0.083333       0.333333       0.000000
      0.083333       0.416667       0.000000
     -0.000000       0.416667       0.000000
      0.083333       0.333333       0.000000
      0.166667       0.333333       0.000000
      0.166667       0.416667       0.000000
      0.083333       0.416667       0.000000
     -0.000000       0.416667       0.000000
      0.083333       0.416667       0.000000
      0.083333       0.500000       0.000000
      0.000000       0.500000       0.000000
      0.083333       0.416667       0.000000
      0.166667       0.416667       0.000000
      0.166667       0.500000       0.000000
      0.083333       0.500000       0.000000
      0.166667       0.333333       0.000000
      0.250000       0.333333       0.000000
      0.250000       0.416667       0.000000
      0.166667       0.416667       0.000000
      0.250000       0.333333       0.000000
      0.333333       0.333333       0.000000
      0.333333       0.416667       0.000000
      0.250000       0.416667       0.000000
      0.166667       0.416667       0.000000
      0.250000       0.416667       0.000000
      0.250000       0.500000       0.000000
      0.166667       0.500000       0.000000
      0.250000       0.416667       0.000000
      0.333333       0.416667       0.000000
      0.333333       0.500000       0.000000
      0.250000       0.500000       0.000000
      0.333333       0.333333       0.000000
      0.375000       0.333333       0.000000
      0.375000       0.375000       0.000000
      0.333333       0.375000       0.000000
      0.375000       0.333333       0.000000
      0.416667       0.333333       0.000000
      0.416667       0.375000       0.000000
      0.375000       0.375000       0.000000
      0.333333       0.375000       0.000000
      0.375000       0.375000       0.000000
      0.375000       0.416667       0.000000
      0.333333       0.416667       0.000000
      0.375000       0.375000       0.000000
      0.416667       0.375000       0.000000
      0.416667       0.416667       0.000000
      0.375000       0.416667       0.000000
      0.416667       0.333333       0.000000
      0.458333       0.333333       0.000000
      0.458333       0.375000       0.000000
      0.416667       0.375000       0.000000
      0.458333       0.333333       0.000000
      0.500000       0.333333       0.000000
      0.500000       0.375000       0.000000
      0.458333       0.375000       0.000000
      0.416667       0.375000       0.000000
      0.458333       0.375000       0.000000
      0.458333       0.416667       0.000000
      0.416667       0.416667       0.000000
      0.458333       0.375000       0.000000
      0.500000       0.375000       0.000000
      0.500000       0.416667       0.000000
      0.458333       0.416667       0.000000
      0.333333       0.416667       0.000000
      0.375000       0.416667       0.000000
      0.375000       0.458333       0.000000
      0.333333       0.458333       0.000000
      0.375000       0.416667       0.000000
      0.416667       0.416667       0.000000
      0.416667       0.458333       0.000000
      0.375000       0.458333       0.000000
      0.333333       0.458333       0.000000
      0.375000       0.458333       0.000000
      0.375000       0.500000       0.000000
      0.333333       0.500000       0.000000
      0.375000       0.458333       0.000000
      0.416667       0.458333       0.000000
      0.416667       0.500000       0.000000
      0.375000       0.500000       0.000000
      0.416667       0.416667       0.000000
      0.437500       0.416667       0.000000
      0.437500       0.437500       0.000000
      0.416667       0.437500       0.000000
      0.437500       0.416667       0.000000
      0.458333       0.416667       0.000000
      0.458333       0.437500       0.000000
      0.437500       0.437500       0.000000
      0.416667       0.437500       0.000000
      0.437500       0.437500       0.000000
      0.437500       0.458333       0.000000
      0.416667       0.458333       0.000000
      0.437500       0.437500       0.000000
      0.458333       0.437500       0.000000
      0.458333       0.458333       0.000000
      0.437500       0.458333       0.000000
      0.458333       0.416667       0.000000
      0.479167       0.416667       0.000000
      0.479167       0.437500       0.000000
      0.458333       0.437500       0.000000
      0.479167       0.416667       0.000000
      0.500000       0.416667       0.000000
      0.500000       0.437500       0.000000
      0.479167       0.437500       0.000000
      0.458333       0.437500       0.000000
      0.479167       0.437500       0.000000
      0.479167       0.458333       0.000000
      0.458333       0.458333       0.000000
      0.479167       0.437500       0.000000
      0.500000       0.437500       0.000000
      0.500000       0.458333       0.000000
      0.479167       0.458333       0.000000
      0.416667       0.458333       0.000000
      0.437500       0.458333       0.000000
      0.437500       0.479167       0.000000
      0.416667       0.479167       0.000000
      0.437500       0.458333       0.000000
      0.458333       0.458333       0.000000
      0.458333       0.479167       0.000000
      0.437500       0.479167       0.000000
      0.416667       0.479167       0.000000
      0.437500       0.479167       0.000000
      0.437500       0.500000       0.000000
      0.416667       0.500000       0.000000
[...]
POINT_DATA  1152
VECTORS U float 
      0.000000       0.000000       0.000000
      0.000000       0.000000       0.000000
      0.000511       0.000019       0.000000
      0.000507       0.000000       0.000000
      0.000000       0.000000       0.000000
      0.000000       0.000000       0.000000
      0.000520       0.000039       0.000000
      0.000511       0.000019       0.000000
      0.000507       0.000000       0.000000
      0.000511       0.000019       0.000000
      0.000956       0.000032       0.000000
      0.000948       0.000000       0.000000
      0.000511       0.000019       0.000000
      0.000520       0.000039       0.000000
      0.000978       0.000068       0.000000
      0.000956       0.000032       0.000000
      0.000000       0.000000       0.000000
      0.000000       0.000000       0.000000
      0.000532       0.000061       0.000000
      0.000520       0.000039       0.000000
      0.000000       0.000000       0.000000
      0.000000       0.000000       0.000000
      0.000541       0.000085       0.000000
      0.000532       0.000061       0.000000
      0.000520       0.000039       0.000000
      0.000532       0.000061       0.000000
      0.001009       0.000111       0.000000
      0.000978       0.000068       0.000000
      0.000532       0.000061       0.000000
      0.000541       0.000085       0.000000
      0.001043       0.000160       0.000000
      0.001009       0.000111       0.000000
      0.000000       0.000000       0.000000
      0.000000       0.000000       0.000000
      0.000543       0.000104       0.000000
      0.000541       0.000085       0.000000
      0.000000       0.000000       0.000000
      0.000000       0.000000       0.000000
      0.000539       0.000111       0.000000
      0.000543       0.000104       0.000000
      0.000541       0.000085       0.000000
      0.000543       0.000104       0.000000
      0.001068       0.000205       0.000000
      0.001043       0.000160       0.000000
      0.000543       0.000104       0.000000
      0.000539       0.000111       0.000000
      0.001082       0.000223       0.000000
      0.001068       0.000205       0.000000
      0.000948       0.000000       0.000000
      0.000956       0.000032       0.000000
      0.001323       0.000037       0.000000
      0.001309       0.000000       0.000000
      0.000956       0.000032       0.000000
      0.000978       0.000068       0.000000
      0.001361       0.000080       0.000000
      0.001323       0.000037       0.000000
      0.001309       0.000000       0.000000
      0.001323       0.000037       0.000000
      0.001595       0.000031       0.000000
      0.001577       0.000000       0.000000
      0.001323       0.000037       0.000000
      0.001361       0.000080       0.000000
      0.001652       0.000072       0.000000
      0.001595       0.000031       0.000000
      0.000978       0.000068       0.000000
      0.001009       0.000111       0.000000
      0.001423       0.000137       0.000000
      0.001361       0.000080       0.000000
      0.001009       0.000111       0.000000
      0.001043       0.000160       0.000000
      0.001499       0.000211       0.000000
      0.001423       0.000137       0.000000
      0.001361       0.000080       0.000000
      0.001423       0.000137       0.000000
      0.001747       0.000130       0.000000
      0.001652       0.000072       0.000000
      0.001423       0.000137       0.000000
      0.001499       0.000211       0.000000
      0.001881       0.000217       0.000000
      0.001747       0.000130       0.000000
      0.001043       0.000160       0.000000
      0.001068       0.000205       0.000000
      0.001574       0.000290       0.000000
      0.001499       0.000211       0.000000
      0.001068       0.000205       0.000000
      0.001082       0.000223       0.000000
      0.001631       0.000329       0.000000
      0.001574       0.000290       0.000000
      0.001499       0.000211       0.000000
      0.001574       0.000290       0.000000
      0.002044       0.000336       0.000000
      0.001881       0.000217       0.000000
      0.001574       0.000290       0.000000
      0.001631       0.000329       0.000000
      0.002189       0.000427       0.000000
      0.002044       0.000336       0.000000
      0.001577       0.000000       0.000000
      0.001595       0.000031       0.000000
      0.001761       0.000017       0.000000
      0.001739       0.000000       0.000000
      0.001595       0.000031       0.000000
      0.001652       0.000072       0.000000
      0.001828       0.000043       0.000000
      0.001761       0.000017       0.000000
      0.001739       0.000000       0.000000
      0.001761       0.000017       0.000000
      0.001814      -0.000001       0.000000
      0.001793       0.000000       0.000000
      0.001761       0.000017       0.000000
      0.001828       0.000043       0.000000
      0.001878       0.000005       0.000000
      0.001814      -0.000001       0.000000
      0.001652       0.000072       0.000000
      0.001747       0.000130       0.000000
      0.001946       0.000087       0.000000
      0.001828       0.000043       0.000000
      0.001747       0.000130       0.000000
      0.001881       0.000217       0.000000
      0.002127       0.000160       0.000000
      0.001946       0.000087       0.000000
      0.001828       0.000043       0.000000
      0.001946       0.000087       0.000000
      0.001993       0.000025       0.000000
      0.001878       0.000005       0.000000
      0.001946       0.000087       0.000000
      0.002127       0.000160       0.000000
      0.002173       0.000067       0.000000
      0.001993       0.000025       0.000000
      0.001881       0.000217       0.000000
      0.001961       0.000273       0.000000
      0.002129       0.000255       0.000000
      0.002026       0.000196       0.000000
      0.001961       0.000273       0.000000
      0.002044       0.000336       0.000000
      0.002247       0.000329       0.000000
      0.002129       0.000255       0.000000
      0.002026       0.000196       0.000000
      0.002129       0.000255       0.000000
      0.002248       0.000213       0.000000
      0.002127       0.000160       0.000000
      0.002129       0.000255       0.000000
      0.002247       0.000329       0.000000
      0.002399       0.000288       0.000000
      0.002248       0.000213       0.000000
      0.002044       0.000336       0.000000
      0.002122       0.000396       0.000000
      0.002369       0.000414       0.000000
      0.002247       0.000329       0.000000
      0.002122       0.000396       0.000000
      0.002189       0.000427       0.000000
      0.002476       0.000472       0.000000
      0.002369       0.000414       0.000000
      0.002247       0.000329       0.000000
      0.002369       0.000414       0.000000
      0.002581       0.000398       0.000000
      0.002399       0.000288       0.000000
      0.002369       0.000414       0.000000
      0.002476       0.000472       0.000000
      0.002768       0.000513       0.000000
      0.002581       0.000398       0.000000
      0.002127       0.000160       0.000000
      0.002248       0.000213       0.000000
      0.002302       0.000157       0.000000
      0.002176       0.000114       0.000000
      0.002248       0.000213       0.000000
      0.002399       0.000288       0.000000
      0.002461       0.000215       0.000000
      0.002302       0.000157       0.000000
      0.002176       0.000114       0.000000
      0.002302       0.000157       0.000000
      0.002292       0.000098       0.000000
      0.002173       0.000067       0.000000
      0.002302       0.000157       0.000000
      0.002461       0.000215       0.000000
      0.002433       0.000142       0.000000
      0.002292       0.000098       0.000000
      0.002399       0.000288       0.000000
      0.002486       0.000338       0.000000
      0.002541       0.000302       0.000000
      0.002443       0.000254       0.000000
      0.002486       0.000338       0.000000
      0.002581       0.000398       0.000000
      0.002655       0.000367       0.000000
      0.002541       0.000302       0.000000
      0.002443       0.000254       0.000000
      0.002541       0.000302       0.000000
      0.002560       0.000255       0.000000
      0.002461       0.000215       0.000000
      0.002541       0.000302       0.000000
      0.002655       0.000367       0.000000
      0.002684       0.000314       0.000000
      0.002560       0.000255       0.000000
      0.002581       0.000398       0.000000
      0.002678       0.000464       0.000000
      0.002785       0.000452       0.000000
      0.002655       0.000367       0.000000
      0.002678       0.000464       0.000000
      0.002768       0.000513       0.000000
      0.002916       0.000529       0.000000
      0.002785       0.000452       0.000000
      0.002655       0.000367       0.000000
      0.002785       0.000452       0.000000
      0.002850       0.000412       0.000000
      0.002684       0.000314       0.000000
      0.002785       0.000452       0.000000
      0.002916       0.000529       0.000000
      0.003063       0.000540       0.000000
      0.002850       0.000412       0.000000
      0.002461       0.000215       0.000000
      0.002560       0.000255       0.000000
      0.002544       0.000209       0.000000
      0.002455       0.000176       0.000000
      0.002560       0.000255       0.000000
      0.002684       0.000314       0.000000
      0.002652       0.000252       0.000000
      0.002544       0.000209       0.000000
      0.002455       0.000176       0.000000
      0.002544       0.000209       0.000000
      0.002513       0.000170       0.000000
      0.002433       0.000142       0.000000
      0.002544       0.000209       0.000000
      0.002652       0.000252       0.000000
      0.002598       0.000206       0.000000
      0.002513       0.000170       0.000000
      0.002684       0.000314       0.000000
      0.002760       0.000357       0.000000
      0.002752       0.000321       0.000000
      0.002675       0.000283       0.000000
      0.002760       0.000357       0.000000
      0.002850       0.000412       0.000000
      0.002849       0.000375       0.000000
      0.002752       0.000321       0.000000
      0.002675       0.000283       0.000000
      0.002752       0.000321       0.000000
      0.002721       0.000283       0.000000
      0.002652       0.000252       0.000000
      0.002752       0.000321       0.000000
      0.002849       0.000375       0.000000
      0.002814       0.000329       0.000000
      0.002721       0.000283       0.000000
      0.002850       0.000412       0.000000
      0.002952       0.000478       0.000000
      0.002977       0.000453       0.000000
      0.002849       0.000375       0.000000
      0.002952       0.000478       0.000000
      0.003063       0.000540       0.000000
      0.003136       0.000539       0.000000
      0.002977       0.000453       0.000000
      0.002849       0.000375       0.000000
      0.002977       0.000453       0.000000
      0.002959       0.000406       0.000000
      0.002814       0.000329       0.000000
      0.002977       0.000453       0.000000
      0.003136       0.000539       0.000000
      0.003208       0.000526       0.000000
      0.002959       0.000406       0.000000
      0.002652       0.000252       0.000000
      0.002721       0.000283       0.000000
      0.002678       0.000251       0.000000
      0.002623       0.000226       0.000000
      0.002721       0.000283       0.000000
      0.002814       0.000329       0.000000
      0.002748       0.000284       0.000000
      0.002678       0.000251       0.000000
      0.002623       0.000226       0.000000
      0.002678       0.000251       0.000000
      0.002644       0.000229       0.000000
      0.002598       0.000206       0.000000
      0.002678       0.000251       0.000000
      0.002748       0.000284       0.000000
      0.002695       0.000257       0.000000
      0.002644       0.000229       0.000000
      0.002814       0.000329       0.000000
      0.002959       0.000406       0.000000
      0.002865       0.000335       0.000000
      0.002748       0.000284       0.000000
      0.002959       0.000406       0.000000
      0.003208       0.000526       0.000000
      0.003305       0.000468       0.000000
      0.002865       0.000335       0.000000
      0.002748       0.000284       0.000000
      0.002865       0.000335       0.000000
      0.002774       0.000299       0.000000
      0.002695       0.000257       0.000000
      0.002865       0.000335       0.000000
      0.003305       0.000468       0.000000
      0.005726       0.000396       0.000000
      0.002774       0.000299       0.000000
      0.000000       0.000000       0.000000
      0.000000       0.000000       0.000000
      0.000536       0.000100       0.000000
      0.000539       0.000111       0.000000
      0.000000       0.000000       0.000000
      0.000000       0.000000       0.000000
      0.000540       0.000077       0.000000
      0.000536       0.000100       0.000000
      0.000539       0.000111       0.000000
      0.000536       0.000100       0.000000
      0.001096       0.000197       0.000000
      0.001082       0.000223       0.000000
      0.000536       0.000100       0.000000
      0.000540       0.000077       0.000000
      0.001123       0.000141       0.000000
      0.001096       0.000197       0.000000
      0.000000       0.000000       0.000000
      0.000000       0.000000       0.000000
      0.000554       0.000050       0.000000
      0.000540       0.000077       0.000000
      0.000000       0.000000       0.000000
      0.000000       0.000000       0.000000
      0.000572       0.000028       0.000000
      0.000554       0.000050       0.000000
      0.000540       0.000077       0.000000
      0.000554       0.000050       0.000000
      0.001163       0.000085       0.000000
      0.001123       0.000141       0.000000
      0.000554       0.000050       0.000000
      0.000572       0.000028       0.000000
      0.001203       0.000043       0.000000
      0.001163       0.000085       0.000000
      0.000000       0.000000       0.000000
      0.000000       0.000000       0.000000
      0.000586       0.000012       0.000000
      0.000572       0.000028       0.000000
      0.000000       0.000000       0.000000
      0.000000       0.000000       0.000000
      0.000591       0.000000       0.000000
      0.000586       0.000012       0.000000
      0.000572       0.000028       0.000000
      0.000586       0.000012       0.000000
      0.001232       0.000017       0.000000
      0.001203       0.000043       0.000000
      0.000586       0.000012       0.000000
      0.000591       0.000000       0.000000
      0.001242       0.000000       0.000000
      0.001232       0.000017       0.000000
      0.001082       0.000223       0.000000
      0.001096       0.000197       0.000000
      0.001683       0.000281       0.000000
      0.001631       0.000329       0.000000
      0.001096       0.000197       0.000000
      0.001123       0.000141       0.000000
      0.001757       0.000181       0.000000
      0.001683       0.000281       0.000000
      0.001631       0.000329       0.000000
      0.001683       0.000281       0.000000
      0.002319       0.000337       0.000000
      0.002189       0.000427       0.000000
      0.001683       0.000281       0.000000
      0.001757       0.000181       0.000000
      0.002480       0.000171       0.000000
      0.002319       0.000337       0.000000
      0.001123       0.000141       0.000000
      0.001163       0.000085       0.000000
      0.001840       0.000093       0.000000
      0.001757       0.000181       0.000000
      0.001163       0.000085       0.000000
      0.001203       0.000043       0.000000
      0.001910       0.000039       0.000000
      0.001840       0.000093       0.000000
      0.001757       0.000181       0.000000
      0.001840       0.000093       0.000000
      0.002619       0.000063       0.000000
      0.002480       0.000171       0.000000
      0.001840       0.000093       0.000000
      0.001910       0.000039       0.000000
      0.002713       0.000014       0.000000
      0.002619       0.000063       0.000000
      0.001203       0.000043       0.000000
      0.001232       0.000017       0.000000
      0.001953       0.000012       0.000000
      0.001910       0.000039       0.000000
      0.001232       0.000017       0.000000
      0.001242       0.000000       0.000000
      0.001968       0.000000       0.000000
      0.001953       0.000012       0.000000
      0.001910       0.000039       0.000000
      0.001953       0.000012       0.000000
      0.002766      -0.000001       0.000000
      0.002713       0.000014       0.000000
      0.001953       0.000012       0.000000
      0.001968       0.000000       0.000000
      0.002782       0.000000       0.000000
      0.002766      -0.000001       0.000000
      0.002480       0.000171       0.000000
      0.002619       0.000063       0.000000
      0.003556       0.000005       0.000000
      0.003408       0.000091       0.000000
      0.002619       0.000063       0.000000
      0.002713       0.000014       0.000000
      0.003632      -0.000021       0.000000
      0.003556       0.000005       0.000000
      0.003408       0.000091       0.000000
      0.003556       0.000005       0.000000
      0.004646      -0.000025       0.000000
      0.004664       0.000028       0.000000
      0.003556       0.000005       0.000000
      0.003632      -0.000021       0.000000
      0.004638      -0.000035       0.000000
      0.004646      -0.000025       0.000000
      0.002713       0.000014       0.000000
      0.002766      -0.000001       0.000000
      0.003670      -0.000017       0.000000
      0.003632      -0.000021       0.000000
      0.002766      -0.000001       0.000000
      0.002782       0.000000       0.000000
      0.003681       0.000000       0.000000
      0.003670      -0.000017       0.000000
      0.003632      -0.000021       0.000000
      0.003670      -0.000017       0.000000
      0.004634      -0.000023       0.000000
      0.004638      -0.000035       0.000000
      0.003670      -0.000017       0.000000
      0.003681       0.000000       0.000000
      0.004633       0.000000       0.000000
      0.004634      -0.000023       0.000000
      0.002189       0.000427       0.000000
      0.002251       0.000406       0.000000
      0.002572       0.000443       0.000000
      0.002476       0.000472       0.000000
      0.002251       0.000406       0.000000
      0.002319       0.000337       0.000000
      0.002682       0.000341       0.000000
      0.002572       0.000443       0.000000
      0.002476       0.000472       0.000000
      0.002572       0.000443       0.000000
      0.002939       0.000467       0.000000
      0.002768       0.000513       0.000000
      0.002572       0.000443       0.000000
      0.002682       0.000341       0.000000
      0.003125       0.000309       0.000000
      0.002939       0.000467       0.000000
      0.002319       0.000337       0.000000
      0.002398       0.000251       0.000000
      0.002799       0.000229       0.000000
      0.002682       0.000341       0.000000
      0.002398       0.000251       0.000000
      0.002480       0.000171       0.000000
      0.002907       0.000140       0.000000
      0.002799       0.000229       0.000000
      0.002682       0.000341       0.000000
      0.002799       0.000229       0.000000
      0.003288       0.000178       0.000000