# vtk DataFile Version 2.0
time_10.vtk
ASCII
DATASET UNSTRUCTURED_GRID
POINTS  1176 float
      0.000000       0.000000       0.000000
      0.083333       0.000000       0.000000
      0.083333       0.083333       0.000000
      0.000000       0.083333       0.000000
      0.083333       0.000000       0.000000
      0.166667       0.000000       0.000000
      0.166667       0.083333       0.000000
      0.083333       0.083333       0.000000
      0.000000       0.083333       0.000000
      0.083333       0.083333       0.000000
      0.083333       0.166667       0.000000
      0.000000       0.166667       0.000000
      0.083333       0.083333       0.000000
      0.166667       0.083333       0.000000
      0.166667       0.166667       0.000000
      0.083333       0.166667       0.000000
      0.166667       0.000000       0.000000
      0.250000       0.000000       0.000000
      0.250000       0.083333       0.000000
      0.166667       0.083333       0.000000
      0.250000       0.000000       0.000000
      0.333333       0.000000       0.000000
      0.333333       0.083333       0.000000
      0.250000       0.083333       0.000000
      0.166667       0.083333       0.000000
      0.250000       0.083333       0.000000
      0.250000       0.166667       0.000000
      0.166667       0.166667       0.000000
      0.250000       0.083333       0.000000
      0.333333       0.083333       0.000000
      0.333333       0.166667       0.000000
      0.250000       0.166667       0.000000
      0.333333       0.000000       0.000000
      0.416667      -0.000000       0.000000
      0.416667       0.083333       0.000000
      0.333333       0.083333       0.000000
      0.416667      -0.000000       0.000000
      0.500000       0.000000       0.000000
      0.500000       0.083333       0.000000
      0.416667       0.083333       0.000000
      0.333333       0.083333       0.000000
      0.416667       0.083333       0.000000
      0.416667       0.166667       0.000000
      0.333333       0.166667       0.000000
      0.416667       0.083333       0.000000
      0.500000       0.083333       0.000000
      0.500000       0.166667       0.000000
      0.416667       0.166667       0.000000
      0.000000       0.166667       0.000000
      0.083333       0.166667       0.000000
      0.083333       0.250000       0.000000
      0.000000       0.250000       0.000000
      0.083333       0.166667       0.000000
      0.166667       0.166667       0.000000
      0.166667       0.250000       0.000000
      0.083333       0.250000       0.000000
      0.000000       0.250000       0.000000
      0.083333       0.250000       0.000000
      0.083333       0.333333       0.000000
      0.000000       0.333333       0.000000
      0.083333       0.250000       0.000000
      0.166667       0.250000       0.000000
      0.166667       0.333333       0.000000
      0.083333       0.333333       0.000000
      0.166667       0.166667       0.000000
      0.250000       0.166667       0.000000
      0.250000       0.250000       0.000000
      0.166667       0.250000       0.000000
      0.250000       0.166667       0.000000
      0.333333       0.166667       0.000000
      0.333333       0.250000       0.000000
      0.250000       0.250000       0.000000
      0.166667       0.250000       0.000000
      0.250000       0.250000       0.000000
      0.250000       0.333333       0.000000
      0.166667       0.333333       0.000000
      0.250000       0.250000       0.000000
      0.333333       0.250000       0.000000
      0.333333       0.333333       0.000000
      0.250000       0.333333       0.000000
      0.333333       0.166667       0.000000
      0.416667       0.166667       0.000000
      0.416667       0.250000       0.000000
      0.333333       0.250000       0.000000
      0.416667       0.166667       0.000000
      0.500000       0.166667       0.000000
      0.500000       0.250000       0.000000
      0.416667       0.250000       0.000000
      0.333333       0.250000       0.000000
      0.416667       0.250000       0.000000
      0.416667       0.333333       0.000000
      0.333333       0.333333       0.000000
      0.416667       0.250000       0.000000
      0.500000       0.250000       0.000000
      0.500000       0.333333       0.000000
      0.416667       0.333333       0.000000
      0.000000       0.333333       0.000000
      0.083333       0.333333       0.000000
      0.083333       0.416667       0.000000
     -0.000000       0.416667       0.000000
      0.083333       0.333333       0.000000
      0.166667       0.333333       0.000000
      0.166667       0.416667       0.000000
      0.083333       0.416667       0.000000
     -0.000000       0.416667       0.000000
      0.083333       0.416667       0.000000
      0.083333       0.500000       0.000000
      0.000000       0.500000       0.000000
      0.083333       0.416667       0.000000
      0.166667       0.416667       0.000000
      0.166667       0.500000       0.000000
      0.083333       0.500000       0.000000
      0.166667       0.333333       0.000000
      0.250000       0.333333       0.000000
      0.250000       0.416667       0.000000
      0.166667       0.416667       0.000000
      0.250000       0.333333       0.000000
      0.333333       0.333333       0.000000
      0.333333       0.416667       0.000000
      0.250000       0.416667       0.000000
      0.166667       0.416667       0.000000
      0.250000       0.416667       0.000000
      0.250000       0.500000       0.000000
      0.166667       0.500000       0.000000
      0.250000       0.416667       0.000000
      0.333333       0.416667       0.000000
      0.333333       0.500000       0.000000
      0.250000       0.500000       0.000000
      0.333333       0.333333       0.000000
      0.375000       0.333333       0.000000
      0.375000       0.375000       0.000000
      0.333333       0.375000       0.000000
      0.375000       0.333333       0.000000
      0.416667       0.333333       0.000000
      0.416667       0.375000       0.000000
      0.375000       0.375000       0.000000
      0.333333       0.375000       0.000000
      0.375000       0.375000       0.000000
      0.375000       0.416667       0.000000
      0.333333       0.416667       0.000000
      0.375000       0.375000       0.000000
      0.416667       0.375000       0.000000
      0.416667       0.416667       0.000000
      0.375000       0.416667       0.000000
      0.416667       0.333333       0.000000
      0.458333       0.333333       0.000000
      0.458333       0.375000       0.000000
      0.416667       0.375000       0.000000
      0.458333       0.333333       0.000000
      0.500000       0.333333       0.000000
      0.500000       0.375000       0.000000
      0.458333       0.375000       0.000000
      0.416667       0.375000       0.000000
      0.458333       0.375000       0.000000
      0.458333       0.416667       0.000000
      0.416667       0.416667       0.000000
      0.458333       0.375000       0.000000
      0.500000       0.375000       0.000000
      0.500000       0.416667       0.000000
      0.458333       0.416667       0.000000
      0.333333       0.416667       0.000000
      0.375000       0.416667       0.000000
      0.375000       0.458333       0.000000
      0.333333       0.458333       0.000000
      0.375000       0.416667       0.000000
      0.416667       0.416667       0.000000
      0.416667       0.458333       0.000000
      0.375000       0.458333       0.000000
      0.333333       0.458333       0.000000
      0.375000       0.458333       0.000000
      0.375000       0.500000       0.000000
      0.333333       0.500000       0.000000
      0.375000       0.458333       0.000000
      0.416667       0.458333       0.000000
      0.416667       0.500000       0.000000
      0.375000       0.500000       0.000000
      0.416667       0.416667       0.000000
      0.437500       0.416667       0.000000
      0.437500       0.437500       0.000000
      0.416667       0.437500       0.000000
      0.437500       0.416667       0.000000
      0.458333       0.416667       0.000000
      0.458333       0.437500       0.000000
      0.437500       0.437500       0.000000
      0.416667       0.437500       0.000000
      0.437500       0.437500       0.000000
      0.437500       0.458333       0.000000
      0.416667       0.458333       0.000000
      0.437500       0.437500       0.000000
      0.458333       0.437500       0.000000
      0.458333       0.458333       0.000000
      0.437500       0.458333       0.000000
      0.458333       0.416667       0.000000
      0.479167       0.416667       0.000000
      0.479167       0.437500       0.000000
      0.458333       0.437500       0.000000
      0.479167       0.416667       0.000000
      0.500000       0.416667       0.000000
      0.500000       0.437500       0.000000
      0.479167       0.437500       0.000000
      0.458333       0.437500       0.000000
      0.479167       0.437500       0.000000
      0.479167       0.458333       0.000000
      0.458333       0.458333       0.000000
      0.416667       0.458333       0.000000
      0.437500       0.458333       0.000000
      0.437500       0.479167       0.000000
      0.416667       0.479167       0.000000
      0.437500       0.458333       0.000000
      0.458333       0.458333       0.000000
      0.458333       0.479167       0.000000
      0.437500       0.479167       0.000000
      0.416667       0.479167       0.000000
      0.437500       0.479167       0.000000
      0.437500       0.500000       0.000000
      0.416667       0.500000       0.000000
      0.437500       0.479167       0.000000
      0.458333       0.479167       0.000000
      0.458333       0.500000       0.000000
      0.437500       0.500000       0.000000
[...]
POINT_DATA  1176
VECTORS U float 
      0.000000       0.000000       0.000000
      0.000000       0.000000       0.000000
      0.000509       0.000017       0.000000
      0.000505       0.000000       0.000000
      0.000000       0.000000       0.000000
      0.000000       0.000000       0.000000
      0.000522       0.000036       0.000000
      0.000509       0.000017       0.000000
      0.000505       0.000000       0.000000
      0.000509       0.000017       0.000000
      0.000951       0.000027       0.000000
      0.000942       0.000000       0.000000
      0.000509       0.000017       0.000000
      0.000522       0.000036       0.000000
      0.000978       0.000060       0.000000
      0.000951       0.000027       0.000000
      0.000000       0.000000       0.000000
      0.000000       0.000000       0.000000
      0.000539       0.000059       0.000000
      0.000522       0.000036       0.000000
      0.000000       0.000000       0.000000
      0.000000       0.000000       0.000000
      0.000554       0.000085       0.000000
      0.000539       0.000059       0.000000
      0.000522       0.000036       0.000000
      0.000539       0.000059       0.000000
      0.001017       0.000102       0.000000
      0.000978       0.000060       0.000000
      0.000539       0.000059       0.000000
      0.000554       0.000085       0.000000
      0.001062       0.000156       0.000000
      0.001017       0.000102       0.000000
      0.000000       0.000000       0.000000
      0.000000       0.000000       0.000000
      0.000561       0.000109       0.000000
      0.000554       0.000085       0.000000
      0.000000       0.000000       0.000000
      0.000000       0.000000       0.000000
      0.000559       0.000122       0.000000
      0.000561       0.000109       0.000000
      0.000554       0.000085       0.000000
      0.000561       0.000109       0.000000
      0.001098       0.000213       0.000000
      0.001062       0.000156       0.000000
      0.000561       0.000109       0.000000
      0.000559       0.000122       0.000000
      0.001118       0.000245       0.000000
      0.001098       0.000213       0.000000
      0.000942       0.000000       0.000000
      0.000951       0.000027       0.000000
      0.001311       0.000029       0.000000
      0.001297       0.000000       0.000000
      0.000951       0.000027       0.000000
      0.000978       0.000060       0.000000
      0.001354       0.000066       0.000000
      0.001311       0.000029       0.000000
      0.001297       0.000000       0.000000
      0.001311       0.000029       0.000000
      0.001576       0.000021       0.000000
      0.001557       0.000000       0.000000
      0.001311       0.000029       0.000000
      0.001354       0.000066       0.000000
      0.001633       0.000052       0.000000
      0.001576       0.000021       0.000000
      0.000978       0.000060       0.000000
      0.001017       0.000102       0.000000
      0.001424       0.000119       0.000000
      0.001354       0.000066       0.000000
      0.001017       0.000102       0.000000
      0.001062       0.000156       0.000000
      0.001514       0.000197       0.000000
      0.001424       0.000119       0.000000
      0.001354       0.000066       0.000000
      0.001424       0.000119       0.000000
      0.001731       0.000101       0.000000
      0.001633       0.000052       0.000000
      0.001424       0.000119       0.000000
      0.001514       0.000197       0.000000
      0.001875       0.000185       0.000000
      0.001731       0.000101       0.000000
      0.001062       0.000156       0.000000
      0.001098       0.000213       0.000000
      0.001608       0.000294       0.000000
      0.001514       0.000197       0.000000
      0.001098       0.000213       0.000000
      0.001118       0.000245       0.000000
      0.001678       0.000363       0.000000
      0.001608       0.000294       0.000000
      0.001514       0.000197       0.000000
      0.001608       0.000294       0.000000
      0.002064       0.000324       0.000000
      0.001875       0.000185       0.000000
      0.001608       0.000294       0.000000
      0.001678       0.000363       0.000000
      0.002243       0.000472       0.000000
      0.002064       0.000324       0.000000
      0.001557       0.000000       0.000000
      0.001576       0.000021       0.000000
      0.001737       0.000007       0.000000
      0.001716       0.000000       0.000000
      0.001576       0.000021       0.000000
      0.001633       0.000052       0.000000
      0.001799       0.000022       0.000000
      0.001737       0.000007       0.000000
      0.001716       0.000000       0.000000
      0.001737       0.000007       0.000000
      0.001793      -0.000010       0.000000
      0.001775       0.000000       0.000000
      0.001737       0.000007       0.000000
      0.001799       0.000022       0.000000
      0.001851      -0.000013       0.000000
      0.001793      -0.000010       0.000000
      0.001633       0.000052       0.000000
      0.001731       0.000101       0.000000
      0.001909       0.000054       0.000000
      0.001799       0.000022       0.000000
      0.001731       0.000101       0.000000
      0.001875       0.000185       0.000000
      0.002080       0.000115       0.000000
      0.001909       0.000054       0.000000
      0.001799       0.000022       0.000000
      0.001909       0.000054       0.000000
      0.001951      -0.000002       0.000000
      0.001851      -0.000013       0.000000
      0.001909       0.000054       0.000000
      0.002080       0.000115       0.000000
      0.002099       0.000032       0.000000
      0.001951      -0.000002       0.000000
      0.001875       0.000185       0.000000
      0.001966       0.000247       0.000000
      0.002111       0.000216       0.000000
      0.002002       0.000156       0.000000
      0.001966       0.000247       0.000000
      0.002064       0.000324       0.000000
      0.002242       0.000301       0.000000
      0.002111       0.000216       0.000000
      0.002002       0.000156       0.000000
      0.002111       0.000216       0.000000
      0.002197       0.000165       0.000000
      0.002080       0.000115       0.000000
      0.002111       0.000216       0.000000
      0.002242       0.000301       0.000000
      0.002348       0.000242       0.000000
      0.002197       0.000165       0.000000
      0.002064       0.000324       0.000000
      0.002160       0.000409       0.000000
      0.002388       0.000414       0.000000
      0.002242       0.000301       0.000000
      0.002160       0.000409       0.000000
      0.002243       0.000472       0.000000
      0.002523       0.000521       0.000000
      0.002388       0.000414       0.000000
      0.002242       0.000301       0.000000
      0.002388       0.000414       0.000000
      0.002549       0.000372       0.000000
      0.002348       0.000242       0.000000
      0.002388       0.000414       0.000000
      0.002523       0.000521       0.000000
      0.002790       0.000560       0.000000
      0.002549       0.000372       0.000000
      0.002080       0.000115       0.000000
      0.002197       0.000165       0.000000
      0.002216       0.000109       0.000000
      0.002109       0.000071       0.000000
      0.002197       0.000165       0.000000
      0.002348       0.000242       0.000000
      0.002349       0.000164       0.000000
      0.002216       0.000109       0.000000
      0.002109       0.000071       0.000000
      0.002216       0.000109       0.000000
      0.002189       0.000062       0.000000
      0.002099       0.000032       0.000000
      0.002216       0.000109       0.000000
      0.002349       0.000164       0.000000
      0.002284       0.000110       0.000000
      0.002189       0.000062       0.000000
      0.002348       0.000242       0.000000
      0.002441       0.000298       0.000000
      0.002456       0.000253       0.000000
      0.002362       0.000203       0.000000
      0.002441       0.000298       0.000000
      0.002549       0.000372       0.000000
      0.002572       0.000325       0.000000
      0.002456       0.000253       0.000000
      0.002362       0.000203       0.000000
      0.002456       0.000253       0.000000
      0.002431       0.000206       0.000000
      0.002349       0.000164       0.000000
      0.002456       0.000253       0.000000
      0.002572       0.000325       0.000000
      0.002535       0.000267       0.000000
      0.002431       0.000206       0.000000
      0.002549       0.000372       0.000000
      0.002668       0.000467       0.000000
      0.002720       0.000432       0.000000
      0.002572       0.000325       0.000000
      0.002668       0.000467       0.000000
      0.002790       0.000560       0.000000
      0.002902       0.000567       0.000000
      0.002720       0.000432       0.000000
      0.002572       0.000325       0.000000
      0.002720       0.000432       0.000000
      0.002685       0.000365       0.000000
      0.002535       0.000267       0.000000
      0.002349       0.000164       0.000000
      0.002431       0.000206       0.000000
      0.002380       0.000169       0.000000
      0.002318       0.000133       0.000000
      0.002431       0.000206       0.000000
      0.002535       0.000267       0.000000
      0.002448       0.000220       0.000000
      0.002380       0.000169       0.000000
      0.002318       0.000133       0.000000
      0.002380       0.000169       0.000000
      0.002329       0.000146       0.000000
      0.002284       0.000110       0.000000
      0.002380       0.000169       0.000000
      0.002448       0.000220       0.000000
      0.002367       0.000197       0.000000
      0.002329       0.000146       0.000000
      0.002535       0.000267       0.000000
      0.002601       0.000309       0.000000
      0.002550       0.000278       0.000000
      0.002495       0.000240       0.000000
      0.002601       0.000309       0.000000
      0.002685       0.000365       0.000000
      0.002621       0.000328       0.000000
      0.002550       0.000278       0.000000
      0.002495       0.000240       0.000000
      0.002550       0.000278       0.000000
      0.002488       0.000254       0.000000
      0.002448       0.000220       0.000000
      0.002550       0.000278       0.000000
      0.002621       0.000328       0.000000
      0.002536       0.000298       0.000000
      0.002488       0.000254       0.000000
      0.002685       0.000365       0.000000
      0.002798       0.000441       0.000000
      0.002725       0.000396       0.000000
      0.002621       0.000328       0.000000
      0.002798       0.000441       0.000000
      0.002961       0.000544       0.000000
      0.002921       0.000502       0.000000
      0.002725       0.000396       0.000000
      0.002621       0.000328       0.000000
      0.002725       0.000396       0.000000
      0.002604       0.000356       0.000000
      0.002536       0.000298       0.000000
      0.002725       0.000396       0.000000
      0.002921       0.000502       0.000000
      0.002751       0.000433       0.000000
      0.002604       0.000356       0.000000
      0.002448       0.000220       0.000000
      0.002488       0.000254       0.000000
      0.002429       0.000239       0.000000
      0.002403       0.000206       0.000000
      0.002488       0.000254       0.000000
      0.002536       0.000298       0.000000
      0.002455       0.000282       0.000000
      0.002429       0.000239       0.000000
      0.002403       0.000206       0.000000
      0.002429       0.000239       0.000000
      0.002383       0.000232       0.000000
      0.002367       0.000197       0.000000
      0.002429       0.000239       0.000000
      0.002455       0.000282       0.000000
      0.002399       0.000277       0.000000
      0.002383       0.000232       0.000000
      0.002536       0.000298       0.000000
      0.002604       0.000356       0.000000
      0.002486       0.000334       0.000000
      0.002455       0.000282       0.000000
      0.002604       0.000356       0.000000
      0.002751       0.000433       0.000000
      0.002483       0.000347       0.000000
      0.002486       0.000334       0.000000
      0.002455       0.000282       0.000000
      0.002486       0.000334       0.000000
      0.002440       0.000338       0.000000
      0.002399       0.000277       0.000000
      0.002486       0.000334       0.000000
      0.002483       0.000347       0.000000
      0.006381       0.000472       0.000000
      0.002440       0.000338       0.000000
      0.002720       0.000432       0.000000
      0.002808       0.000499       0.000000
      0.002820       0.000477       0.000000
      0.002717       0.000402       0.000000
      0.002808       0.000499       0.000000
      0.002902       0.000567       0.000000
      0.002944       0.000562       0.000000
      0.002820       0.000477       0.000000
      0.002717       0.000402       0.000000
      0.002820       0.000477       0.000000
      0.002798       0.000441       0.000000
      0.002685       0.000365       0.000000
      0.002820       0.000477       0.000000
      0.002944       0.000562       0.000000
      0.002961       0.000544       0.000000
      0.002798       0.000441       0.000000
      0.000000       0.000000       0.000000
      0.000000       0.000000       0.000000
      0.000554       0.000114       0.000000
      0.000559       0.000122       0.000000
      0.000000       0.000000       0.000000
      0.000000       0.000000       0.000000
      0.000557       0.000089       0.000000
      0.000554       0.000114       0.000000
      0.000559       0.000122       0.000000
      0.000554       0.000114       0.000000
      0.001132       0.000227       0.000000
      0.001118       0.000245       0.000000
      0.000554       0.000114       0.000000
      0.000557       0.000089       0.000000
      0.001160       0.000167       0.000000
      0.001132       0.000227       0.000000
      0.000000       0.000000       0.000000
      0.000000       0.000000       0.000000
      0.000571       0.000059       0.000000
      0.000557       0.000089       0.000000
      0.000000       0.000000       0.000000
      0.000000       0.000000       0.000000
      0.000590       0.000034       0.000000
      0.000571       0.000059       0.000000
      0.000557       0.000089       0.000000
      0.000571       0.000059       0.000000
      0.001204       0.000101       0.000000
      0.001160       0.000167       0.000000
      0.000571       0.000059       0.000000
      0.000590       0.000034       0.000000
      0.001249       0.000052       0.000000
      0.001204       0.000101       0.000000
      0.000000       0.000000       0.000000
      0.000000       0.000000       0.000000
      0.000606       0.000015       0.000000
      0.000590       0.000034       0.000000
      0.000000       0.000000       0.000000
      0.000000       0.000000       0.000000
      0.000611       0.000000       0.000000
      0.000606       0.000015       0.000000
      0.000590       0.000034       0.000000
      0.000606       0.000015       0.000000
      0.001281       0.000021       0.000000
      0.001249       0.000052       0.000000
      0.000606       0.000015       0.000000
      0.000611       0.000000       0.000000
      0.001292       0.000000       0.000000
      0.001281       0.000021       0.000000
      0.001118       0.000245       0.000000
      0.001132       0.000227       0.000000
      0.001736       0.000327       0.000000
      0.001678       0.000363       0.000000
      0.001132       0.000227       0.000000
      0.001160       0.000167       0.000000
      0.001818       0.000215       0.000000
      0.001736       0.000327       0.000000
      0.001678       0.000363       0.000000
      0.001736       0.000327       0.000000
      0.002392       0.000400       0.000000
      0.002243       0.000472       0.000000
      0.001736       0.000327       0.000000
      0.001818       0.000215       0.000000
      0.002580       0.000207       0.000000
      0.002392       0.000400       0.000000
      0.001160       0.000167       0.000000
      0.001204       0.000101       0.000000
      0.001914       0.000112       0.000000
      0.001818       0.000215       0.000000
      0.001204       0.000101       0.000000
      0.001249       0.000052       0.000000
      0.001994       0.000047       0.000000
      0.001914       0.000112       0.000000
      0.001818       0.000215       0.000000
      0.001914       0.000112       0.000000
      0.002745       0.000078       0.000000
      0.002580       0.000207       0.000000
      0.001914       0.000112       0.000000
      0.001994       0.000047       0.000000
      0.002854       0.000019       0.000000
      0.002745       0.000078       0.000000
      0.001249       0.000052       0.000000
      0.001281       0.000021       0.000000
      0.002044       0.000016       0.000000
      0.001994       0.000047       0.000000
      0.001281       0.000021       0.000000
      0.001292       0.000000       0.000000
      0.002062       0.000000       0.000000
      0.002044       0.000016       0.000000
      0.001994       0.000047       0.000000
      0.002044       0.000016       0.000000
      0.002914       0.000000       0.000000
      0.002854       0.000019       0.000000
      0.002044       0.000016       0.000000
      0.002062       0.000000       0.000000
      0.002933       0.000000       0.000000
      0.002914       0.000000       0.000000
      0.002580       0.000207       0.000000
      0.002745       0.000078       0.000000
      0.003769       0.000011       0.000000
      0.003602       0.000113       0.000000
      0.002745       0.000078       0.000000
      0.002854       0.000019       0.000000
      0.003852      -0.000020       0.000000
      0.003769       0.000011       0.000000
      0.003602       0.000113       0.000000
      0.003769       0.000011       0.000000
      0.004969      -0.000016       0.000000
      0.005015       0.000055       0.000000
      0.003769       0.000011       0.000000
      0.003852      -0.000020       0.000000
      0.004949      -0.000033       0.000000
      0.004969      -0.000016       0.000000
      0.002854       0.000019       0.000000
      0.002914       0.000000       0.000000
      0.003893      -0.000017       0.000000
      0.003852      -0.000020       0.000000
      0.002914       0.000000       0.000000
      0.002933       0.000000       0.000000
      0.003905       0.000000       0.000000
      0.003893      -0.000017       0.000000
      0.003852      -0.000020       0.000000
      0.003893      -0.000017       0.000000
      0.004939      -0.000023       0.000000
      0.004949      -0.000033       0.000000
      0.003893      -0.000017       0.000000
      0.003905       0.000000       0.000000
      0.004936       0.000000       0.000000
      0.004939      -0.000023       0.000000
      0.002243       0.000472       0.000000
      0.002313       0.000470       0.000000
      0.002639       0.000522       0.000000
      0.002523       0.000521       0.000000
      0.002313       0.000470       0.000000
      0.002392       0.000400       0.000000
      0.002771       0.000410       0.000000
      0.002639       0.000522       0.000000
      0.002523       0.000521       0.000000
      0.002639       0.000522       0.000000
      0.003020       0.000561       0.000000
      0.002790       0.000560       0.000000
      0.002639       0.000522       0.000000
      0.002771       0.000410       0.000000
      0.003262       0.000373       0.000000