# vtk DataFile Version 2.0
time_10.vtk
ASCII
DATASET UNSTRUCTURED_GRID
POINTS  2100 float
      0.000000       0.000000       0.000000
      0.083333       0.000000       0.000000
      0.083333       0.083333       0.000000
      0.000000       0.083333       0.000000
      0.083333       0.000000       0.000000
      0.166667       0.000000       0.000000
      0.166667       0.083333       0.000000
      0.083333       0.083333       0.000000
      0.000000       0.083333       0.000000
      0.083333       0.083333       0.000000
      0.083333       0.166667       0.000000
      0.000000       0.166667       0.000000
      0.083333       0.083333       0.000000
      0.166667       0.083333       0.000000
      0.166667       0.166667       0.000000
      0.083333       0.166667       0.000000
      0.166667       0.000000       0.000000
      0.250000       0.000000       0.000000
      0.250000       0.083333       0.000000
      0.166667       0.083333       0.000000
      0.250000       0.000000       0.000000
      0.333333       0.000000       0.000000
      0.333333       0.083333       0.000000
      0.250000       0.083333       0.000000
      0.166667       0.083333       0.000000
      0.250000       0.083333       0.000000
      0.250000       0.166667       0.000000
      0.166667       0.166667       0.000000
      0.250000       0.083333       0.000000
      0.333333       0.083333       0.000000
      0.333333       0.166667       0.000000
      0.250000       0.166667       0.000000
      0.333333       0.000000       0.000000
      0.416667      -0.000000       0.000000
      0.416667       0.083333       0.000000
      0.333333       0.083333       0.000000
      0.416667      -0.000000       0.000000
      0.500000       0.000000       0.000000
      0.500000       0.083333       0.000000
      0.416667       0.083333       0.000000
      0.333333       0.083333       0.000000
      0.416667       0.083333       0.000000
      0.416667       0.166667       0.000000
      0.333333       0.166667       0.000000
      0.416667       0.083333       0.000000
      0.500000       0.083333       0.000000
      0.500000       0.166667       0.000000
      0.416667       0.166667       0.000000
      0.000000       0.166667       0.000000
      0.083333       0.166667       0.000000
      0.083333       0.250000       0.000000
      0.000000       0.250000       0.000000
      0.083333       0.166667       0.000000
      0.166667       0.166667       0.000000
      0.166667       0.250000       0.000000
      0.083333       0.250000       0.000000
      0.000000       0.250000       0.000000
      0.083333       0.250000       0.000000
      0.083333       0.333333       0.000000
      0.000000       0.333333       0.000000
      0.083333       0.250000       0.000000
      0.166667       0.250000       0.000000
      0.166667       0.333333       0.000000
      0.083333       0.333333       0.000000
      0.166667       0.166667       0.000000
      0.250000       0.166667       0.000000
      0.250000       0.250000       0.000000
      0.166667       0.250000       0.000000
      0.250000       0.166667       0.000000
      0.333333       0.166667       0.000000
      0.333333       0.250000       0.000000
      0.250000       0.250000       0.000000
      0.166667       0.250000       0.000000
      0.250000       0.250000       0.000000
      0.250000       0.333333       0.000000
      0.166667       0.333333       0.000000
      0.250000       0.250000       0.000000
      0.333333       0.250000       0.000000
      0.333333       0.333333       0.000000
      0.250000       0.333333       0.000000
      0.333333       0.166667       0.000000
      0.416667       0.166667       0.000000
      0.416667       0.250000       0.000000
      0.333333       0.250000       0.000000
      0.333333       0.250000       0.000000
      0.416667       0.250000       0.000000
      0.416667       0.333333       0.000000
      0.333333       0.333333       0.000000
      0.000000       0.333333       0.000000
      0.083333       0.333333       0.000000
      0.083333       0.416667       0.000000
     -0.000000       0.416667       0.000000
      0.083333       0.333333       0.000000
      0.166667       0.333333       0.000000
      0.166667       0.416667       0.000000
      0.083333       0.416667       0.000000
     -0.000000       0.416667       0.000000
      0.083333       0.416667       0.000000
      0.083333       0.500000       0.000000
      0.000000       0.500000       0.000000
      0.083333       0.416667       0.000000
      0.166667       0.416667       0.000000
      0.166667       0.500000       0.000000
      0.083333       0.500000       0.000000
      0.166667       0.333333       0.000000
      0.250000       0.333333       0.000000
      0.250000       0.416667       0.000000
      0.166667       0.416667       0.000000
      0.250000       0.333333       0.000000
      0.333333       0.333333       0.000000
      0.333333       0.416667       0.000000
      0.250000       0.416667       0.000000
      0.166667       0.416667       0.000000
      0.250000       0.416667       0.000000
      0.250000       0.500000       0.000000
      0.166667       0.500000       0.000000
      0.250000       0.416667       0.000000
      0.333333       0.416667       0.000000
      0.333333       0.500000       0.000000
      0.250000       0.500000       0.000000
      0.333333       0.333333       0.000000
      0.375000       0.333333       0.000000
      0.375000       0.375000       0.000000
      0.333333       0.375000       0.000000
      0.375000       0.333333       0.000000
      0.416667       0.333333       0.000000
      0.416667       0.375000       0.000000
      0.375000       0.375000       0.000000
      0.333333       0.375000       0.000000
      0.375000       0.375000       0.000000
      0.375000       0.416667       0.000000
      0.333333       0.416667       0.000000
      0.375000       0.375000       0.000000
      0.416667       0.375000       0.000000
      0.416667       0.416667       0.000000
      0.375000       0.416667       0.000000
      0.416667       0.333333       0.000000
      0.458333       0.333333       0.000000
      0.458333       0.375000       0.000000
      0.416667       0.375000       0.000000
      0.416667       0.375000       0.000000
      0.458333       0.375000       0.000000
      0.458333       0.416667       0.000000
      0.416667       0.416667       0.000000
      0.333333       0.416667       0.000000
      0.375000       0.416667       0.000000
      0.375000       0.458333       0.000000
      0.333333       0.458333       0.000000
      0.375000       0.416667       0.000000
      0.416667       0.416667       0.000000
      0.416667       0.458333       0.000000
      0.375000       0.458333       0.000000
      0.333333       0.458333       0.000000
      0.375000       0.458333       0.000000
      0.375000       0.500000       0.000000
      0.333333       0.500000       0.000000
      0.375000       0.458333       0.000000
      0.416667       0.458333       0.000000
      0.416667       0.500000       0.000000
      0.375000       0.500000       0.000000
      0.416667       0.416667       0.000000
      0.437500       0.416667       0.000000
      0.437500       0.437500       0.000000
      0.416667       0.437500       0.000000
      0.437500       0.416667       0.000000
      0.458333       0.416667       0.000000
      0.458333       0.437500       0.000000
      0.437500       0.437500       0.000000
      0.416667       0.437500       0.000000
      0.437500       0.437500       0.000000
      0.437500       0.458333       0.000000
      0.416667       0.458333       0.000000
      0.437500       0.437500       0.000000
      0.458333       0.437500       0.000000
      0.458333       0.458333       0.000000
      0.437500       0.458333       0.000000
      0.458333       0.416667       0.000000
      0.479167       0.416667       0.000000
      0.479167       0.437500       0.000000
      0.458333       0.437500       0.000000
      0.458333       0.437500       0.000000
      0.479167       0.437500       0.000000
      0.479167       0.458333       0.000000
      0.458333       0.458333       0.000000
      0.416667       0.458333       0.000000
      0.437500       0.458333       0.000000
      0.437500       0.479167       0.000000
      0.416667       0.479167       0.000000
      0.437500       0.458333       0.000000
      0.458333       0.458333       0.000000
      0.458333       0.479167       0.000000
      0.437500       0.479167       0.000000
      0.416667       0.479167       0.000000
      0.437500       0.479167       0.000000
      0.437500       0.500000       0.000000
      0.416667       0.500000       0.000000
      0.437500       0.479167       0.000000
      0.458333       0.479167       0.000000
      0.458333       0.500000       0.000000
      0.437500       0.500000       0.000000
      0.458333       0.458333       0.000000
      0.468750       0.458333       0.000000
      0.468750       0.468750       0.000000
      0.458333       0.468750       0.000000
      0.468750       0.458333       0.000000
      0.479167       0.458333       0.000000
      0.479167       0.468750       0.000000
      0.468750       0.468750       0.000000
      0.458333       0.468750       0.000000
      0.468750       0.468750       0.000000
      0.468750       0.479167       0.000000
      0.458333       0.479167       0.000000
      0.468750       0.468750       0.000000
      0.479167       0.468750       0.000000
      0.479167       0.479167       0.000000
      0.468750       0.479167       0.000000
      0.479167       0.458333       0.000000
      0.489583       0.458333       0.000000
      0.489583       0.468750       0.000000
      0.479167       0.468750       0.000000
[...]
POINT_DATA  2100
VECTORS U float 
      0.000000       0.000000       0.000000
      0.000000       0.000000       0.000000
      0.000191      -0.000002       0.000000
      0.000185       0.000000       0.000000
      0.000000       0.000000       0.000000
      0.000000       0.000000       0.000000
      0.000212      -0.000004       0.000000
      0.000191      -0.000002       0.000000
      0.000185       0.000000       0.000000
      0.000191      -0.000002       0.000000
      0.000352      -0.000012       0.000000
      0.000343       0.000000       0.000000
      0.000191      -0.000002       0.000000
      0.000212      -0.000004       0.000000
      0.000382      -0.000023       0.000000
      0.000352      -0.000012       0.000000
      0.000000       0.000000       0.000000
      0.000000       0.000000       0.000000
      0.000249      -0.000002       0.000000
      0.000212      -0.000004       0.000000
      0.000000       0.000000       0.000000
      0.000000       0.000000       0.000000
      0.000308       0.000006       0.000000
      0.000249      -0.000002       0.000000
      0.000212      -0.000004       0.000000
      0.000249      -0.000002       0.000000
      0.000435      -0.000030       0.000000
      0.000382      -0.000023       0.000000
      0.000249      -0.000002       0.000000
      0.000308       0.000006       0.000000
      0.000518      -0.000028       0.000000
      0.000435      -0.000030       0.000000
      0.000000       0.000000       0.000000
      0.000000       0.000000       0.000000
      0.000392       0.000030       0.000000
      0.000308       0.000006       0.000000
      0.000000       0.000000       0.000000
      0.000000       0.000000       0.000000
      0.000495       0.000089       0.000000
      0.000392       0.000030       0.000000
      0.000308       0.000006       0.000000
      0.000392       0.000030       0.000000
      0.000640      -0.000002       0.000000
      0.000518      -0.000028       0.000000
      0.000392       0.000030       0.000000
      0.000495       0.000089       0.000000
      0.000817       0.000088       0.000000
      0.000640      -0.000002       0.000000
      0.000343       0.000000       0.000000
      0.000352      -0.000012       0.000000
      0.000472      -0.000024       0.000000
      0.000463       0.000000       0.000000
      0.000352      -0.000012       0.000000
      0.000382      -0.000023       0.000000
      0.000501      -0.000046       0.000000
      0.000472      -0.000024       0.000000
      0.000463       0.000000       0.000000
      0.000472      -0.000024       0.000000
      0.000555      -0.000033       0.000000
      0.000548       0.000000       0.000000
      0.000472      -0.000024       0.000000
      0.000501      -0.000046       0.000000
      0.000574      -0.000065       0.000000
      0.000555      -0.000033       0.000000
      0.000382      -0.000023       0.000000
      0.000435      -0.000030       0.000000
      0.000550      -0.000065       0.000000
      0.000501      -0.000046       0.000000
      0.000435      -0.000030       0.000000
      0.000518      -0.000028       0.000000
      0.000622      -0.000073       0.000000
      0.000550      -0.000065       0.000000
      0.000501      -0.000046       0.000000
      0.000550      -0.000065       0.000000
      0.000607      -0.000091       0.000000
      0.000574      -0.000065       0.000000
      0.000550      -0.000065       0.000000
      0.000622      -0.000073       0.000000
      0.000650      -0.000104       0.000000
      0.000607      -0.000091       0.000000
      0.000518      -0.000028       0.000000
      0.000640      -0.000002       0.000000
      0.000724      -0.000059       0.000000
      0.000622      -0.000073       0.000000
      0.000622      -0.000073       0.000000
      0.000724      -0.000059       0.000000
      0.000699      -0.000091       0.000000
      0.000650      -0.000104       0.000000
      0.000548       0.000000       0.000000
      0.000555      -0.000033       0.000000
      0.000610      -0.000039       0.000000
      0.000606       0.000000       0.000000
      0.000555      -0.000033       0.000000
      0.000574      -0.000065       0.000000
      0.000619      -0.000075       0.000000
      0.000610      -0.000039       0.000000
      0.000606       0.000000       0.000000
      0.000610      -0.000039       0.000000
      0.000651      -0.000041       0.000000
      0.000651       0.000000       0.000000
      0.000610      -0.000039       0.000000
      0.000619      -0.000075       0.000000
      0.000652      -0.000078       0.000000
      0.000651      -0.000041       0.000000
      0.000574      -0.000065       0.000000
      0.000607      -0.000091       0.000000
      0.000632      -0.000104       0.000000
      0.000619      -0.000075       0.000000
      0.000607      -0.000091       0.000000
      0.000650      -0.000104       0.000000
      0.000648      -0.000115       0.000000
      0.000632      -0.000104       0.000000
      0.000619      -0.000075       0.000000
      0.000632      -0.000104       0.000000
      0.000649      -0.000106       0.000000
      0.000652      -0.000078       0.000000
      0.000632      -0.000104       0.000000
      0.000648      -0.000115       0.000000
      0.000641      -0.000115       0.000000
      0.000649      -0.000106       0.000000
      0.000650      -0.000104       0.000000
      0.000675      -0.000102       0.000000
      0.000665      -0.000108       0.000000
      0.000651      -0.000111       0.000000
      0.000675      -0.000102       0.000000
      0.000699      -0.000091       0.000000
      0.000678      -0.000095       0.000000
      0.000665      -0.000108       0.000000
      0.000651      -0.000111       0.000000
      0.000665      -0.000108       0.000000
      0.000655      -0.000110       0.000000
      0.000648      -0.000115       0.000000
      0.000665      -0.000108       0.000000
      0.000678      -0.000095       0.000000
      0.000660      -0.000095       0.000000
      0.000655      -0.000110       0.000000
      0.000699      -0.000091       0.000000
      0.000723      -0.000068       0.000000
      0.000689      -0.000070       0.000000
      0.000678      -0.000095       0.000000
      0.000678      -0.000095       0.000000
      0.000689      -0.000070       0.000000
      0.000664      -0.000070       0.000000
      0.000660      -0.000095       0.000000
      0.000648      -0.000115       0.000000
      0.000655      -0.000110       0.000000
      0.000645      -0.000110       0.000000
      0.000644      -0.000116       0.000000
      0.000655      -0.000110       0.000000
      0.000660      -0.000095       0.000000
      0.000646      -0.000094       0.000000
      0.000645      -0.000110       0.000000
      0.000644      -0.000116       0.000000
      0.000645      -0.000110       0.000000
      0.000635      -0.000109       0.000000
      0.000641      -0.000115       0.000000
      0.000645      -0.000110       0.000000
      0.000646      -0.000094       0.000000
      0.000630      -0.000093       0.000000
      0.000635      -0.000109       0.000000
      0.000660      -0.000095       0.000000
      0.000662      -0.000084       0.000000
      0.000654      -0.000083       0.000000
      0.000653      -0.000095       0.000000
      0.000662      -0.000084       0.000000
      0.000664      -0.000070       0.000000
      0.000655      -0.000070       0.000000
      0.000654      -0.000083       0.000000
      0.000653      -0.000095       0.000000
      0.000654      -0.000083       0.000000
      0.000647      -0.000083       0.000000
      0.000646      -0.000094       0.000000
      0.000654      -0.000083       0.000000
      0.000655      -0.000070       0.000000
      0.000647      -0.000070       0.000000
      0.000647      -0.000083       0.000000
      0.000664      -0.000070       0.000000
      0.000666      -0.000053       0.000000
      0.000657      -0.000054       0.000000
      0.000655      -0.000070       0.000000
      0.000655      -0.000070       0.000000
      0.000657      -0.000054       0.000000
      0.000649      -0.000055       0.000000
      0.000647      -0.000070       0.000000
      0.000646      -0.000094       0.000000
      0.000647      -0.000083       0.000000
      0.000639      -0.000083       0.000000
      0.000639      -0.000094       0.000000
      0.000647      -0.000083       0.000000
      0.000647      -0.000070       0.000000
      0.000640      -0.000070       0.000000
      0.000639      -0.000083       0.000000
      0.000639      -0.000094       0.000000
      0.000639      -0.000083       0.000000
      0.000629      -0.000083       0.000000
      0.000630      -0.000093       0.000000
      0.000639      -0.000083       0.000000
      0.000640      -0.000070       0.000000
      0.000630      -0.000071       0.000000
      0.000629      -0.000083       0.000000
      0.000647      -0.000070       0.000000
      0.000648      -0.000063       0.000000
      0.000644      -0.000063       0.000000
      0.000644      -0.000070       0.000000
      0.000648      -0.000063       0.000000
      0.000649      -0.000055       0.000000
      0.000646      -0.000056       0.000000
      0.000644      -0.000063       0.000000
      0.000644      -0.000070       0.000000
      0.000644      -0.000063       0.000000
      0.000640      -0.000064       0.000000
      0.000640      -0.000070       0.000000
      0.000644      -0.000063       0.000000
      0.000646      -0.000056       0.000000
      0.000642      -0.000057       0.000000
      0.000640      -0.000064       0.000000
      0.000649      -0.000055       0.000000
      0.000651      -0.000047       0.000000
      0.000648      -0.000048       0.000000
      0.000646      -0.000056       0.000000
      0.000651      -0.000047       0.000000
      0.000655      -0.000037       0.000000
      0.000653      -0.000032       0.000000
      0.000648      -0.000048       0.000000
      0.000646      -0.000056       0.000000
      0.000648      -0.000048       0.000000
      0.000645      -0.000050       0.000000
      0.000642      -0.000057       0.000000
      0.000648      -0.000048       0.000000
      0.000653      -0.000032       0.000000
      0.000644      -0.000025       0.000000
      0.000645      -0.000050       0.000000
      0.000640      -0.000070       0.000000
      0.000640      -0.000064       0.000000
      0.000636      -0.000065       0.000000
      0.000635      -0.000071       0.000000
      0.000640      -0.000064       0.000000
      0.000642      -0.000057       0.000000
      0.000638      -0.000059       0.000000
      0.000636      -0.000065       0.000000
      0.000635      -0.000071       0.000000
      0.000636      -0.000065       0.000000
      0.000632      -0.000064       0.000000
      0.000630      -0.000071       0.000000
      0.000636      -0.000065       0.000000
      0.000638      -0.000059       0.000000
      0.000639      -0.000056       0.000000
      0.000632      -0.000064       0.000000
      0.000642      -0.000057       0.000000
      0.000645      -0.000050       0.000000
      0.000641      -0.000057       0.000000
      0.000638      -0.000059       0.000000
      0.000645      -0.000050       0.000000
      0.000644      -0.000025       0.000000
      0.000406       0.000022       0.000000
      0.000641      -0.000057       0.000000
      0.000638      -0.000059       0.000000
      0.000641      -0.000057       0.000000
      0.000700      -0.000039       0.000000
      0.000639      -0.000056       0.000000
      0.000641      -0.000057       0.000000
      0.000406       0.000022       0.000000
      0.009169       0.000900       0.000000
      0.000700      -0.000039       0.000000
      0.000657      -0.000054       0.000000
      0.000658      -0.000045       0.000000
      0.000655      -0.000046       0.000000
      0.000653      -0.000054       0.000000
      0.000658      -0.000045       0.000000
      0.000660      -0.000035       0.000000
      0.000657      -0.000037       0.000000
      0.000655      -0.000046       0.000000
      0.000653      -0.000054       0.000000
      0.000655      -0.000046       0.000000
      0.000651      -0.000047       0.000000
      0.000649      -0.000055       0.000000
      0.000655      -0.000046       0.000000
      0.000657      -0.000037       0.000000
      0.000655      -0.000037       0.000000
      0.000651      -0.000047       0.000000
      0.000689      -0.000070       0.000000
      0.000693      -0.000052       0.000000
      0.000678      -0.000052       0.000000
      0.000675      -0.000070       0.000000
      0.000693      -0.000052       0.000000
      0.000696      -0.000029       0.000000
      0.000681      -0.000030       0.000000
      0.000678      -0.000052       0.000000
      0.000675      -0.000070       0.000000
      0.000678      -0.000052       0.000000
      0.000666      -0.000053       0.000000
      0.000664      -0.000070       0.000000
      0.000666      -0.000053       0.000000
      0.000668      -0.000043       0.000000
      0.000663      -0.000044       0.000000
      0.000662      -0.000053       0.000000
      0.000668      -0.000043       0.000000
      0.000669      -0.000032       0.000000
      0.000664      -0.000034       0.000000
      0.000663      -0.000044       0.000000
      0.000662      -0.000053       0.000000
      0.000663      -0.000044       0.000000
      0.000658      -0.000045       0.000000
      0.000657      -0.000054       0.000000
      0.000663      -0.000044       0.000000
      0.000664      -0.000034       0.000000
      0.000660      -0.000035       0.000000
      0.000658      -0.000045       0.000000
      0.000678      -0.000052       0.000000
      0.000679      -0.000042       0.000000
      0.000673      -0.000042       0.000000
      0.000672      -0.000052       0.000000
      0.000679      -0.000042       0.000000
      0.000681      -0.000030       0.000000
      0.000674      -0.000031       0.000000
      0.000673      -0.000042       0.000000
      0.000672      -0.000052       0.000000
      0.000673      -0.000042       0.000000
      0.000668      -0.000043       0.000000
      0.000666      -0.000053       0.000000
      0.000673      -0.000042       0.000000
      0.000674      -0.000031       0.000000
      0.000669      -0.000032       0.000000
      0.000668      -0.000043       0.000000
      0.000724      -0.000059       0.000000
      0.000790      -0.000036       0.000000
      0.000762      -0.000059       0.000000
      0.000719      -0.000080       0.000000
      0.000790      -0.000036       0.000000
      0.000871       0.000009       0.000000
      0.000810      -0.000018       0.000000
      0.000762      -0.000059       0.000000
      0.000719      -0.000080       0.000000
      0.000762      -0.000059       0.000000
      0.000723      -0.000068       0.000000
      0.000699      -0.000091       0.000000
      0.000723      -0.000068       0.000000
      0.000734      -0.000050       0.000000
      0.000711      -0.000051       0.000000
      0.000705      -0.000070       0.000000
      0.000734      -0.000050       0.000000
      0.000743      -0.000027       0.000000
      0.000717      -0.000028       0.000000
      0.000711      -0.000051       0.000000
      0.000705      -0.000070       0.000000
      0.000711      -0.000051       0.000000
      0.000693      -0.000052       0.000000
      0.000689      -0.000070       0.000000
      0.000711      -0.000051       0.000000
      0.000717      -0.000028       0.000000
      0.000696      -0.000029       0.000000
      0.000693      -0.000052       0.000000
      0.000762      -0.000059       0.000000
      0.000786      -0.000041       0.000000
      0.000759      -0.000047       0.000000
      0.000743      -0.000065       0.000000
      0.000786      -0.000041       0.000000
      0.000810      -0.000018       0.000000
      0.000775      -0.000024       0.000000
      0.000759      -0.000047       0.000000
      0.000743      -0.000065       0.000000
      0.000759      -0.000047       0.000000
      0.000734      -0.000050       0.000000
      0.000723      -0.000068       0.000000
      0.000759      -0.000047       0.000000
      0.000775      -0.000024       0.000000
      0.000743      -0.000027       0.000000
      0.000734      -0.000050       0.000000
      0.000640      -0.000002       0.000000
      0.000720       0.000031       0.000000
      0.000781      -0.000002       0.000000
      0.000701      -0.000031       0.000000
      0.000720       0.000031       0.000000
      0.000817       0.000088       0.000000
      0.000882       0.000051       0.000000
      0.000781      -0.000002       0.000000
      0.000701      -0.000031       0.000000
      0.000781      -0.000002       0.000000
      0.000790      -0.000036       0.000000
      0.000724      -0.000059       0.000000
      0.000781      -0.000002       0.000000
      0.000882       0.000051       0.000000
      0.000871       0.000009       0.000000
      0.000790      -0.000036       0.000000
      0.000000       0.000000       0.000000
      0.000000       0.000000       0.000000
      0.000581       0.000194       0.000000
      0.000495       0.000089       0.000000
      0.000000       0.000000       0.000000
      0.000000       0.000000       0.000000
      0.000604       0.000261       0.000000
      0.000581       0.000194       0.000000
      0.000495       0.000089       0.000000
      0.000581       0.000194       0.000000
      0.001056       0.000321       0.000000
      0.000817       0.000088       0.000000
      0.000581       0.000194       0.000000
      0.000604       0.000261       0.000000
      0.001235       0.000530       0.000000
      0.001056       0.000321       0.000000
      0.000000       0.000000       0.000000
      0.000000       0.000000       0.000000
      0.000623       0.000194       0.000000
      0.000604       0.000261       0.000000
      0.000000       0.000000       0.000000
      0.000000       0.000000       0.000000
      0.000684       0.000096       0.000000
      0.000623       0.000194       0.000000
      0.000604       0.000261       0.000000
      0.000623       0.000194       0.000000
      0.001416       0.000318       0.000000
      0.001235       0.000530       0.000000
      0.000623       0.000194       0.000000
      0.000684       0.000096       0.000000
      0.001599       0.000128       0.000000
      0.001416       0.000318       0.000000
      0.000000       0.000000       0.000000
      0.000000       0.000000       0.000000
      0.000741       0.000036       0.000000
      0.000684       0.000096       0.000000
      0.000000       0.000000       0.000000
      0.000000       0.000000       0.000000
      0.000764       0.000000       0.000000
      0.000741       0.000036       0.000000
      0.000684       0.000096       0.000000
      0.000741       0.000036       0.000000
      0.001710       0.000040       0.000000
      0.001599       0.000128       0.000000
      0.000741       0.000036       0.000000
      0.000764       0.000000       0.000000
      0.001747       0.000000       0.000000
      0.001710       0.000040       0.000000
      0.001416       0.000318       0.000000
      0.001599       0.000128       0.000000
      0.002878       0.000100       0.000000
      0.002681       0.000304       0.000000
      0.002681       0.000304       0.000000
      0.002878       0.000100       0.000000
      0.004498       0.000107       0.000000
      0.004543       0.000336       0.000000
      0.001599       0.000128       0.000000
      0.001710       0.000040       0.000000
      0.002973       0.000025       0.000000