# vtk DataFile Version 2.0
time_10.vtk
ASCII
DATASET UNSTRUCTURED_GRID
POINTS  1152 float
      0.000000       0.000000       0.000000
      0.083333       0.000000       0.000000
      0.083333       0.083333       0.000000
      0.000000       0.083333       0.000000
      0.083333       0.000000       0.000000
      0.166667       0.000000       0.000000
      0.166667       0.083333       0.000000
      0.083333       0.083333       0.000000
      0.000000       0.083333       0.000000
      0.083333       0.083333       0.000000
      0.083333       0.166667       0.000000
      0.000000       0.166667       0.000000
      0.083333       0.083333       0.000000
      0.166667       0.083333       0.000000
      0.166667       0.166667       0.000000
      0.083333       0.166667       0.000000
      0.166667       0.000000       0.000000
      0.250000       0.000000       0.000000
      0.250000       0.083333       0.000000
      0.166667       0.083333       0.000000
      0.250000       0.000000       0.000000
      0.333333       0.000000       0.000000
      0.333333       0.083333       0.000000
      0.250000       0.083333       0.000000
      0.166667       0.083333       0.000000
      0.250000       0.083333       0.000000
      0.250000       0.166667       0.000000
      0.166667       0.166667       0.000000
      0.250000       0.083333       0.000000
      0.333333       0.083333       0.000000
      0.333333       0.166667       0.000000
      0.250000       0.166667       0.000000
      0.333333       0.000000       0.000000
      0.416667       0.000000       0.000000
      0.416667       0.083333       0.000000
      0.333333       0.083333       0.000000
      0.416667       0.000000       0.000000
      0.500000       0.000000       0.000000
      0.500000       0.083333       0.000000
      0.416667       0.083333       0.000000
      0.333333       0.083333       0.000000
      0.416667       0.083333       0.000000
      0.416667       0.166667       0.000000
      0.333333       0.166667       0.000000
      0.416667       0.083333       0.000000
      0.500000       0.083333       0.000000
      0.500000       0.166667       0.000000
      0.416667       0.166667       0.000000
      0.000000       0.166667       0.000000
      0.083333       0.166667       0.000000
      0.083333       0.250000       0.000000
      0.000000       0.250000       0.000000
      0.083333       0.166667       0.000000
      0.166667       0.166667       0.000000
      0.166667       0.250000       0.000000
      0.083333       0.250000       0.000000
      0.000000       0.250000       0.000000
      0.083333       0.250000       0.000000
      0.083333       0.333333       0.000000
      0.000000       0.333333       0.000000
      0.083333       0.250000       0.000000
      0.166667       0.250000       0.000000
      0.166667       0.333333       0.000000
      0.083333       0.333333       0.000000
      0.166667       0.166667       0.000000
      0.250000       0.166667       0.000000
      0.250000       0.250000       0.000000
      0.166667       0.250000       0.000000
      0.250000       0.166667       0.000000
      0.333333       0.166667       0.000000
      0.333333       0.250000       0.000000
      0.250000       0.250000       0.000000
      0.166667       0.250000       0.000000
      0.250000       0.250000       0.000000
      0.250000       0.333333       0.000000
      0.166667       0.333333       0.000000
      0.250000       0.250000       0.000000
      0.333333       0.250000       0.000000
      0.333333       0.333333       0.000000
      0.250000       0.333333       0.000000
      0.333333       0.166667       0.000000
      0.416667       0.166667       0.000000
      0.416667       0.250000       0.000000
      0.333333       0.250000       0.000000
      0.416667       0.166667       0.000000
      0.500000       0.166667       0.000000
      0.500000       0.250000       0.000000
      0.416667       0.250000       0.000000
      0.333333       0.250000       0.000000
      0.416667       0.250000       0.000000
      0.416667       0.333333       0.000000
      0.333333       0.333333       0.000000
      0.416667       0.250000       0.000000
      0.500000       0.250000       0.000000
      0.500000       0.333333       0.000000
      0.416667       0.333333       0.000000
      0.000000       0.333333       0.000000
      0.083333       0.333333       0.000000
      0.083333       0.416667       0.000000
      0.000000       0.416667       0.000000
      0.083333       0.333333       0.000000
      0.166667       0.333333       0.000000
      0.166667       0.416667       0.000000
      0.083333       0.416667       0.000000
      0.000000       0.416667       0.000000
      0.083333       0.416667       0.000000
      0.083333       0.500000       0.000000
      0.000000       0.500000       0.000000
      0.083333       0.416667       0.000000
      0.166667       0.416667       0.000000
      0.166667       0.500000       0.000000
      0.083333       0.500000       0.000000
      0.166667       0.333333       0.000000
      0.250000       0.333333       0.000000
      0.250000       0.416667       0.000000
      0.166667       0.416667       0.000000
      0.250000       0.333333       0.000000
      0.333333       0.333333       0.000000
      0.333333       0.416667       0.000000
      0.250000       0.416667       0.000000
      0.166667       0.416667       0.000000
      0.250000       0.416667       0.000000
      0.250000       0.500000       0.000000
      0.166667       0.500000       0.000000
      0.250000       0.416667       0.000000
      0.333333       0.416667       0.000000
      0.333333       0.500000       0.000000
      0.250000       0.500000       0.000000
      0.333333       0.333333       0.000000
      0.375000       0.333333       0.000000
      0.375000       0.375000       0.000000
      0.333333       0.375000       0.000000
      0.375000       0.333333       0.000000
      0.416667       0.333333       0.000000
      0.416667       0.375000       0.000000
      0.375000       0.375000       0.000000
      0.333333       0.375000       0.000000
      0.375000       0.375000       0.000000
      0.375000       0.416667       0.000000
      0.333333       0.416667       0.000000
      0.375000       0.375000       0.000000
      0.416667       0.375000       0.000000
      0.416667       0.416667       0.000000
      0.375000       0.416667       0.000000
      0.416667       0.333333       0.000000
      0.458333       0.333333       0.000000
      0.458333       0.375000       0.000000
      0.416667       0.375000       0.000000
      0.458333       0.333333       0.000000
      0.500000       0.333333       0.000000
      0.500000       0.375000       0.000000
      0.458333       0.375000       0.000000
      0.416667       0.375000       0.000000
      0.458333       0.375000       0.000000
      0.458333       0.416667       0.000000
      0.416667       0.416667       0.000000
      0.458333       0.375000       0.000000
      0.500000       0.375000       0.000000
      0.500000       0.416667       0.000000
      0.458333       0.416667       0.000000
      0.333333       0.416667       0.000000
      0.375000       0.416667       0.000000
      0.375000       0.458333       0.000000
      0.333333       0.458333       0.000000
      0.375000       0.416667       0.000000
      0.416667       0.416667       0.000000
      0.416667       0.458333       0.000000
      0.375000       0.458333       0.000000
      0.333333       0.458333       0.000000
      0.375000       0.458333       0.000000
      0.375000       0.500000       0.000000
      0.333333       0.500000       0.000000
      0.375000       0.458333       0.000000
      0.416667       0.458333       0.000000
      0.416667       0.500000       0.000000
      0.375000       0.500000       0.000000
      0.416667       0.416667       0.000000
      0.437500       0.416667       0.000000
      0.437500       0.437500       0.000000
      0.416667       0.437500       0.000000
      0.437500       0.416667       0.000000
      0.458333       0.416667       0.000000
      0.458333       0.437500       0.000000
      0.437500       0.437500       0.000000
      0.416667       0.437500       0.000000
      0.437500       0.437500       0.000000
      0.437500       0.458333       0.000000
      0.416667       0.458333       0.000000
      0.437500       0.437500       0.000000
      0.458333       0.437500       0.000000
      0.458333       0.458333       0.000000
      0.437500       0.458333       0.000000
      0.458333       0.416667       0.000000
      0.479167       0.416667       0.000000
      0.479167       0.437500       0.000000
      0.458333       0.437500       0.000000
      0.479167       0.416667       0.000000
      0.500000       0.416667       0.000000
      0.500000       0.437500       0.000000
      0.479167       0.437500       0.000000
      0.458333       0.437500       0.000000
      0.479167       0.437500       0.000000
      0.479167       0.458333       0.000000
      0.458333       0.458333       0.000000
      0.479167       0.437500       0.000000
      0.500000       0.437500       0.000000
      0.500000       0.458333       0.000000
      0.479167       0.458333       0.000000
      0.416667       0.458333       0.000000
      0.437500       0.458333       0.000000
      0.437500       0.479167       0.000000
      0.416667       0.479167       0.000000
      0.437500       0.458333       0.000000
      0.458333       0.458333       0.000000
      0.458333       0.479167       0.000000
      0.437500       0.479167       0.000000
      0.416667       0.479167       0.000000
      0.437500       0.479167       0.000000
      0.437500       0.500000       0.000000
      0.416667       0.500000       0.000000
[...]
POINT_DATA  1152
VECTORS U float 
      0.000000       0.000000       0.000000
      0.000000       0.000000       0.000000
      0.000510       0.000019       0.000000
      0.000507       0.000000       0.000000
      0.000000       0.000000       0.000000
      0.000000       0.000000       0.000000
      0.000519       0.000039       0.000000
      0.000510       0.000019       0.000000
      0.000507       0.000000       0.000000
      0.000510       0.000019       0.000000
      0.000955       0.000032       0.000000
      0.000948       0.000000       0.000000
      0.000510       0.000019       0.000000
      0.000519       0.000039       0.000000
      0.000977       0.000068       0.000000
      0.000955       0.000032       0.000000
      0.000000       0.000000       0.000000
      0.000000       0.000000       0.000000
      0.000531       0.000061       0.000000
      0.000519       0.000039       0.000000
      0.000000       0.000000       0.000000
      0.000000       0.000000       0.000000
      0.000540       0.000085       0.000000
      0.000531       0.000061       0.000000
      0.000519       0.000039       0.000000
      0.000531       0.000061       0.000000
      0.001008       0.000111       0.000000
      0.000977       0.000068       0.000000
      0.000531       0.000061       0.000000
      0.000540       0.000085       0.000000
      0.001040       0.000160       0.000000
      0.001008       0.000111       0.000000
      0.000000       0.000000       0.000000
      0.000000       0.000000       0.000000
      0.000542       0.000103       0.000000
      0.000540       0.000085       0.000000
      0.000000       0.000000       0.000000
      0.000000       0.000000       0.000000
      0.000538       0.000110       0.000000
      0.000542       0.000103       0.000000
      0.000540       0.000085       0.000000
      0.000542       0.000103       0.000000
      0.001065       0.000204       0.000000
      0.001040       0.000160       0.000000
      0.000542       0.000103       0.000000
      0.000538       0.000110       0.000000
      0.001079       0.000221       0.000000
      0.001065       0.000204       0.000000
      0.000948       0.000000       0.000000
      0.000955       0.000032       0.000000
      0.001322       0.000037       0.000000
      0.001309       0.000000       0.000000
      0.000955       0.000032       0.000000
      0.000977       0.000068       0.000000
      0.001360       0.000081       0.000000
      0.001322       0.000037       0.000000
      0.001309       0.000000       0.000000
      0.001322       0.000037       0.000000
      0.001595       0.000032       0.000000
      0.001576       0.000000       0.000000
      0.001322       0.000037       0.000000
      0.001360       0.000081       0.000000
      0.001651       0.000073       0.000000
      0.001595       0.000032       0.000000
      0.000977       0.000068       0.000000
      0.001008       0.000111       0.000000
      0.001421       0.000138       0.000000
      0.001360       0.000081       0.000000
      0.001008       0.000111       0.000000
      0.001040       0.000160       0.000000
      0.001496       0.000212       0.000000
      0.001421       0.000138       0.000000
      0.001360       0.000081       0.000000
      0.001421       0.000138       0.000000
      0.001746       0.000132       0.000000
      0.001651       0.000073       0.000000
      0.001421       0.000138       0.000000
      0.001496       0.000212       0.000000
      0.001879       0.000218       0.000000
      0.001746       0.000132       0.000000
      0.001040       0.000160       0.000000
      0.001065       0.000204       0.000000
      0.001570       0.000289       0.000000
      0.001496       0.000212       0.000000
      0.001065       0.000204       0.000000
      0.001079       0.000221       0.000000
      0.001626       0.000327       0.000000
      0.001570       0.000289       0.000000
      0.001496       0.000212       0.000000
      0.001570       0.000289       0.000000
      0.002040       0.000336       0.000000
      0.001879       0.000218       0.000000
      0.001570       0.000289       0.000000
      0.001626       0.000327       0.000000
      0.002184       0.000423       0.000000
      0.002040       0.000336       0.000000
      0.001576       0.000000       0.000000
      0.001595       0.000032       0.000000
      0.001760       0.000018       0.000000
      0.001738       0.000000       0.000000
      0.001595       0.000032       0.000000
      0.001651       0.000073       0.000000
      0.001827       0.000045       0.000000
      0.001760       0.000018       0.000000
      0.001738       0.000000       0.000000
      0.001760       0.000018       0.000000
      0.001813      -0.000000       0.000000
      0.001792       0.000000       0.000000
      0.001760       0.000018       0.000000
      0.001827       0.000045       0.000000
      0.001878       0.000007       0.000000
      0.001813      -0.000000       0.000000
      0.001651       0.000073       0.000000
      0.001746       0.000132       0.000000
      0.001946       0.000089       0.000000
      0.001827       0.000045       0.000000
      0.001746       0.000132       0.000000
      0.001879       0.000218       0.000000
      0.002127       0.000162       0.000000
      0.001946       0.000089       0.000000
      0.001827       0.000045       0.000000
      0.001946       0.000089       0.000000
      0.001994       0.000027       0.000000
      0.001878       0.000007       0.000000
      0.001946       0.000089       0.000000
      0.002127       0.000162       0.000000
      0.002175       0.000069       0.000000
      0.001994       0.000027       0.000000
      0.001879       0.000218       0.000000
      0.001958       0.000274       0.000000
      0.002128       0.000257       0.000000
      0.002025       0.000198       0.000000
      0.001958       0.000274       0.000000
      0.002040       0.000336       0.000000
      0.002245       0.000330       0.000000
      0.002128       0.000257       0.000000
      0.002025       0.000198       0.000000
      0.002128       0.000257       0.000000
      0.002249       0.000216       0.000000
      0.002127       0.000162       0.000000
      0.002128       0.000257       0.000000
      0.002245       0.000330       0.000000
      0.002399       0.000290       0.000000
      0.002249       0.000216       0.000000
      0.002040       0.000336       0.000000
      0.002118       0.000394       0.000000
      0.002365       0.000413       0.000000
      0.002245       0.000330       0.000000
      0.002118       0.000394       0.000000
      0.002184       0.000423       0.000000
      0.002470       0.000468       0.000000
      0.002365       0.000413       0.000000
      0.002245       0.000330       0.000000
      0.002365       0.000413       0.000000
      0.002580       0.000398       0.000000
      0.002399       0.000290       0.000000
      0.002365       0.000413       0.000000
      0.002470       0.000468       0.000000
      0.002764       0.000508       0.000000
      0.002580       0.000398       0.000000
      0.002127       0.000162       0.000000
      0.002249       0.000216       0.000000
      0.002305       0.000159       0.000000
      0.002177       0.000117       0.000000
      0.002249       0.000216       0.000000
      0.002399       0.000290       0.000000
      0.002465       0.000218       0.000000
      0.002305       0.000159       0.000000
      0.002177       0.000117       0.000000
      0.002305       0.000159       0.000000
      0.002296       0.000101       0.000000
      0.002175       0.000069       0.000000
      0.002305       0.000159       0.000000
      0.002465       0.000218       0.000000
      0.002440       0.000144       0.000000
      0.002296       0.000101       0.000000
      0.002399       0.000290       0.000000
      0.002486       0.000339       0.000000
      0.002543       0.000304       0.000000
      0.002445       0.000257       0.000000
      0.002486       0.000339       0.000000
      0.002580       0.000398       0.000000
      0.002657       0.000368       0.000000
      0.002543       0.000304       0.000000
      0.002445       0.000257       0.000000
      0.002543       0.000304       0.000000
      0.002565       0.000258       0.000000
      0.002465       0.000218       0.000000
      0.002543       0.000304       0.000000
      0.002657       0.000368       0.000000
      0.002689       0.000317       0.000000
      0.002565       0.000258       0.000000
      0.002580       0.000398       0.000000
      0.002675       0.000462       0.000000
      0.002784       0.000451       0.000000
      0.002657       0.000368       0.000000
      0.002675       0.000462       0.000000
      0.002764       0.000508       0.000000
      0.002913       0.000525       0.000000
      0.002784       0.000451       0.000000
      0.002657       0.000368       0.000000
      0.002784       0.000451       0.000000
      0.002855       0.000413       0.000000
      0.002689       0.000317       0.000000
      0.002784       0.000451       0.000000
      0.002913       0.000525       0.000000
      0.003064       0.000536       0.000000
      0.002855       0.000413       0.000000
      0.002465       0.000218       0.000000
      0.002565       0.000258       0.000000
      0.002552       0.000211       0.000000
      0.002461       0.000179       0.000000
      0.002565       0.000258       0.000000
      0.002689       0.000317       0.000000
      0.002663       0.000255       0.000000
      0.002552       0.000211       0.000000
      0.002461       0.000179       0.000000
      0.002552       0.000211       0.000000
      0.002522       0.000172       0.000000
      0.002440       0.000144       0.000000
      0.002552       0.000211       0.000000
      0.002663       0.000255       0.000000
      0.002611       0.000207       0.000000
      0.002522       0.000172       0.000000
      0.002689       0.000317       0.000000
      0.002766       0.000359       0.000000
      0.002761       0.000324       0.000000
      0.002683       0.000286       0.000000
      0.002766       0.000359       0.000000
      0.002855       0.000413       0.000000
      0.002859       0.000378       0.000000
      0.002761       0.000324       0.000000
      0.002683       0.000286       0.000000
      0.002761       0.000324       0.000000
      0.002733       0.000286       0.000000
      0.002663       0.000255       0.000000
      0.002761       0.000324       0.000000
      0.002859       0.000378       0.000000
      0.002828       0.000331       0.000000
      0.002733       0.000286       0.000000
      0.002855       0.000413       0.000000
      0.002956       0.000478       0.000000
      0.002985       0.000454       0.000000
      0.002859       0.000378       0.000000
      0.002956       0.000478       0.000000
      0.003064       0.000536       0.000000
      0.003140       0.000537       0.000000
      0.002985       0.000454       0.000000
      0.002859       0.000378       0.000000
      0.002985       0.000454       0.000000
      0.002975       0.000409       0.000000
      0.002828       0.000331       0.000000
      0.002985       0.000454       0.000000
      0.003140       0.000537       0.000000
      0.003220       0.000527       0.000000
      0.002975       0.000409       0.000000
      0.002663       0.000255       0.000000
      0.002733       0.000286       0.000000
      0.002693       0.000252       0.000000
      0.002635       0.000228       0.000000
      0.002733       0.000286       0.000000
      0.002828       0.000331       0.000000
      0.002765       0.000284       0.000000
      0.002693       0.000252       0.000000
      0.002635       0.000228       0.000000
      0.002693       0.000252       0.000000
      0.002659       0.000229       0.000000
      0.002611       0.000207       0.000000
      0.002693       0.000252       0.000000
      0.002765       0.000284       0.000000
      0.002714       0.000256       0.000000
      0.002659       0.000229       0.000000
      0.002828       0.000331       0.000000
      0.002975       0.000409       0.000000
      0.002890       0.000337       0.000000
      0.002765       0.000284       0.000000
      0.002975       0.000409       0.000000
      0.003220       0.000527       0.000000
      0.003336       0.000480       0.000000
      0.002890       0.000337       0.000000
      0.002765       0.000284       0.000000
      0.002890       0.000337       0.000000
      0.002799       0.000295       0.000000
      0.002714       0.000256       0.000000
      0.002890       0.000337       0.000000
      0.003336       0.000480       0.000000
      0.005658       0.000393       0.000000
      0.002799       0.000295       0.000000
      0.000000       0.000000       0.000000
      0.000000       0.000000       0.000000
      0.000534       0.000099       0.000000
      0.000538       0.000110       0.000000
      0.000000       0.000000       0.000000
      0.000000       0.000000       0.000000
      0.000539       0.000076       0.000000
      0.000534       0.000099       0.000000
      0.000538       0.000110       0.000000
      0.000534       0.000099       0.000000
      0.001093       0.000195       0.000000
      0.001079       0.000221       0.000000
      0.000534       0.000099       0.000000
      0.000539       0.000076       0.000000
      0.001120       0.000140       0.000000
      0.001093       0.000195       0.000000
      0.000000       0.000000       0.000000
      0.000000       0.000000       0.000000
      0.000553       0.000050       0.000000
      0.000539       0.000076       0.000000
      0.000000       0.000000       0.000000
      0.000000       0.000000       0.000000
      0.000570       0.000028       0.000000
      0.000553       0.000050       0.000000
      0.000539       0.000076       0.000000
      0.000553       0.000050       0.000000
      0.001160       0.000083       0.000000
      0.001120       0.000140       0.000000
      0.000553       0.000050       0.000000
      0.000570       0.000028       0.000000
      0.001200       0.000042       0.000000
      0.001160       0.000083       0.000000
      0.000000       0.000000       0.000000
      0.000000       0.000000       0.000000
      0.000584       0.000012       0.000000
      0.000570       0.000028       0.000000
      0.000000       0.000000       0.000000
      0.000000       0.000000       0.000000
      0.000589       0.000000       0.000000
      0.000584       0.000012       0.000000
      0.000570       0.000028       0.000000
      0.000584       0.000012       0.000000
      0.001228       0.000017       0.000000
      0.001200       0.000042       0.000000
      0.000584       0.000012       0.000000
      0.000589       0.000000       0.000000
      0.001238       0.000000       0.000000
      0.001228       0.000017       0.000000
      0.001079       0.000221       0.000000
      0.001093       0.000195       0.000000
      0.001678       0.000278       0.000000
      0.001626       0.000327       0.000000
      0.001093       0.000195       0.000000
      0.001120       0.000140       0.000000
      0.001752       0.000178       0.000000
      0.001678       0.000278       0.000000
      0.001626       0.000327       0.000000
      0.001678       0.000278       0.000000
      0.002313       0.000332       0.000000
      0.002184       0.000423       0.000000
      0.001678       0.000278       0.000000
      0.001752       0.000178       0.000000
      0.002472       0.000168       0.000000
      0.002313       0.000332       0.000000
      0.001120       0.000140       0.000000
      0.001160       0.000083       0.000000
      0.001834       0.000091       0.000000
      0.001752       0.000178       0.000000
      0.001160       0.000083       0.000000
      0.001200       0.000042       0.000000
      0.001903       0.000038       0.000000
      0.001834       0.000091       0.000000
      0.001752       0.000178       0.000000
      0.001834       0.000091       0.000000
      0.002609       0.000062       0.000000
      0.002472       0.000168       0.000000
      0.001834       0.000091       0.000000
      0.001903       0.000038       0.000000
      0.002702       0.000013       0.000000
      0.002609       0.000062       0.000000
      0.001200       0.000042       0.000000
      0.001228       0.000017       0.000000
      0.001946       0.000012       0.000000
      0.001903       0.000038       0.000000
      0.001228       0.000017       0.000000
      0.001238       0.000000       0.000000
      0.001961       0.000000       0.000000
      0.001946       0.000012       0.000000
      0.001903       0.000038       0.000000
      0.001946       0.000012       0.000000
      0.002754      -0.000001       0.000000
      0.002702       0.000013       0.000000
      0.001946       0.000012       0.000000
      0.001961       0.000000       0.000000
      0.002770       0.000000       0.000000
      0.002754      -0.000001       0.000000
      0.002472       0.000168       0.000000
      0.002609       0.000062       0.000000
      0.003540       0.000004       0.000000
      0.003394       0.000089       0.000000
      0.002609       0.000062       0.000000
      0.002702       0.000013       0.000000
      0.003615      -0.000021       0.000000
      0.003540       0.000004       0.000000
      0.003394       0.000089       0.000000
      0.003540       0.000004       0.000000
      0.004621      -0.000026       0.000000
      0.004638       0.000026       0.000000
      0.003540       0.000004       0.000000
      0.003615      -0.000021       0.000000
      0.004613      -0.000036       0.000000
      0.004621      -0.000026       0.000000
      0.002702       0.000013       0.000000
      0.002754      -0.000001       0.000000
      0.003652      -0.000017       0.000000
      0.003615      -0.000021       0.000000
      0.002754      -0.000001       0.000000
      0.002770       0.000000       0.000000
      0.003663       0.000000       0.000000
      0.003652      -0.000017       0.000000
      0.003615      -0.000021       0.000000
      0.003652      -0.000017       0.000000
      0.004610      -0.000023       0.000000
      0.004613      -0.000036       0.000000
      0.003652      -0.000017       0.000000
      0.003663       0.000000       0.000000
      0.004609       0.000000       0.000000
      0.004610      -0.000023       0.000000
      0.002184       0.000423       0.000000
      0.002245       0.000401       0.000000
      0.002566       0.000437       0.000000
      0.002470       0.000468       0.000000
      0.002245       0.000401       0.000000
      0.002313       0.000332       0.000000
      0.002674       0.000336       0.000000
      0.002566       0.000437       0.000000
      0.002470       0.000468       0.000000
      0.002566       0.000437       0.000000
      0.002932       0.000460       0.000000
      0.002764       0.000508       0.000000
      0.002566       0.000437       0.000000
      0.002674       0.000336       0.000000
      0.003115       0.000304       0.000000
      0.002932       0.000460       0.000000
      0.002313       0.000332       0.000000
      0.002391       0.000247       0.000000
      0.002790       0.000225       0.000000
      0.002674       0.000336       0.000000
      0.002391       0.000247       0.000000
      0.002472       0.000168       0.000000
      0.002896       0.000137       0.000000
      0.002790       0.000225       0.000000
      0.002674       0.000336       0.000000
      0.002790       0.000225       0.000000
      0.003275       0.000174       0.000000