# vtk DataFile Version 2.0
time_10.vtk
ASCII
DATASET UNSTRUCTURED_GRID
POINTS  1188 float
      0.000000       0.000000       0.000000
      0.083333       0.000000       0.000000
      0.083333       0.083333       0.000000
      0.000000       0.083333       0.000000
      0.083333       0.000000       0.000000
      0.166667       0.000000       0.000000
      0.166667       0.083333       0.000000
      0.083333       0.083333       0.000000
      0.000000       0.083333       0.000000
      0.083333       0.083333       0.000000
      0.083333       0.166667       0.000000
      0.000000       0.166667       0.000000
      0.083333       0.083333       0.000000
      0.166667       0.083333       0.000000
      0.166667       0.166667       0.000000
      0.083333       0.166667       0.000000
      0.166667       0.000000       0.000000
      0.250000       0.000000       0.000000
      0.250000       0.083333       0.000000
      0.166667       0.083333       0.000000
      0.250000       0.000000       0.000000
      0.333333       0.000000       0.000000
      0.333333       0.083333       0.000000
      0.250000       0.083333       0.000000
      0.166667       0.083333       0.000000
      0.250000       0.083333       0.000000
      0.250000       0.166667       0.000000
      0.166667       0.166667       0.000000
      0.250000       0.083333       0.000000
      0.333333       0.083333       0.000000
      0.333333       0.166667       0.000000
      0.250000       0.166667       0.000000
      0.333333       0.000000       0.000000
      0.416667       0.000000       0.000000
      0.416667       0.083333       0.000000
      0.333333       0.083333       0.000000
      0.416667       0.000000       0.000000
      0.500000       0.000000       0.000000
      0.500000       0.083333       0.000000
      0.416667       0.083333       0.000000
      0.333333       0.083333       0.000000
      0.416667       0.083333       0.000000
      0.416667       0.166667       0.000000
      0.333333       0.166667       0.000000
      0.416667       0.083333       0.000000
      0.500000       0.083333       0.000000
      0.500000       0.166667       0.000000
      0.416667       0.166667       0.000000
      0.000000       0.166667       0.000000
      0.083333       0.166667       0.000000
      0.083333       0.250000       0.000000
      0.000000       0.250000       0.000000
      0.083333       0.166667       0.000000
      0.166667       0.166667       0.000000
      0.166667       0.250000       0.000000
      0.083333       0.250000       0.000000
      0.000000       0.250000       0.000000
      0.083333       0.250000       0.000000
      0.083333       0.333333       0.000000
      0.000000       0.333333       0.000000
      0.083333       0.250000       0.000000
      0.166667       0.250000       0.000000
      0.166667       0.333333       0.000000
      0.083333       0.333333       0.000000
      0.166667       0.166667       0.000000
      0.250000       0.166667       0.000000
      0.250000       0.250000       0.000000
      0.166667       0.250000       0.000000
      0.250000       0.166667       0.000000
      0.333333       0.166667       0.000000
      0.333333       0.250000       0.000000
      0.250000       0.250000       0.000000
      0.166667       0.250000       0.000000
      0.250000       0.250000       0.000000
      0.250000       0.333333       0.000000
      0.166667       0.333333       0.000000
      0.250000       0.250000       0.000000
      0.333333       0.250000       0.000000
      0.333333       0.333333       0.000000
      0.250000       0.333333       0.000000
      0.333333       0.166667       0.000000
      0.416667       0.166667       0.000000
      0.416667       0.250000       0.000000
      0.333333       0.250000       0.000000
      0.416667       0.166667       0.000000
      0.500000       0.166667       0.000000
      0.500000       0.250000       0.000000
      0.416667       0.250000       0.000000
      0.333333       0.250000       0.000000
      0.416667       0.250000       0.000000
      0.416667       0.333333       0.000000
      0.333333       0.333333       0.000000
      0.416667       0.250000       0.000000
      0.500000       0.250000       0.000000
      0.500000       0.333333       0.000000
      0.416667       0.333333       0.000000
      0.000000       0.333333       0.000000
      0.083333       0.333333       0.000000
      0.083333       0.416667       0.000000
      0.000000       0.416667       0.000000
      0.083333       0.333333       0.000000
      0.166667       0.333333       0.000000
      0.166667       0.416667       0.000000
      0.083333       0.416667       0.000000
      0.000000       0.416667       0.000000
      0.083333       0.416667       0.000000
      0.083333       0.500000       0.000000
      0.000000       0.500000       0.000000
      0.083333       0.416667       0.000000
      0.166667       0.416667       0.000000
      0.166667       0.500000       0.000000
      0.083333       0.500000       0.000000
      0.166667       0.333333       0.000000
      0.250000       0.333333       0.000000
      0.250000       0.416667       0.000000
      0.166667       0.416667       0.000000
      0.250000       0.333333       0.000000
      0.333333       0.333333       0.000000
      0.333333       0.416667       0.000000
      0.250000       0.416667       0.000000
      0.166667       0.416667       0.000000
      0.250000       0.416667       0.000000
      0.250000       0.500000       0.000000
      0.166667       0.500000       0.000000
      0.250000       0.416667       0.000000
      0.333333       0.416667       0.000000
      0.333333       0.500000       0.000000
      0.250000       0.500000       0.000000
      0.333333       0.333333       0.000000
      0.375000       0.333333       0.000000
      0.375000       0.375000       0.000000
      0.333333       0.375000       0.000000
      0.375000       0.333333       0.000000
      0.416667       0.333333       0.000000
      0.416667       0.375000       0.000000
      0.375000       0.375000       0.000000
      0.333333       0.375000       0.000000
      0.375000       0.375000       0.000000
      0.375000       0.416667       0.000000
      0.333333       0.416667       0.000000
      0.375000       0.375000       0.000000
      0.416667       0.375000       0.000000
      0.416667       0.416667       0.000000
      0.375000       0.416667       0.000000
      0.416667       0.333333       0.000000
      0.458333       0.333333       0.000000
      0.458333       0.375000       0.000000
      0.416667       0.375000       0.000000
      0.458333       0.333333       0.000000
      0.500000       0.333333       0.000000
      0.500000       0.375000       0.000000
      0.458333       0.375000       0.000000
      0.416667       0.375000       0.000000
      0.458333       0.375000       0.000000
      0.458333       0.416667       0.000000
      0.416667       0.416667       0.000000
      0.458333       0.375000       0.000000
      0.500000       0.375000       0.000000
      0.500000       0.416667       0.000000
      0.458333       0.416667       0.000000
      0.333333       0.416667       0.000000
      0.375000       0.416667       0.000000
      0.375000       0.458333       0.000000
      0.333333       0.458333       0.000000
      0.375000       0.416667       0.000000
      0.416667       0.416667       0.000000
      0.416667       0.458333       0.000000
      0.375000       0.458333       0.000000
      0.333333       0.458333       0.000000
      0.375000       0.458333       0.000000
      0.375000       0.500000       0.000000
      0.333333       0.500000       0.000000
      0.375000       0.458333       0.000000
      0.416667       0.458333       0.000000
      0.416667       0.500000       0.000000
      0.375000       0.500000       0.000000
      0.416667       0.416667       0.000000
      0.437500       0.416667       0.000000
      0.437500       0.437500       0.000000
      0.416667       0.437500       0.000000
      0.437500       0.416667       0.000000
      0.458333       0.416667       0.000000
      0.458333       0.437500       0.000000
      0.437500       0.437500       0.000000
      0.416667       0.437500       0.000000
      0.437500       0.437500       0.000000
      0.437500       0.458333       0.000000
      0.416667       0.458333       0.000000
      0.437500       0.437500       0.000000
      0.458333       0.437500       0.000000
      0.458333       0.458333       0.000000
      0.437500       0.458333       0.000000
      0.458333       0.416667       0.000000
      0.479167       0.416667       0.000000
      0.479167       0.437500       0.000000
      0.458333       0.437500       0.000000
      0.479167       0.416667       0.000000
      0.500000       0.416667       0.000000
      0.500000       0.437500       0.000000
      0.479167       0.437500       0.000000
      0.458333       0.437500       0.000000
      0.479167       0.437500       0.000000
      0.479167       0.458333       0.000000
      0.458333       0.458333       0.000000
      0.416667       0.458333       0.000000
      0.437500       0.458333       0.000000
      0.437500       0.479167       0.000000
      0.416667       0.479167       0.000000
      0.437500       0.458333       0.000000
      0.458333       0.458333       0.000000
      0.458333       0.479167       0.000000
      0.437500       0.479167       0.000000
      0.416667       0.479167       0.000000
      0.437500       0.479167       0.000000
      0.437500       0.500000       0.000000
      0.416667       0.500000       0.000000
      0.437500       0.479167       0.000000
      0.458333       0.479167       0.000000
      0.458333       0.500000       0.000000
      0.437500       0.500000       0.000000
[...]
POINT_DATA  1188
VECTORS U float 
      0.000000       0.000000       0.000000
      0.000000       0.000000       0.000000
      0.000501       0.000016       0.000000
      0.000496       0.000000       0.000000
      0.000000       0.000000       0.000000
      0.000000       0.000000       0.000000
      0.000516       0.000034       0.000000
      0.000501       0.000016       0.000000
      0.000496       0.000000       0.000000
      0.000501       0.000016       0.000000
      0.000935       0.000024       0.000000
      0.000925       0.000000       0.000000
      0.000501       0.000016       0.000000
      0.000516       0.000034       0.000000
      0.000964       0.000054       0.000000
      0.000935       0.000024       0.000000
      0.000000       0.000000       0.000000
      0.000000       0.000000       0.000000
      0.000536       0.000057       0.000000
      0.000516       0.000034       0.000000
      0.000000       0.000000       0.000000
      0.000000       0.000000       0.000000
      0.000555       0.000084       0.000000
      0.000536       0.000057       0.000000
      0.000516       0.000034       0.000000
      0.000536       0.000057       0.000000
      0.001008       0.000095       0.000000
      0.000964       0.000054       0.000000
      0.000536       0.000057       0.000000
      0.000555       0.000084       0.000000
      0.001059       0.000151       0.000000
      0.001008       0.000095       0.000000
      0.000000       0.000000       0.000000
      0.000000       0.000000       0.000000
      0.000565       0.000111       0.000000
      0.000555       0.000084       0.000000
      0.000000       0.000000       0.000000
      0.000000       0.000000       0.000000
      0.000564       0.000127       0.000000
      0.000565       0.000111       0.000000
      0.000555       0.000084       0.000000
      0.000565       0.000111       0.000000
      0.001102       0.000214       0.000000
      0.001059       0.000151       0.000000
      0.000565       0.000111       0.000000
      0.000564       0.000127       0.000000
      0.001126       0.000256       0.000000
      0.001102       0.000214       0.000000
      0.000925       0.000000       0.000000
      0.000935       0.000024       0.000000
      0.001286       0.000024       0.000000
      0.001271       0.000000       0.000000
      0.000935       0.000024       0.000000
      0.000964       0.000054       0.000000
      0.001331       0.000056       0.000000
      0.001286       0.000024       0.000000
      0.001271       0.000000       0.000000
      0.001286       0.000024       0.000000
      0.001542       0.000015       0.000000
      0.001523       0.000000       0.000000
      0.001286       0.000024       0.000000
      0.001331       0.000056       0.000000
      0.001599       0.000038       0.000000
      0.001542       0.000015       0.000000
      0.000964       0.000054       0.000000
      0.001008       0.000095       0.000000
      0.001405       0.000106       0.000000
      0.001331       0.000056       0.000000
      0.001008       0.000095       0.000000
      0.001059       0.000151       0.000000
      0.001502       0.000185       0.000000
      0.001405       0.000106       0.000000
      0.001331       0.000056       0.000000
      0.001405       0.000106       0.000000
      0.001697       0.000082       0.000000
      0.001599       0.000038       0.000000
      0.001405       0.000106       0.000000
      0.001502       0.000185       0.000000
      0.001845       0.000163       0.000000
      0.001697       0.000082       0.000000
      0.001059       0.000151       0.000000
      0.001102       0.000214       0.000000
      0.001607       0.000292       0.000000
      0.001502       0.000185       0.000000
      0.001102       0.000214       0.000000
      0.001126       0.000256       0.000000
      0.001687       0.000378       0.000000
      0.001607       0.000292       0.000000
      0.001502       0.000185       0.000000
      0.001607       0.000292       0.000000
      0.002046       0.000310       0.000000
      0.001845       0.000163       0.000000
      0.001607       0.000292       0.000000
      0.001687       0.000378       0.000000
      0.002247       0.000490       0.000000
      0.002046       0.000310       0.000000
      0.001523       0.000000       0.000000
      0.001542       0.000015       0.000000
      0.001697       0.000000       0.000000
      0.001678       0.000000       0.000000
      0.001542       0.000015       0.000000
      0.001599       0.000038       0.000000
      0.001756       0.000008       0.000000
      0.001697       0.000000       0.000000
      0.001678       0.000000       0.000000
      0.001697       0.000000       0.000000
      0.001755      -0.000015       0.000000
      0.001738       0.000000       0.000000
      0.001697       0.000000       0.000000
      0.001756       0.000008       0.000000
      0.001807      -0.000024       0.000000
      0.001755      -0.000015       0.000000
      0.001599       0.000038       0.000000
      0.001697       0.000082       0.000000
      0.001860       0.000032       0.000000
      0.001756       0.000008       0.000000
      0.001697       0.000082       0.000000
      0.001845       0.000163       0.000000
      0.002021       0.000087       0.000000
      0.001860       0.000032       0.000000
      0.001756       0.000008       0.000000
      0.001860       0.000032       0.000000
      0.001896      -0.000019       0.000000
      0.001807      -0.000024       0.000000
      0.001860       0.000032       0.000000
      0.002021       0.000087       0.000000
      0.002022       0.000011       0.000000
      0.001896      -0.000019       0.000000
      0.001845       0.000163       0.000000
      0.001940       0.000227       0.000000
      0.002069       0.000189       0.000000
      0.001958       0.000129       0.000000
      0.001940       0.000227       0.000000
      0.002046       0.000310       0.000000
      0.002205       0.000277       0.000000
      0.002069       0.000189       0.000000
      0.001958       0.000129       0.000000
      0.002069       0.000189       0.000000
      0.002133       0.000135       0.000000
      0.002021       0.000087       0.000000
      0.002069       0.000189       0.000000
      0.002205       0.000277       0.000000
      0.002279       0.000211       0.000000
      0.002133       0.000135       0.000000
      0.002046       0.000310       0.000000
      0.002154       0.000409       0.000000
      0.002363       0.000404       0.000000
      0.002205       0.000277       0.000000
      0.002154       0.000409       0.000000
      0.002247       0.000490       0.000000
      0.002518       0.000539       0.000000
      0.002363       0.000404       0.000000
      0.002205       0.000277       0.000000
      0.002363       0.000404       0.000000
      0.002480       0.000344       0.000000
      0.002279       0.000211       0.000000
      0.002363       0.000404       0.000000
      0.002518       0.000539       0.000000
      0.002757       0.000568       0.000000
      0.002480       0.000344       0.000000
      0.002021       0.000087       0.000000
      0.002133       0.000135       0.000000
      0.002131       0.000081       0.000000
      0.002037       0.000045       0.000000
      0.002133       0.000135       0.000000
      0.002279       0.000211       0.000000
      0.002246       0.000137       0.000000
      0.002131       0.000081       0.000000
      0.002037       0.000045       0.000000
      0.002131       0.000081       0.000000
      0.002095       0.000042       0.000000
      0.002022       0.000011       0.000000
      0.002131       0.000081       0.000000
      0.002246       0.000137       0.000000
      0.002164       0.000095       0.000000
      0.002095       0.000042       0.000000
      0.002279       0.000211       0.000000
      0.002371       0.000268       0.000000
      0.002361       0.000222       0.000000
      0.002274       0.000172       0.000000
      0.002371       0.000268       0.000000
      0.002480       0.000344       0.000000
      0.002469       0.000292       0.000000
      0.002361       0.000222       0.000000
      0.002274       0.000172       0.000000
      0.002361       0.000222       0.000000
      0.002315       0.000180       0.000000
      0.002246       0.000137       0.000000
      0.002361       0.000222       0.000000
      0.002469       0.000292       0.000000
      0.002399       0.000240       0.000000
      0.002315       0.000180       0.000000
      0.002480       0.000344       0.000000
      0.002611       0.000449       0.000000
      0.002615       0.000398       0.000000
      0.002469       0.000292       0.000000
      0.002611       0.000449       0.000000
      0.002757       0.000568       0.000000
      0.002827       0.000556       0.000000
      0.002615       0.000398       0.000000
      0.002469       0.000292       0.000000
      0.002615       0.000398       0.000000
      0.002515       0.000331       0.000000
      0.002399       0.000240       0.000000
      0.002246       0.000137       0.000000
      0.002315       0.000180       0.000000
      0.002250       0.000151       0.000000
      0.002204       0.000111       0.000000
      0.002315       0.000180       0.000000
      0.002399       0.000240       0.000000
      0.002298       0.000207       0.000000
      0.002250       0.000151       0.000000
      0.002204       0.000111       0.000000
      0.002250       0.000151       0.000000
      0.002192       0.000136       0.000000
      0.002164       0.000095       0.000000
      0.002250       0.000151       0.000000
      0.002298       0.000207       0.000000
      0.002212       0.000194       0.000000
      0.002192       0.000136       0.000000
      0.002399       0.000240       0.000000
      0.002450       0.000281       0.000000
      0.002387       0.000259       0.000000
      0.002349       0.000221       0.000000
      0.002450       0.000281       0.000000
      0.002515       0.000331       0.000000
      0.002433       0.000305       0.000000
      0.002387       0.000259       0.000000
      0.002349       0.000221       0.000000
      0.002387       0.000259       0.000000
      0.002323       0.000245       0.000000
      0.002298       0.000207       0.000000
      0.002387       0.000259       0.000000
      0.002433       0.000305       0.000000
      0.002349       0.000291       0.000000
      0.002323       0.000245       0.000000
      0.002515       0.000331       0.000000
      0.002605       0.000396       0.000000
      0.002495       0.000364       0.000000
      0.002433       0.000305       0.000000
      0.002605       0.000396       0.000000
      0.002757       0.000487       0.000000
      0.002606       0.000442       0.000000
      0.002495       0.000364       0.000000
      0.002433       0.000305       0.000000
      0.002495       0.000364       0.000000
      0.002381       0.000348       0.000000
      0.002349       0.000291       0.000000
      0.002495       0.000364       0.000000
      0.002606       0.000442       0.000000
      0.002435       0.000434       0.000000
      0.002381       0.000348       0.000000
      0.002298       0.000207       0.000000
      0.002323       0.000245       0.000000
      0.002266       0.000237       0.000000
      0.002251       0.000199       0.000000
      0.002323       0.000245       0.000000
      0.002349       0.000291       0.000000
      0.002279       0.000284       0.000000
      0.002266       0.000237       0.000000
      0.002251       0.000199       0.000000
      0.002266       0.000237       0.000000
      0.002219       0.000234       0.000000
      0.002212       0.000194       0.000000
      0.002266       0.000237       0.000000
      0.002279       0.000284       0.000000
      0.002227       0.000283       0.000000
      0.002219       0.000234       0.000000
      0.002349       0.000291       0.000000
      0.002381       0.000348       0.000000
      0.002294       0.000338       0.000000
      0.002279       0.000284       0.000000
      0.002381       0.000348       0.000000
      0.002435       0.000434       0.000000
      0.002190       0.000368       0.000000
      0.002294       0.000338       0.000000
      0.002279       0.000284       0.000000
      0.002294       0.000338       0.000000
      0.002264       0.000346       0.000000
      0.002227       0.000283       0.000000
      0.002294       0.000338       0.000000
      0.002190       0.000368       0.000000
      0.006597       0.000519       0.000000
      0.002264       0.000346       0.000000
      0.002615       0.000398       0.000000
      0.002711       0.000471       0.000000
      0.002680       0.000436       0.000000
      0.002579       0.000364       0.000000
      0.002711       0.000471       0.000000
      0.002827       0.000556       0.000000
      0.002822       0.000532       0.000000
      0.002680       0.000436       0.000000
      0.002579       0.000364       0.000000
      0.002680       0.000436       0.000000
      0.002605       0.000396       0.000000
      0.002515       0.000331       0.000000
      0.002680       0.000436       0.000000
      0.002822       0.000532       0.000000
      0.002757       0.000487       0.000000
      0.002605       0.000396       0.000000
      0.000000       0.000000       0.000000
      0.000000       0.000000       0.000000
      0.000559       0.000121       0.000000
      0.000564       0.000127       0.000000
      0.000000       0.000000       0.000000
      0.000000       0.000000       0.000000
      0.000561       0.000096       0.000000
      0.000559       0.000121       0.000000
      0.000564       0.000127       0.000000
      0.000559       0.000121       0.000000
      0.001141       0.000241       0.000000
      0.001126       0.000256       0.000000
      0.000559       0.000121       0.000000
      0.000561       0.000096       0.000000
      0.001170       0.000179       0.000000
      0.001141       0.000241       0.000000
      0.000000       0.000000       0.000000
      0.000000       0.000000       0.000000
      0.000576       0.000063       0.000000
      0.000561       0.000096       0.000000
      0.000000       0.000000       0.000000
      0.000000       0.000000       0.000000
      0.000596       0.000036       0.000000
      0.000576       0.000063       0.000000
      0.000561       0.000096       0.000000
      0.000576       0.000063       0.000000
      0.001217       0.000108       0.000000
      0.001170       0.000179       0.000000
      0.000576       0.000063       0.000000
      0.000596       0.000036       0.000000
      0.001265       0.000055       0.000000
      0.001217       0.000108       0.000000
      0.000000       0.000000       0.000000
      0.000000       0.000000       0.000000
      0.000612       0.000016       0.000000
      0.000596       0.000036       0.000000
      0.000000       0.000000       0.000000
      0.000000       0.000000       0.000000
      0.000618       0.000000       0.000000
      0.000612       0.000016       0.000000
      0.000596       0.000036       0.000000
      0.000612       0.000016       0.000000
      0.001299       0.000022       0.000000
      0.001265       0.000055       0.000000
      0.000612       0.000016       0.000000
      0.000618       0.000000       0.000000
      0.001311       0.000000       0.000000
      0.001299       0.000022       0.000000
      0.001126       0.000256       0.000000
      0.001141       0.000241       0.000000
      0.001749       0.000350       0.000000
      0.001687       0.000378       0.000000
      0.001141       0.000241       0.000000
      0.001170       0.000179       0.000000
      0.001837       0.000231       0.000000
      0.001749       0.000350       0.000000
      0.001687       0.000378       0.000000
      0.001749       0.000350       0.000000
      0.002410       0.000431       0.000000
      0.002247       0.000490       0.000000
      0.001749       0.000350       0.000000
      0.001837       0.000231       0.000000
      0.002618       0.000221       0.000000
      0.002410       0.000431       0.000000
      0.001170       0.000179       0.000000
      0.001217       0.000108       0.000000
      0.001940       0.000120       0.000000
      0.001837       0.000231       0.000000
      0.001217       0.000108       0.000000
      0.001265       0.000055       0.000000
      0.002026       0.000051       0.000000
      0.001940       0.000120       0.000000
      0.001837       0.000231       0.000000
      0.001940       0.000120       0.000000
      0.002796       0.000083       0.000000
      0.002618       0.000221       0.000000
      0.001940       0.000120       0.000000
      0.002026       0.000051       0.000000
      0.002913       0.000020       0.000000
      0.002796       0.000083       0.000000
      0.001265       0.000055       0.000000
      0.001299       0.000022       0.000000
      0.002080       0.000016       0.000000
      0.002026       0.000051       0.000000
      0.001299       0.000022       0.000000
      0.001311       0.000000       0.000000
      0.002099       0.000000       0.000000
      0.002080       0.000016       0.000000
      0.002026       0.000051       0.000000
      0.002080       0.000016       0.000000
      0.002976       0.000000       0.000000
      0.002913       0.000020       0.000000
      0.002080       0.000016       0.000000
      0.002099       0.000000       0.000000
      0.002996       0.000000       0.000000
      0.002976       0.000000       0.000000
      0.002618       0.000221       0.000000
      0.002796       0.000083       0.000000
      0.003864       0.000013       0.000000
      0.003694       0.000120       0.000000
      0.002796       0.000083       0.000000
      0.002913       0.000020       0.000000
      0.003948      -0.000020       0.000000
      0.003864       0.000013       0.000000
      0.003694       0.000120       0.000000
      0.003864       0.000013       0.000000
      0.005113      -0.000009       0.000000
      0.005179       0.000072       0.000000
      0.003864       0.000013       0.000000
      0.003948      -0.000020       0.000000
      0.005083      -0.000031       0.000000
      0.005113      -0.000009       0.000000
      0.002913       0.000020       0.000000
      0.002976       0.000000       0.000000
      0.003988      -0.000018       0.000000
      0.003948      -0.000020       0.000000
      0.002976       0.000000       0.000000
      0.002996       0.000000       0.000000
      0.004000       0.000000       0.000000
      0.003988      -0.000018       0.000000
      0.003948      -0.000020       0.000000
      0.003988      -0.000018       0.000000
      0.005069      -0.000022       0.000000
      0.005083      -0.000031       0.000000
      0.003988      -0.000018       0.000000
      0.004000       0.000000       0.000000
      0.005064       0.000000       0.000000
      0.005069      -0.000022       0.000000
      0.002247       0.000490       0.000000
      0.002325       0.000501       0.000000
      0.002651       0.000562       0.000000
      0.002518       0.000539       0.000000
      0.002325       0.000501       0.000000
      0.002410       0.000431       0.000000
      0.002800       0.000442       0.000000
      0.002651       0.000562       0.000000
      0.002518       0.000539       0.000000
      0.002651       0.000562       0.000000
      0.003045       0.000611       0.000000
      0.002757       0.000568       0.000000
      0.002651       0.000562       0.000000
      0.002800       0.000442       0.000000
      0.003329       0.000398       0.000000