# vtk DataFile Version 2.0
time_10.vtk
ASCII
DATASET UNSTRUCTURED_GRID
POINTS  1464 float
      0.000000       0.000000       0.000000
      0.083333       0.000000       0.000000
      0.083333       0.083333       0.000000
      0.000000       0.083333       0.000000
      0.083333       0.000000       0.000000
      0.166667       0.000000       0.000000
      0.166667       0.083333       0.000000
      0.083333       0.083333       0.000000
      0.000000       0.083333       0.000000
      0.083333       0.083333       0.000000
      0.083333       0.166667       0.000000
      0.000000       0.166667       0.000000
      0.083333       0.083333       0.000000
      0.166667       0.083333       0.000000
      0.166667       0.166667       0.000000
      0.083333       0.166667       0.000000
      0.166667       0.000000       0.000000
      0.250000       0.000000       0.000000
      0.250000       0.083333       0.000000
      0.166667       0.083333       0.000000
      0.250000       0.000000       0.000000
      0.333333       0.000000       0.000000
      0.333333       0.083333       0.000000
      0.250000       0.083333       0.000000
      0.166667       0.083333       0.000000
      0.250000       0.083333       0.000000
      0.250000       0.166667       0.000000
      0.166667       0.166667       0.000000
      0.250000       0.083333       0.000000
      0.333333       0.083333       0.000000
      0.333333       0.166667       0.000000
      0.250000       0.166667       0.000000
      0.333333       0.000000       0.000000
      0.416667       0.000000       0.000000
      0.416667       0.083333       0.000000
      0.333333       0.083333       0.000000
      0.416667       0.000000       0.000000
      0.500000       0.000000       0.000000
      0.500000       0.083333       0.000000
      0.416667       0.083333       0.000000
      0.333333       0.083333       0.000000
      0.416667       0.083333       0.000000
      0.416667       0.166667       0.000000
      0.333333       0.166667       0.000000
      0.416667       0.083333       0.000000
      0.500000       0.083333       0.000000
      0.500000       0.166667       0.000000
      0.416667       0.166667       0.000000
      0.000000       0.166667       0.000000
      0.083333       0.166667       0.000000
      0.083333       0.250000       0.000000
      0.000000       0.250000       0.000000
      0.083333       0.166667       0.000000
      0.166667       0.166667       0.000000
      0.166667       0.250000       0.000000
      0.083333       0.250000       0.000000
      0.000000       0.250000       0.000000
      0.083333       0.250000       0.000000
      0.083333       0.333333       0.000000
      0.000000       0.333333       0.000000
      0.083333       0.250000       0.000000
      0.166667       0.250000       0.000000
      0.166667       0.333333       0.000000
      0.083333       0.333333       0.000000
      0.166667       0.166667       0.000000
      0.250000       0.166667       0.000000
      0.250000       0.250000       0.000000
      0.166667       0.250000       0.000000
      0.250000       0.166667       0.000000
      0.333333       0.166667       0.000000
      0.333333       0.250000       0.000000
      0.250000       0.250000       0.000000
      0.166667       0.250000       0.000000
      0.250000       0.250000       0.000000
      0.250000       0.333333       0.000000
      0.166667       0.333333       0.000000
      0.250000       0.250000       0.000000
      0.333333       0.250000       0.000000
      0.333333       0.333333       0.000000
      0.250000       0.333333       0.000000
      0.333333       0.166667       0.000000
      0.416667       0.166667       0.000000
      0.416667       0.250000       0.000000
      0.333333       0.250000       0.000000
      0.416667       0.166667       0.000000
      0.500000       0.166667       0.000000
      0.500000       0.250000       0.000000
      0.416667       0.250000       0.000000
      0.333333       0.250000       0.000000
      0.416667       0.250000       0.000000
      0.416667       0.333333       0.000000
      0.333333       0.333333       0.000000
      0.000000       0.333333       0.000000
      0.083333       0.333333       0.000000
      0.083333       0.416667       0.000000
      0.000000       0.416667       0.000000
      0.083333       0.333333       0.000000
      0.166667       0.333333       0.000000
      0.166667       0.416667       0.000000
      0.083333       0.416667       0.000000
      0.000000       0.416667       0.000000
      0.083333       0.416667       0.000000
      0.083333       0.500000       0.000000
      0.000000       0.500000       0.000000
      0.083333       0.416667       0.000000
      0.166667       0.416667       0.000000
      0.166667       0.500000       0.000000
      0.083333       0.500000       0.000000
      0.166667       0.333333       0.000000
      0.250000       0.333333       0.000000
      0.250000       0.416667       0.000000
      0.166667       0.416667       0.000000
      0.250000       0.333333       0.000000
      0.333333       0.333333       0.000000
      0.333333       0.416667       0.000000
      0.250000       0.416667       0.000000
      0.166667       0.416667       0.000000
      0.250000       0.416667       0.000000
      0.250000       0.500000       0.000000
      0.166667       0.500000       0.000000
      0.250000       0.416667       0.000000
      0.333333       0.416667       0.000000
      0.333333       0.500000       0.000000
      0.250000       0.500000       0.000000
      0.333333       0.333333       0.000000
      0.375000       0.333333       0.000000
      0.375000       0.375000       0.000000
      0.333333       0.375000       0.000000
      0.375000       0.333333       0.000000
      0.416667       0.333333       0.000000
      0.416667       0.375000       0.000000
      0.375000       0.375000       0.000000
      0.333333       0.375000       0.000000
      0.375000       0.375000       0.000000
      0.375000       0.416667       0.000000
      0.333333       0.416667       0.000000
      0.375000       0.375000       0.000000
      0.416667       0.375000       0.000000
      0.416667       0.416667       0.000000
      0.375000       0.416667       0.000000
      0.416667       0.333333       0.000000
      0.458333       0.333333       0.000000
      0.458333       0.375000       0.000000
      0.416667       0.375000       0.000000
      0.416667       0.375000       0.000000
      0.458333       0.375000       0.000000
      0.458333       0.416667       0.000000
      0.416667       0.416667       0.000000
      0.333333       0.416667       0.000000
      0.375000       0.416667       0.000000
      0.375000       0.458333       0.000000
      0.333333       0.458333       0.000000
      0.375000       0.416667       0.000000
      0.416667       0.416667       0.000000
      0.416667       0.458333       0.000000
      0.375000       0.458333       0.000000
      0.333333       0.458333       0.000000
      0.375000       0.458333       0.000000
      0.375000       0.500000       0.000000
      0.333333       0.500000       0.000000
      0.375000       0.458333       0.000000
      0.416667       0.458333       0.000000
      0.416667       0.500000       0.000000
      0.375000       0.500000       0.000000
      0.416667       0.416667       0.000000
      0.437500       0.416667       0.000000
      0.437500       0.437500       0.000000
      0.416667       0.437500       0.000000
      0.437500       0.416667       0.000000
      0.458333       0.416667       0.000000
      0.458333       0.437500       0.000000
      0.437500       0.437500       0.000000
      0.416667       0.437500       0.000000
      0.437500       0.437500       0.000000
      0.437500       0.458333       0.000000
      0.416667       0.458333       0.000000
      0.437500       0.437500       0.000000
      0.458333       0.437500       0.000000
      0.458333       0.458333       0.000000
      0.437500       0.458333       0.000000
      0.458333       0.416667       0.000000
      0.479167       0.416667       0.000000
      0.479167       0.437500       0.000000
      0.458333       0.437500       0.000000
      0.458333       0.437500       0.000000
      0.479167       0.437500       0.000000
      0.479167       0.458333       0.000000
      0.458333       0.458333       0.000000
      0.416667       0.458333       0.000000
      0.437500       0.458333       0.000000
      0.437500       0.479167       0.000000
      0.416667       0.479167       0.000000
      0.437500       0.458333       0.000000
      0.458333       0.458333       0.000000
      0.458333       0.479167       0.000000
      0.437500       0.479167       0.000000
      0.416667       0.479167       0.000000
      0.437500       0.479167       0.000000
      0.437500       0.500000       0.000000
      0.416667       0.500000       0.000000
      0.437500       0.479167       0.000000
      0.458333       0.479167       0.000000
      0.458333       0.500000       0.000000
      0.437500       0.500000       0.000000
      0.458333       0.458333       0.000000
      0.468750       0.458333       0.000000
      0.468750       0.468750       0.000000
      0.458333       0.468750       0.000000
      0.468750       0.458333       0.000000
      0.479167       0.458333       0.000000
      0.479167       0.468750       0.000000
      0.468750       0.468750       0.000000
      0.458333       0.468750       0.000000
      0.468750       0.468750       0.000000
      0.468750       0.479167       0.000000
      0.458333       0.479167       0.000000
      0.468750       0.468750       0.000000
      0.479167       0.468750       0.000000
      0.479167       0.479167       0.000000
      0.468750       0.479167       0.000000
[...]
POINT_DATA  1464
VECTORS U float 
      0.000000       0.000000       0.000000
      0.000000       0.000000       0.000000
      0.000414       0.000008       0.000000
      0.000406       0.000000       0.000000
      0.000000       0.000000       0.000000
      0.000000       0.000000       0.000000
      0.000438       0.000019       0.000000
      0.000414       0.000008       0.000000
      0.000406       0.000000       0.000000
      0.000414       0.000008       0.000000
      0.000764       0.000004       0.000000
      0.000750       0.000000       0.000000
      0.000414       0.000008       0.000000
      0.000438       0.000019       0.000000
      0.000805       0.000016       0.000000
      0.000764       0.000004       0.000000
      0.000000       0.000000       0.000000
      0.000000       0.000000       0.000000
      0.000476       0.000037       0.000000
      0.000438       0.000019       0.000000
      0.000000       0.000000       0.000000
      0.000000       0.000000       0.000000
      0.000520       0.000068       0.000000
      0.000476       0.000037       0.000000
      0.000438       0.000019       0.000000
      0.000476       0.000037       0.000000
      0.000872       0.000044       0.000000
      0.000805       0.000016       0.000000
      0.000476       0.000037       0.000000
      0.000520       0.000068       0.000000
      0.000961       0.000100       0.000000
      0.000872       0.000044       0.000000
      0.000000       0.000000       0.000000
      0.000000       0.000000       0.000000
      0.000558       0.000111       0.000000
      0.000520       0.000068       0.000000
      0.000000       0.000000       0.000000
      0.000000       0.000000       0.000000
      0.000576       0.000153       0.000000
      0.000558       0.000111       0.000000
      0.000520       0.000068       0.000000
      0.000558       0.000111       0.000000
      0.001055       0.000192       0.000000
      0.000961       0.000100       0.000000
      0.000558       0.000111       0.000000
      0.000576       0.000153       0.000000
      0.001125       0.000297       0.000000
      0.001055       0.000192       0.000000
      0.000750       0.000000       0.000000
      0.000764       0.000004       0.000000
      0.001033      -0.000006       0.000000
      0.001017       0.000000       0.000000
      0.000764       0.000004       0.000000
      0.000805       0.000016       0.000000
      0.001084      -0.000004       0.000000
      0.001033      -0.000006       0.000000
      0.001017       0.000000       0.000000
      0.001033      -0.000006       0.000000
      0.001219      -0.000021       0.000000
      0.001204       0.000000       0.000000
      0.001033      -0.000006       0.000000
      0.001084      -0.000004       0.000000
      0.001267      -0.000034       0.000000
      0.001219      -0.000021       0.000000
      0.000805       0.000016       0.000000
      0.000872       0.000044       0.000000
      0.001171       0.000019       0.000000
      0.001084      -0.000004       0.000000
      0.000872       0.000044       0.000000
      0.000961       0.000100       0.000000
      0.001299       0.000083       0.000000
      0.001171       0.000019       0.000000
      0.001084      -0.000004       0.000000
      0.001171       0.000019       0.000000
      0.001352      -0.000027       0.000000
      0.001267      -0.000034       0.000000
      0.001171       0.000019       0.000000
      0.001299       0.000083       0.000000
      0.001487       0.000019       0.000000
      0.001352      -0.000027       0.000000
      0.000961       0.000100       0.000000
      0.001055       0.000192       0.000000
      0.001468       0.000213       0.000000
      0.001299       0.000083       0.000000
      0.001055       0.000192       0.000000
      0.001125       0.000297       0.000000
      0.001646       0.000413       0.000000
      0.001468       0.000213       0.000000
      0.001299       0.000083       0.000000
      0.001468       0.000213       0.000000
      0.001698       0.000142       0.000000
      0.001487       0.000019       0.000000
      0.001204       0.000000       0.000000
      0.001219      -0.000021       0.000000
      0.001331      -0.000034       0.000000
      0.001320       0.000000       0.000000
      0.001219      -0.000021       0.000000
      0.001267      -0.000034       0.000000
      0.001366      -0.000060       0.000000
      0.001331      -0.000034       0.000000
      0.001320       0.000000       0.000000
      0.001331      -0.000034       0.000000
      0.001390      -0.000041       0.000000
      0.001383       0.000000       0.000000
      0.001331      -0.000034       0.000000
      0.001366      -0.000060       0.000000
      0.001409      -0.000076       0.000000
      0.001390      -0.000041       0.000000
      0.001267      -0.000034       0.000000
      0.001352      -0.000027       0.000000
      0.001425      -0.000071       0.000000
      0.001366      -0.000060       0.000000
      0.001352      -0.000027       0.000000
      0.001487       0.000019       0.000000
      0.001512      -0.000048       0.000000
      0.001425      -0.000071       0.000000
      0.001366      -0.000060       0.000000
      0.001425      -0.000071       0.000000
      0.001436      -0.000093       0.000000
      0.001409      -0.000076       0.000000
      0.001425      -0.000071       0.000000
      0.001512      -0.000048       0.000000
      0.001459      -0.000075       0.000000
      0.001436      -0.000093       0.000000
      0.001487       0.000019       0.000000
      0.001580       0.000067       0.000000
      0.001597       0.000022       0.000000
      0.001517      -0.000018       0.000000
      0.001580       0.000067       0.000000
      0.001698       0.000142       0.000000
      0.001698       0.000085       0.000000
      0.001597       0.000022       0.000000
      0.001517      -0.000018       0.000000
      0.001597       0.000022       0.000000
      0.001568      -0.000014       0.000000
      0.001512      -0.000048       0.000000
      0.001597       0.000022       0.000000
      0.001698       0.000085       0.000000
      0.001632       0.000043       0.000000
      0.001568      -0.000014       0.000000
      0.001698       0.000142       0.000000
      0.001849       0.000257       0.000000
      0.001831       0.000184       0.000000
      0.001698       0.000085       0.000000
      0.001698       0.000085       0.000000
      0.001831       0.000184       0.000000
      0.001704       0.000133       0.000000
      0.001632       0.000043       0.000000
      0.001512      -0.000048       0.000000
      0.001568      -0.000014       0.000000
      0.001516      -0.000034       0.000000
      0.001487      -0.000067       0.000000
      0.001568      -0.000014       0.000000
      0.001632       0.000043       0.000000
      0.001544       0.000024       0.000000
      0.001516      -0.000034       0.000000
      0.001487      -0.000067       0.000000
      0.001516      -0.000034       0.000000
      0.001464      -0.000041       0.000000
      0.001459      -0.000075       0.000000
      0.001516      -0.000034       0.000000
      0.001544       0.000024       0.000000
      0.001461       0.000021       0.000000
      0.001464      -0.000041       0.000000
      0.001632       0.000043       0.000000
      0.001667       0.000083       0.000000
      0.001610       0.000072       0.000000
      0.001588       0.000031       0.000000
      0.001667       0.000083       0.000000
      0.001704       0.000133       0.000000
      0.001631       0.000124       0.000000
      0.001610       0.000072       0.000000
      0.001588       0.000031       0.000000
      0.001610       0.000072       0.000000
      0.001556       0.000067       0.000000
      0.001544       0.000024       0.000000
      0.001610       0.000072       0.000000
      0.001631       0.000124       0.000000
      0.001566       0.000120       0.000000
      0.001556       0.000067       0.000000
      0.001704       0.000133       0.000000
      0.001742       0.000197       0.000000
      0.001650       0.000189       0.000000
      0.001631       0.000124       0.000000
      0.001631       0.000124       0.000000
      0.001650       0.000189       0.000000
      0.001575       0.000185       0.000000
      0.001566       0.000120       0.000000
      0.001544       0.000024       0.000000
      0.001556       0.000067       0.000000
      0.001506       0.000065       0.000000
      0.001501       0.000021       0.000000
      0.001556       0.000067       0.000000
      0.001566       0.000120       0.000000
      0.001510       0.000119       0.000000
      0.001506       0.000065       0.000000
      0.001501       0.000021       0.000000
      0.001506       0.000065       0.000000
      0.001458       0.000065       0.000000
      0.001461       0.000021       0.000000
      0.001506       0.000065       0.000000
      0.001510       0.000119       0.000000
      0.001455       0.000118       0.000000
      0.001458       0.000065       0.000000
      0.001566       0.000120       0.000000
      0.001571       0.000151       0.000000
      0.001540       0.000150       0.000000
      0.001537       0.000119       0.000000
      0.001571       0.000151       0.000000
      0.001575       0.000185       0.000000
      0.001543       0.000183       0.000000
      0.001540       0.000150       0.000000
      0.001537       0.000119       0.000000
      0.001540       0.000150       0.000000
      0.001512       0.000149       0.000000
      0.001510       0.000119       0.000000
      0.001540       0.000150       0.000000
      0.001543       0.000183       0.000000
      0.001514       0.000181       0.000000
      0.001512       0.000149       0.000000
      0.001575       0.000185       0.000000
      0.001580       0.000224       0.000000
      0.001548       0.000220       0.000000
      0.001543       0.000183       0.000000
      0.001580       0.000224       0.000000
      0.001588       0.000266       0.000000
      0.001561       0.000268       0.000000
      0.001548       0.000220       0.000000
      0.001543       0.000183       0.000000
      0.001548       0.000220       0.000000
      0.001519       0.000216       0.000000
      0.001514       0.000181       0.000000
      0.001548       0.000220       0.000000
      0.001561       0.000268       0.000000
      0.001520       0.000270       0.000000
      0.001519       0.000216       0.000000
      0.001510       0.000119       0.000000
      0.001512       0.000149       0.000000
      0.001484       0.000148       0.000000
      0.001483       0.000118       0.000000
      0.001512       0.000149       0.000000
      0.001514       0.000181       0.000000
      0.001486       0.000179       0.000000
      0.001484       0.000148       0.000000
      0.001483       0.000118       0.000000
      0.001484       0.000148       0.000000
      0.001456       0.000148       0.000000
      0.001455       0.000118       0.000000
      0.001484       0.000148       0.000000
      0.001486       0.000179       0.000000
      0.001462       0.000181       0.000000
      0.001456       0.000148       0.000000
      0.001514       0.000181       0.000000
      0.001519       0.000216       0.000000
      0.001490       0.000207       0.000000
      0.001486       0.000179       0.000000
      0.001519       0.000216       0.000000
      0.001520       0.000270       0.000000
      0.001236       0.000214       0.000000
      0.001490       0.000207       0.000000
      0.001486       0.000179       0.000000
      0.001490       0.000207       0.000000
      0.001508       0.000221       0.000000
      0.001462       0.000181       0.000000
      0.001490       0.000207       0.000000
      0.001236       0.000214       0.000000
      0.007727       0.000714       0.000000
      0.001508       0.000221       0.000000
      0.001650       0.000189       0.000000
      0.001659       0.000229       0.000000
      0.001617       0.000226       0.000000
      0.001611       0.000187       0.000000
      0.001659       0.000229       0.000000
      0.001668       0.000274       0.000000
      0.001625       0.000272       0.000000
      0.001617       0.000226       0.000000
      0.001611       0.000187       0.000000
      0.001617       0.000226       0.000000
      0.001580       0.000224       0.000000
      0.001575       0.000185       0.000000
      0.001617       0.000226       0.000000
      0.001625       0.000272       0.000000
      0.001588       0.000266       0.000000
      0.001580       0.000224       0.000000
      0.001831       0.000184       0.000000
      0.001919       0.000256       0.000000
      0.001840       0.000219       0.000000
      0.001775       0.000153       0.000000
      0.001919       0.000256       0.000000
      0.002033       0.000352       0.000000
      0.001922       0.000305       0.000000
      0.001840       0.000219       0.000000
      0.001775       0.000153       0.000000
      0.001840       0.000219       0.000000
      0.001742       0.000197       0.000000
      0.001704       0.000133       0.000000
      0.001742       0.000197       0.000000
      0.001762       0.000236       0.000000
      0.001708       0.000232       0.000000
      0.001694       0.000192       0.000000
      0.001762       0.000236       0.000000
      0.001783       0.000282       0.000000
      0.001721       0.000278       0.000000
      0.001708       0.000232       0.000000
      0.001694       0.000192       0.000000
      0.001708       0.000232       0.000000
      0.001659       0.000229       0.000000
      0.001650       0.000189       0.000000
      0.001708       0.000232       0.000000
      0.001721       0.000278       0.000000
      0.001668       0.000274       0.000000
      0.001659       0.000229       0.000000
      0.001840       0.000219       0.000000
      0.001878       0.000258       0.000000
      0.001820       0.000245       0.000000
      0.001792       0.000206       0.000000
      0.001878       0.000258       0.000000
      0.001922       0.000305       0.000000
      0.001851       0.000290       0.000000
      0.001820       0.000245       0.000000
      0.001792       0.000206       0.000000
      0.001820       0.000245       0.000000
      0.001762       0.000236       0.000000
      0.001742       0.000197       0.000000
      0.001820       0.000245       0.000000
      0.001851       0.000290       0.000000
      0.001783       0.000282       0.000000
      0.001762       0.000236       0.000000
      0.001468       0.000213       0.000000
      0.001561       0.000309       0.000000
      0.001743       0.000302       0.000000
      0.001616       0.000189       0.000000
      0.001561       0.000309       0.000000
      0.001646       0.000413       0.000000
      0.001877       0.000445       0.000000
      0.001743       0.000302       0.000000
      0.001616       0.000189       0.000000
      0.001743       0.000302       0.000000
      0.001849       0.000257       0.000000
      0.001698       0.000142       0.000000
      0.001743       0.000302       0.000000
      0.001877       0.000445       0.000000
      0.002044       0.000434       0.000000
      0.001849       0.000257       0.000000
      0.001849       0.000257       0.000000
      0.001941       0.000336       0.000000
      0.001953       0.000299       0.000000
      0.001857       0.000221       0.000000
      0.001941       0.000336       0.000000
      0.002044       0.000434       0.000000
      0.002072       0.000402       0.000000
      0.001953       0.000299       0.000000
      0.001857       0.000221       0.000000
      0.001953       0.000299       0.000000
      0.001919       0.000256       0.000000
      0.001831       0.000184       0.000000
      0.001953       0.000299       0.000000
      0.002072       0.000402       0.000000
      0.002033       0.000352       0.000000
      0.001919       0.000256       0.000000
      0.000000       0.000000       0.000000
      0.000000       0.000000       0.000000
      0.000573       0.000167       0.000000
      0.000576       0.000153       0.000000
      0.000000       0.000000       0.000000
      0.000000       0.000000       0.000000
      0.000571       0.000141       0.000000
      0.000573       0.000167       0.000000
      0.000576       0.000153       0.000000
      0.000573       0.000167       0.000000
      0.001160       0.000337       0.000000
      0.001125       0.000297       0.000000
      0.000573       0.000167       0.000000
      0.000571       0.000141       0.000000
      0.001199       0.000267       0.000000
      0.001160       0.000337       0.000000
      0.000000       0.000000       0.000000
      0.000000       0.000000       0.000000
      0.000589       0.000094       0.000000
      0.000571       0.000141       0.000000
      0.000000       0.000000       0.000000
      0.000000       0.000000       0.000000
      0.000618       0.000052       0.000000
      0.000589       0.000094       0.000000
      0.000571       0.000141       0.000000
      0.000589       0.000094       0.000000
      0.001268       0.000159       0.000000
      0.001199       0.000267       0.000000
      0.000589       0.000094       0.000000
      0.000618       0.000052       0.000000
      0.001342       0.000078       0.000000
      0.001268       0.000159       0.000000
      0.000000       0.000000       0.000000
      0.000000       0.000000       0.000000
      0.000642       0.000022       0.000000
      0.000618       0.000052       0.000000
      0.000000       0.000000       0.000000
      0.000000       0.000000       0.000000
      0.000652       0.000000       0.000000
      0.000642       0.000022       0.000000
      0.000618       0.000052       0.000000
      0.000642       0.000022       0.000000
      0.001395       0.000029       0.000000
      0.001342       0.000078       0.000000
      0.000642       0.000022       0.000000
      0.000652       0.000000       0.000000
      0.001414       0.000000       0.000000
      0.001395       0.000029       0.000000
      0.001125       0.000297       0.000000
      0.001160       0.000337       0.000000
      0.001768       0.000504       0.000000
      0.001646       0.000413       0.000000
      0.001160       0.000337       0.000000
      0.001199       0.000267       0.000000
      0.001908       0.000346       0.000000
      0.001768       0.000504       0.000000
      0.001768       0.000504       0.000000
      0.001908       0.000346       0.000000
      0.002854       0.000311       0.000000
      0.002452       0.000666       0.000000
      0.001199       0.000267       0.000000
      0.001268       0.000159       0.000000
      0.002077       0.000169       0.000000
      0.001908       0.000346       0.000000
      0.001268       0.000159       0.000000
      0.001342       0.000078       0.000000
      0.002210       0.000066       0.000000
      0.002077       0.000169       0.000000
      0.001908       0.000346       0.000000
      0.002077       0.000169       0.000000
      0.003127       0.000107       0.000000
      0.002854       0.000311       0.000000
      0.002077       0.000169       0.000000
      0.002210       0.000066       0.000000
      0.003280       0.000022       0.000000
      0.003127       0.000107       0.000000
      0.001342       0.000078       0.000000
      0.001395       0.000029       0.000000
      0.002290       0.000020       0.000000
      0.002210       0.000066       0.000000
      0.001395       0.000029       0.000000
      0.001414       0.000000       0.000000
      0.002316       0.000000       0.000000