# vtk DataFile Version 2.0
time_10.vtk
ASCII
DATASET UNSTRUCTURED_GRID
POINTS  1764 float
      0.000000       0.000000       0.000000
      0.083333       0.000000       0.000000
      0.083333       0.083333       0.000000
      0.000000       0.083333       0.000000
      0.083333       0.000000       0.000000
      0.166667       0.000000       0.000000
      0.166667       0.083333       0.000000
      0.083333       0.083333       0.000000
      0.000000       0.083333       0.000000
      0.083333       0.083333       0.000000
      0.083333       0.166667       0.000000
      0.000000       0.166667       0.000000
      0.083333       0.083333       0.000000
      0.166667       0.083333       0.000000
      0.166667       0.166667       0.000000
      0.083333       0.166667       0.000000
      0.166667       0.000000       0.000000
      0.250000       0.000000       0.000000
      0.250000       0.083333       0.000000
      0.166667       0.083333       0.000000
      0.250000       0.000000       0.000000
      0.333333       0.000000       0.000000
      0.333333       0.083333       0.000000
      0.250000       0.083333       0.000000
      0.166667       0.083333       0.000000
      0.250000       0.083333       0.000000
      0.250000       0.166667       0.000000
      0.166667       0.166667       0.000000
      0.250000       0.083333       0.000000
      0.333333       0.083333       0.000000
      0.333333       0.166667       0.000000
      0.250000       0.166667       0.000000
      0.333333       0.000000       0.000000
      0.416667       0.000000       0.000000
      0.416667       0.083333       0.000000
      0.333333       0.083333       0.000000
      0.416667       0.000000       0.000000
      0.500000       0.000000       0.000000
      0.500000       0.083333       0.000000
      0.416667       0.083333       0.000000
      0.333333       0.083333       0.000000
      0.416667       0.083333       0.000000
      0.416667       0.166667       0.000000
      0.333333       0.166667       0.000000
      0.416667       0.083333       0.000000
      0.500000       0.083333       0.000000
      0.500000       0.166667       0.000000
      0.416667       0.166667       0.000000
      0.000000       0.166667       0.000000
      0.083333       0.166667       0.000000
      0.083333       0.250000       0.000000
      0.000000       0.250000       0.000000
      0.083333       0.166667       0.000000
      0.166667       0.166667       0.000000
      0.166667       0.250000       0.000000
      0.083333       0.250000       0.000000
      0.000000       0.250000       0.000000
      0.083333       0.250000       0.000000
      0.083333       0.333333       0.000000
      0.000000       0.333333       0.000000
      0.083333       0.250000       0.000000
      0.166667       0.250000       0.000000
      0.166667       0.333333       0.000000
      0.083333       0.333333       0.000000
      0.166667       0.166667       0.000000
      0.250000       0.166667       0.000000
      0.250000       0.250000       0.000000
      0.166667       0.250000       0.000000
      0.250000       0.166667       0.000000
      0.333333       0.166667       0.000000
      0.333333       0.250000       0.000000
      0.250000       0.250000       0.000000
      0.166667       0.250000       0.000000
      0.250000       0.250000       0.000000
      0.250000       0.333333       0.000000
      0.166667       0.333333       0.000000
      0.250000       0.250000       0.000000
      0.333333       0.250000       0.000000
      0.333333       0.333333       0.000000
      0.250000       0.333333       0.000000
      0.333333       0.166667       0.000000
      0.416667       0.166667       0.000000
      0.416667       0.250000       0.000000
      0.333333       0.250000       0.000000
      0.333333       0.250000       0.000000
      0.416667       0.250000       0.000000
      0.416667       0.333333       0.000000
      0.333333       0.333333       0.000000
      0.000000       0.333333       0.000000
      0.083333       0.333333       0.000000
      0.083333       0.416667       0.000000
      0.000000       0.416667       0.000000
      0.083333       0.333333       0.000000
      0.166667       0.333333       0.000000
      0.166667       0.416667       0.000000
      0.083333       0.416667       0.000000
      0.000000       0.416667       0.000000
      0.083333       0.416667       0.000000
      0.083333       0.500000       0.000000
      0.000000       0.500000       0.000000
      0.083333       0.416667       0.000000
      0.166667       0.416667       0.000000
      0.166667       0.500000       0.000000
      0.083333       0.500000       0.000000
      0.166667       0.333333       0.000000
      0.250000       0.333333       0.000000
      0.250000       0.416667       0.000000
      0.166667       0.416667       0.000000
      0.250000       0.333333       0.000000
      0.333333       0.333333       0.000000
      0.333333       0.416667       0.000000
      0.250000       0.416667       0.000000
      0.166667       0.416667       0.000000
      0.250000       0.416667       0.000000
      0.250000       0.500000       0.000000
      0.166667       0.500000       0.000000
      0.250000       0.416667       0.000000
      0.333333       0.416667       0.000000
      0.333333       0.500000       0.000000
      0.250000       0.500000       0.000000
      0.333333       0.333333       0.000000
      0.375000       0.333333       0.000000
      0.375000       0.375000       0.000000
      0.333333       0.375000       0.000000
      0.375000       0.333333       0.000000
      0.416667       0.333333       0.000000
      0.416667       0.375000       0.000000
      0.375000       0.375000       0.000000
      0.333333       0.375000       0.000000
      0.375000       0.375000       0.000000
      0.375000       0.416667       0.000000
      0.333333       0.416667       0.000000
      0.375000       0.375000       0.000000
      0.416667       0.375000       0.000000
      0.416667       0.416667       0.000000
      0.375000       0.416667       0.000000
      0.416667       0.333333       0.000000
      0.458333       0.333333       0.000000
      0.458333       0.375000       0.000000
      0.416667       0.375000       0.000000
      0.416667       0.375000       0.000000
      0.458333       0.375000       0.000000
      0.458333       0.416667       0.000000
      0.416667       0.416667       0.000000
      0.333333       0.416667       0.000000
      0.375000       0.416667       0.000000
      0.375000       0.458333       0.000000
      0.333333       0.458333       0.000000
      0.375000       0.416667       0.000000
      0.416667       0.416667       0.000000
      0.416667       0.458333       0.000000
      0.375000       0.458333       0.000000
      0.333333       0.458333       0.000000
      0.375000       0.458333       0.000000
      0.375000       0.500000       0.000000
      0.333333       0.500000       0.000000
      0.375000       0.458333       0.000000
      0.416667       0.458333       0.000000
      0.416667       0.500000       0.000000
      0.375000       0.500000       0.000000
      0.416667       0.416667       0.000000
      0.437500       0.416667       0.000000
      0.437500       0.437500       0.000000
      0.416667       0.437500       0.000000
      0.437500       0.416667       0.000000
      0.458333       0.416667       0.000000
      0.458333       0.437500       0.000000
      0.437500       0.437500       0.000000
      0.416667       0.437500       0.000000
      0.437500       0.437500       0.000000
      0.437500       0.458333       0.000000
      0.416667       0.458333       0.000000
      0.437500       0.437500       0.000000
      0.458333       0.437500       0.000000
      0.458333       0.458333       0.000000
      0.437500       0.458333       0.000000
      0.458333       0.416667       0.000000
      0.479167       0.416667       0.000000
      0.479167       0.437500       0.000000
      0.458333       0.437500       0.000000
      0.458333       0.437500       0.000000
      0.479167       0.437500       0.000000
      0.479167       0.458333       0.000000
      0.458333       0.458333       0.000000
      0.416667       0.458333       0.000000
      0.437500       0.458333       0.000000
      0.437500       0.479167       0.000000
      0.416667       0.479167       0.000000
      0.437500       0.458333       0.000000
      0.458333       0.458333       0.000000
      0.458333       0.479167       0.000000
      0.437500       0.479167       0.000000
      0.416667       0.479167       0.000000
      0.437500       0.479167       0.000000
      0.437500       0.500000       0.000000
      0.416667       0.500000       0.000000
      0.437500       0.479167       0.000000
      0.458333       0.479167       0.000000
      0.458333       0.500000       0.000000
      0.437500       0.500000       0.000000
      0.458333       0.458333       0.000000
      0.468750       0.458333       0.000000
      0.468750       0.468750       0.000000
      0.458333       0.468750       0.000000
      0.468750       0.458333       0.000000
      0.479167       0.458333       0.000000
      0.479167       0.468750       0.000000
      0.468750       0.468750       0.000000
      0.458333       0.468750       0.000000
      0.468750       0.468750       0.000000
      0.468750       0.479167       0.000000
      0.458333       0.479167       0.000000
      0.468750       0.468750       0.000000
      0.479167       0.468750       0.000000
      0.479167       0.479167       0.000000
      0.468750       0.479167       0.000000
      0.479167       0.458333       0.000000
      0.489583       0.458333       0.000000
      0.489583       0.468750       0.000000
      0.479167       0.468750       0.000000
[...]
POINT_DATA  1764
VECTORS U float 
      0.000000       0.000000       0.000000
      0.000000       0.000000       0.000000
      0.000303       0.000001       0.000000
      0.000294       0.000000       0.000000
      0.000000       0.000000       0.000000
      0.000000       0.000000       0.000000
      0.000330       0.000005       0.000000
      0.000303       0.000001       0.000000
      0.000294       0.000000       0.000000
      0.000303       0.000001       0.000000
      0.000555      -0.000008       0.000000
      0.000541       0.000000       0.000000
      0.000303       0.000001       0.000000
      0.000330       0.000005       0.000000
      0.000596      -0.000012       0.000000
      0.000555      -0.000008       0.000000
      0.000000       0.000000       0.000000
      0.000000       0.000000       0.000000
      0.000375       0.000015       0.000000
      0.000330       0.000005       0.000000
      0.000000       0.000000       0.000000
      0.000000       0.000000       0.000000
      0.000437       0.000038       0.000000
      0.000375       0.000015       0.000000
      0.000330       0.000005       0.000000
      0.000375       0.000015       0.000000
      0.000667      -0.000004       0.000000
      0.000596      -0.000012       0.000000
      0.000375       0.000015       0.000000
      0.000437       0.000038       0.000000
      0.000769       0.000029       0.000000
      0.000667      -0.000004       0.000000
      0.000000       0.000000       0.000000
      0.000000       0.000000       0.000000
      0.000507       0.000083       0.000000
      0.000437       0.000038       0.000000
      0.000000       0.000000       0.000000
      0.000000       0.000000       0.000000
      0.000563       0.000150       0.000000
      0.000507       0.000083       0.000000
      0.000437       0.000038       0.000000
      0.000507       0.000083       0.000000
      0.000904       0.000108       0.000000
      0.000769       0.000029       0.000000
      0.000507       0.000083       0.000000
      0.000563       0.000150       0.000000
      0.001051       0.000256       0.000000
      0.000904       0.000108       0.000000
      0.000541       0.000000       0.000000
      0.000555      -0.000008       0.000000
      0.000742      -0.000022       0.000000
      0.000728       0.000000       0.000000
      0.000555      -0.000008       0.000000
      0.000596      -0.000012       0.000000
      0.000785      -0.000039       0.000000
      0.000742      -0.000022       0.000000
      0.000728       0.000000       0.000000
      0.000742      -0.000022       0.000000
      0.000866      -0.000036       0.000000
      0.000856       0.000000       0.000000
      0.000742      -0.000022       0.000000
      0.000785      -0.000039       0.000000
      0.000900      -0.000066       0.000000
      0.000866      -0.000036       0.000000
      0.000596      -0.000012       0.000000
      0.000667      -0.000004       0.000000
      0.000859      -0.000043       0.000000
      0.000785      -0.000039       0.000000
      0.000667      -0.000004       0.000000
      0.000769       0.000029       0.000000
      0.000973      -0.000018       0.000000
      0.000859      -0.000043       0.000000
      0.000785      -0.000039       0.000000
      0.000859      -0.000043       0.000000
      0.000957      -0.000083       0.000000
      0.000900      -0.000066       0.000000
      0.000859      -0.000043       0.000000
      0.000973      -0.000018       0.000000
      0.001041      -0.000073       0.000000
      0.000957      -0.000083       0.000000
      0.000769       0.000029       0.000000
      0.000904       0.000108       0.000000
      0.001141       0.000061       0.000000
      0.000973      -0.000018       0.000000
      0.000973      -0.000018       0.000000
      0.001141       0.000061       0.000000
      0.001160      -0.000016       0.000000
      0.001041      -0.000073       0.000000
      0.000856       0.000000       0.000000
      0.000866      -0.000036       0.000000
      0.000943      -0.000045       0.000000
      0.000937       0.000000       0.000000
      0.000866      -0.000036       0.000000
      0.000900      -0.000066       0.000000
      0.000960      -0.000084       0.000000
      0.000943      -0.000045       0.000000
      0.000937       0.000000       0.000000
      0.000943      -0.000045       0.000000
      0.000994      -0.000048       0.000000
      0.000993       0.000000       0.000000
      0.000943      -0.000045       0.000000
      0.000960      -0.000084       0.000000
      0.000997      -0.000090       0.000000
      0.000994      -0.000048       0.000000
      0.000900      -0.000066       0.000000
      0.000957      -0.000083       0.000000
      0.000988      -0.000109       0.000000
      0.000960      -0.000084       0.000000
      0.000957      -0.000083       0.000000
      0.001041      -0.000073       0.000000
      0.001024      -0.000104       0.000000
      0.000988      -0.000109       0.000000
      0.000960      -0.000084       0.000000
      0.000988      -0.000109       0.000000
      0.000997      -0.000115       0.000000
      0.000997      -0.000090       0.000000
      0.000988      -0.000109       0.000000
      0.001024      -0.000104       0.000000
      0.000986      -0.000108       0.000000
      0.000997      -0.000115       0.000000
      0.001041      -0.000073       0.000000
      0.001096      -0.000052       0.000000
      0.001074      -0.000072       0.000000
      0.001039      -0.000092       0.000000
      0.001096      -0.000052       0.000000
      0.001160      -0.000016       0.000000
      0.001112      -0.000037       0.000000
      0.001074      -0.000072       0.000000
      0.001039      -0.000092       0.000000
      0.001074      -0.000072       0.000000
      0.001043      -0.000082       0.000000
      0.001024      -0.000104       0.000000
      0.001074      -0.000072       0.000000
      0.001112      -0.000037       0.000000
      0.001060      -0.000044       0.000000
      0.001043      -0.000082       0.000000
      0.001160      -0.000016       0.000000
      0.001235       0.000042       0.000000
      0.001150       0.000021       0.000000
      0.001112      -0.000037       0.000000
      0.001112      -0.000037       0.000000
      0.001150       0.000021       0.000000
      0.001073       0.000016       0.000000
      0.001060      -0.000044       0.000000
      0.001024      -0.000104       0.000000
      0.001043      -0.000082       0.000000
      0.001009      -0.000085       0.000000
      0.001004      -0.000108       0.000000
      0.001043      -0.000082       0.000000
      0.001060      -0.000044       0.000000
      0.001013      -0.000044       0.000000
      0.001009      -0.000085       0.000000
      0.001004      -0.000108       0.000000
      0.001009      -0.000085       0.000000
      0.000977      -0.000084       0.000000
      0.000986      -0.000108       0.000000
      0.001009      -0.000085       0.000000
      0.001013      -0.000044       0.000000
      0.000967      -0.000043       0.000000
      0.000977      -0.000084       0.000000
      0.001060      -0.000044       0.000000
      0.001067      -0.000017       0.000000
      0.001040      -0.000017       0.000000
      0.001036      -0.000044       0.000000
      0.001067      -0.000017       0.000000
      0.001073       0.000016       0.000000
      0.001043       0.000016       0.000000
      0.001040      -0.000017       0.000000
      0.001036      -0.000044       0.000000
      0.001040      -0.000017       0.000000
      0.001014      -0.000017       0.000000
      0.001013      -0.000044       0.000000
      0.001040      -0.000017       0.000000
      0.001043       0.000016       0.000000
      0.001016       0.000015       0.000000
      0.001014      -0.000017       0.000000
      0.001073       0.000016       0.000000
      0.001079       0.000056       0.000000
      0.001046       0.000054       0.000000
      0.001043       0.000016       0.000000
      0.001043       0.000016       0.000000
      0.001046       0.000054       0.000000
      0.001018       0.000052       0.000000
      0.001016       0.000015       0.000000
      0.001013      -0.000044       0.000000
      0.001014      -0.000017       0.000000
      0.000990      -0.000016       0.000000
      0.000991      -0.000044       0.000000
      0.001014      -0.000017       0.000000
      0.001016       0.000015       0.000000
      0.000990       0.000015       0.000000
      0.000990      -0.000016       0.000000
      0.000991      -0.000044       0.000000
      0.000990      -0.000016       0.000000
      0.000963      -0.000016       0.000000
      0.000967      -0.000043       0.000000
      0.000990      -0.000016       0.000000
      0.000990       0.000015       0.000000
      0.000962       0.000015       0.000000
      0.000963      -0.000016       0.000000
      0.001016       0.000015       0.000000
      0.001017       0.000033       0.000000
      0.001004       0.000032       0.000000
      0.001003       0.000015       0.000000
      0.001017       0.000033       0.000000
      0.001018       0.000052       0.000000
      0.001005       0.000050       0.000000
      0.001004       0.000032       0.000000
      0.001003       0.000015       0.000000
      0.001004       0.000032       0.000000
      0.000991       0.000032       0.000000
      0.000990       0.000015       0.000000
      0.001004       0.000032       0.000000
      0.001005       0.000050       0.000000
      0.000992       0.000049       0.000000
      0.000991       0.000032       0.000000
      0.001018       0.000052       0.000000
      0.001021       0.000072       0.000000
      0.001008       0.000069       0.000000
      0.001005       0.000050       0.000000
      0.001021       0.000072       0.000000
      0.001026       0.000094       0.000000
      0.001014       0.000098       0.000000
      0.001008       0.000069       0.000000
      0.001005       0.000050       0.000000
      0.001008       0.000069       0.000000
      0.000996       0.000066       0.000000
      0.000992       0.000049       0.000000
      0.001008       0.000069       0.000000
      0.001014       0.000098       0.000000
      0.000991       0.000101       0.000000
      0.000996       0.000066       0.000000
      0.000990       0.000015       0.000000
      0.000991       0.000032       0.000000
      0.000978       0.000031       0.000000
      0.000977       0.000015       0.000000
      0.000991       0.000032       0.000000
      0.000992       0.000049       0.000000
      0.000980       0.000046       0.000000
      0.000978       0.000031       0.000000
      0.000977       0.000015       0.000000
      0.000978       0.000031       0.000000
      0.000964       0.000031       0.000000
      0.000962       0.000015       0.000000
      0.000978       0.000031       0.000000
      0.000980       0.000046       0.000000
      0.000971       0.000050       0.000000
      0.000964       0.000031       0.000000
      0.000992       0.000049       0.000000
      0.000996       0.000066       0.000000
      0.000982       0.000059       0.000000
      0.000980       0.000046       0.000000
      0.000996       0.000066       0.000000
      0.000991       0.000101       0.000000
      0.000698       0.000087       0.000000
      0.000982       0.000059       0.000000
      0.000980       0.000046       0.000000
      0.000982       0.000059       0.000000
      0.001024       0.000076       0.000000
      0.000971       0.000050       0.000000
      0.000982       0.000059       0.000000
      0.000698       0.000087       0.000000
      0.008501       0.000828       0.000000
      0.001024       0.000076       0.000000
      0.001046       0.000054       0.000000
      0.001048       0.000075       0.000000
      0.001034       0.000074       0.000000
      0.001032       0.000053       0.000000
      0.001048       0.000075       0.000000
      0.001051       0.000098       0.000000
      0.001037       0.000096       0.000000
      0.001034       0.000074       0.000000
      0.001032       0.000053       0.000000
      0.001034       0.000074       0.000000
      0.001021       0.000072       0.000000
      0.001018       0.000052       0.000000
      0.001034       0.000074       0.000000
      0.001037       0.000096       0.000000
      0.001026       0.000094       0.000000
      0.001021       0.000072       0.000000
      0.001150       0.000021       0.000000
      0.001168       0.000061       0.000000
      0.001119       0.000058       0.000000
      0.001109       0.000017       0.000000
      0.001168       0.000061       0.000000
      0.001184       0.000112       0.000000
      0.001128       0.000108       0.000000
      0.001119       0.000058       0.000000
      0.001109       0.000017       0.000000
      0.001119       0.000058       0.000000
      0.001079       0.000056       0.000000
      0.001073       0.000016       0.000000
      0.001079       0.000056       0.000000
      0.001081       0.000079       0.000000
      0.001064       0.000077       0.000000
      0.001062       0.000055       0.000000
      0.001081       0.000079       0.000000
      0.001084       0.000104       0.000000
      0.001067       0.000101       0.000000
      0.001064       0.000077       0.000000
      0.001062       0.000055       0.000000
      0.001064       0.000077       0.000000
      0.001048       0.000075       0.000000
      0.001046       0.000054       0.000000
      0.001064       0.000077       0.000000
      0.001067       0.000101       0.000000
      0.001051       0.000098       0.000000
      0.001048       0.000075       0.000000
      0.001119       0.000058       0.000000
      0.001123       0.000082       0.000000
      0.001101       0.000080       0.000000
      0.001098       0.000057       0.000000
      0.001123       0.000082       0.000000
      0.001128       0.000108       0.000000
      0.001105       0.000106       0.000000
      0.001101       0.000080       0.000000
      0.001098       0.000057       0.000000
      0.001101       0.000080       0.000000
      0.001081       0.000079       0.000000
      0.001079       0.000056       0.000000
      0.001101       0.000080       0.000000
      0.001105       0.000106       0.000000
      0.001084       0.000104       0.000000
      0.001081       0.000079       0.000000
      0.001141       0.000061       0.000000
      0.001255       0.000138       0.000000
      0.001285       0.000088       0.000000
      0.001176       0.000020       0.000000
      0.001255       0.000138       0.000000
      0.001397       0.000258       0.000000
      0.001431       0.000199       0.000000
      0.001285       0.000088       0.000000
      0.001176       0.000020       0.000000
      0.001285       0.000088       0.000000
      0.001235       0.000042       0.000000
      0.001160      -0.000016       0.000000
      0.001235       0.000042       0.000000
      0.001280       0.000084       0.000000
      0.001224       0.000069       0.000000
      0.001194       0.000029       0.000000
      0.001280       0.000084       0.000000
      0.001329       0.000136       0.000000
      0.001254       0.000120       0.000000
      0.001224       0.000069       0.000000
      0.001194       0.000029       0.000000
      0.001224       0.000069       0.000000
      0.001168       0.000061       0.000000
      0.001150       0.000021       0.000000
      0.001224       0.000069       0.000000
      0.001254       0.000120       0.000000
      0.001184       0.000112       0.000000
      0.001168       0.000061       0.000000
      0.001285       0.000088       0.000000
      0.001351       0.000136       0.000000
      0.001326       0.000107       0.000000
      0.001268       0.000063       0.000000
      0.001351       0.000136       0.000000
      0.001431       0.000199       0.000000
      0.001394       0.000164       0.000000
      0.001326       0.000107       0.000000
      0.001268       0.000063       0.000000
      0.001326       0.000107       0.000000
      0.001280       0.000084       0.000000
      0.001235       0.000042       0.000000
      0.001326       0.000107       0.000000
      0.001394       0.000164       0.000000
      0.001329       0.000136       0.000000
      0.001280       0.000084       0.000000
      0.000904       0.000108       0.000000
      0.000978       0.000174       0.000000
      0.001146       0.000170       0.000000
      0.001047       0.000093       0.000000
      0.000978       0.000174       0.000000
      0.001051       0.000256       0.000000
      0.001254       0.000276       0.000000
      0.001146       0.000170       0.000000
      0.001047       0.000093       0.000000
      0.001146       0.000170       0.000000
      0.001255       0.000138       0.000000
      0.001141       0.000061       0.000000
      0.001146       0.000170       0.000000
      0.001254       0.000276       0.000000
      0.001397       0.000258       0.000000
      0.001255       0.000138       0.000000
      0.000000       0.000000       0.000000
      0.000000       0.000000       0.000000
      0.000581       0.000205       0.000000
      0.000563       0.000150       0.000000
      0.000000       0.000000       0.000000
      0.000000       0.000000       0.000000
      0.000579       0.000194       0.000000
      0.000581       0.000205       0.000000
      0.000563       0.000150       0.000000
      0.000581       0.000205       0.000000
      0.001152       0.000411       0.000000
      0.001051       0.000256       0.000000
      0.000581       0.000205       0.000000
      0.000579       0.000194       0.000000
      0.001215       0.000375       0.000000
      0.001152       0.000411       0.000000
      0.000000       0.000000       0.000000
      0.000000       0.000000       0.000000
      0.000600       0.000131       0.000000
      0.000579       0.000194       0.000000
      0.000000       0.000000       0.000000
      0.000000       0.000000       0.000000
      0.000642       0.000069       0.000000
      0.000600       0.000131       0.000000
      0.000579       0.000194       0.000000
      0.000600       0.000131       0.000000
      0.001323       0.000217       0.000000
      0.001215       0.000375       0.000000
      0.000600       0.000131       0.000000
      0.000642       0.000069       0.000000
      0.001436       0.000097       0.000000
      0.001323       0.000217       0.000000
      0.000000       0.000000       0.000000
      0.000000       0.000000       0.000000
      0.000679       0.000028       0.000000
      0.000642       0.000069       0.000000
      0.000000       0.000000       0.000000
      0.000000       0.000000       0.000000
      0.000694       0.000000       0.000000
      0.000679       0.000028       0.000000
      0.000642       0.000069       0.000000
      0.000679       0.000028       0.000000
      0.001513       0.000034       0.000000
      0.001436       0.000097       0.000000
      0.000679       0.000028       0.000000
      0.000694       0.000000       0.000000
      0.001540       0.000000       0.000000
      0.001513       0.000034       0.000000
      0.001215       0.000375       0.000000
      0.001323       0.000217       0.000000
      0.002263       0.000214       0.000000
      0.001981       0.000489       0.000000
      0.001323       0.000217       0.000000
      0.001436       0.000097       0.000000
      0.002450       0.000074       0.000000
      0.002263       0.000214       0.000000
      0.001981       0.000489       0.000000
      0.002263       0.000214       0.000000
      0.003635       0.000142       0.000000