# vtk DataFile Version 2.0
time_10.vtk
ASCII
DATASET UNSTRUCTURED_GRID
POINTS  1596 float
      0.000000       0.000000       0.000000
      0.083333       0.000000       0.000000
      0.083333       0.083333       0.000000
      0.000000       0.083333       0.000000
      0.083333       0.000000       0.000000
      0.166667       0.000000       0.000000
      0.166667       0.083333       0.000000
      0.083333       0.083333       0.000000
      0.000000       0.083333       0.000000
      0.083333       0.083333       0.000000
      0.083333       0.166667       0.000000
      0.000000       0.166667       0.000000
      0.083333       0.083333       0.000000
      0.166667       0.083333       0.000000
      0.166667       0.166667       0.000000
      0.083333       0.166667       0.000000
      0.166667       0.000000       0.000000
      0.250000       0.000000       0.000000
      0.250000       0.083333       0.000000
      0.166667       0.083333       0.000000
      0.250000       0.000000       0.000000
      0.333333       0.000000       0.000000
      0.333333       0.083333       0.000000
      0.250000       0.083333       0.000000
      0.166667       0.083333       0.000000
      0.250000       0.083333       0.000000
      0.250000       0.166667       0.000000
      0.166667       0.166667       0.000000
      0.250000       0.083333       0.000000
      0.333333       0.083333       0.000000
      0.333333       0.166667       0.000000
      0.250000       0.166667       0.000000
      0.333333       0.000000       0.000000
      0.416667       0.000000       0.000000
      0.416667       0.083333       0.000000
      0.333333       0.083333       0.000000
      0.416667       0.000000       0.000000
      0.500000       0.000000       0.000000
      0.500000       0.083333       0.000000
      0.416667       0.083333       0.000000
      0.333333       0.083333       0.000000
      0.416667       0.083333       0.000000
      0.416667       0.166667       0.000000
      0.333333       0.166667       0.000000
      0.416667       0.083333       0.000000
      0.500000       0.083333       0.000000
      0.500000       0.166667       0.000000
      0.416667       0.166667       0.000000
      0.000000       0.166667       0.000000
      0.083333       0.166667       0.000000
      0.083333       0.250000       0.000000
      0.000000       0.250000       0.000000
      0.083333       0.166667       0.000000
      0.166667       0.166667       0.000000
      0.166667       0.250000       0.000000
      0.083333       0.250000       0.000000
      0.000000       0.250000       0.000000
      0.083333       0.250000       0.000000
      0.083333       0.333333       0.000000
      0.000000       0.333333       0.000000
      0.083333       0.250000       0.000000
      0.166667       0.250000       0.000000
      0.166667       0.333333       0.000000
      0.083333       0.333333       0.000000
      0.166667       0.166667       0.000000
      0.250000       0.166667       0.000000
      0.250000       0.250000       0.000000
      0.166667       0.250000       0.000000
      0.250000       0.166667       0.000000
      0.333333       0.166667       0.000000
      0.333333       0.250000       0.000000
      0.250000       0.250000       0.000000
      0.166667       0.250000       0.000000
      0.250000       0.250000       0.000000
      0.250000       0.333333       0.000000
      0.166667       0.333333       0.000000
      0.250000       0.250000       0.000000
      0.333333       0.250000       0.000000
      0.333333       0.333333       0.000000
      0.250000       0.333333       0.000000
      0.333333       0.166667       0.000000
      0.416667       0.166667       0.000000
      0.416667       0.250000       0.000000
      0.333333       0.250000       0.000000
      0.416667       0.166667       0.000000
      0.500000       0.166667       0.000000
      0.500000       0.250000       0.000000
      0.416667       0.250000       0.000000
      0.333333       0.250000       0.000000
      0.416667       0.250000       0.000000
      0.416667       0.333333       0.000000
      0.333333       0.333333       0.000000
      0.000000       0.333333       0.000000
      0.083333       0.333333       0.000000
      0.083333       0.416667       0.000000
      0.000000       0.416667       0.000000
      0.083333       0.333333       0.000000
      0.166667       0.333333       0.000000
      0.166667       0.416667       0.000000
      0.083333       0.416667       0.000000
      0.000000       0.416667       0.000000
      0.083333       0.416667       0.000000
      0.083333       0.500000       0.000000
      0.000000       0.500000       0.000000
      0.083333       0.416667       0.000000
      0.166667       0.416667       0.000000
      0.166667       0.500000       0.000000
      0.083333       0.500000       0.000000
      0.166667       0.333333       0.000000
      0.250000       0.333333       0.000000
      0.250000       0.416667       0.000000
      0.166667       0.416667       0.000000
      0.250000       0.333333       0.000000
      0.333333       0.333333       0.000000
      0.333333       0.416667       0.000000
      0.250000       0.416667       0.000000
      0.166667       0.416667       0.000000
      0.250000       0.416667       0.000000
      0.250000       0.500000       0.000000
      0.166667       0.500000       0.000000
      0.250000       0.416667       0.000000
      0.333333       0.416667       0.000000
      0.333333       0.500000       0.000000
      0.250000       0.500000       0.000000
      0.333333       0.333333       0.000000
      0.375000       0.333333       0.000000
      0.375000       0.375000       0.000000
      0.333333       0.375000       0.000000
      0.375000       0.333333       0.000000
      0.416667       0.333333       0.000000
      0.416667       0.375000       0.000000
      0.375000       0.375000       0.000000
      0.333333       0.375000       0.000000
      0.375000       0.375000       0.000000
      0.375000       0.416667       0.000000
      0.333333       0.416667       0.000000
      0.375000       0.375000       0.000000
      0.416667       0.375000       0.000000
      0.416667       0.416667       0.000000
      0.375000       0.416667       0.000000
      0.416667       0.333333       0.000000
      0.458333       0.333333       0.000000
      0.458333       0.375000       0.000000
      0.416667       0.375000       0.000000
      0.416667       0.375000       0.000000
      0.458333       0.375000       0.000000
      0.458333       0.416667       0.000000
      0.416667       0.416667       0.000000
      0.333333       0.416667       0.000000
      0.375000       0.416667       0.000000
      0.375000       0.458333       0.000000
      0.333333       0.458333       0.000000
      0.375000       0.416667       0.000000
      0.416667       0.416667       0.000000
      0.416667       0.458333       0.000000
      0.375000       0.458333       0.000000
      0.333333       0.458333       0.000000
      0.375000       0.458333       0.000000
      0.375000       0.500000       0.000000
      0.333333       0.500000       0.000000
      0.375000       0.458333       0.000000
      0.416667       0.458333       0.000000
      0.416667       0.500000       0.000000
      0.375000       0.500000       0.000000
      0.416667       0.416667       0.000000
      0.437500       0.416667       0.000000
      0.437500       0.437500       0.000000
      0.416667       0.437500       0.000000
      0.437500       0.416667       0.000000
      0.458333       0.416667       0.000000
      0.458333       0.437500       0.000000
      0.437500       0.437500       0.000000
      0.416667       0.437500       0.000000
      0.437500       0.437500       0.000000
      0.437500       0.458333       0.000000
      0.416667       0.458333       0.000000
      0.437500       0.437500       0.000000
      0.458333       0.437500       0.000000
      0.458333       0.458333       0.000000
      0.437500       0.458333       0.000000
      0.458333       0.416667       0.000000
      0.479167       0.416667       0.000000
      0.479167       0.437500       0.000000
      0.458333       0.437500       0.000000
      0.458333       0.437500       0.000000
      0.479167       0.437500       0.000000
      0.479167       0.458333       0.000000
      0.458333       0.458333       0.000000
      0.416667       0.458333       0.000000
      0.437500       0.458333       0.000000
      0.437500       0.479167       0.000000
      0.416667       0.479167       0.000000
      0.437500       0.458333       0.000000
      0.458333       0.458333       0.000000
      0.458333       0.479167       0.000000
      0.437500       0.479167       0.000000
      0.416667       0.479167       0.000000
      0.437500       0.479167       0.000000
      0.437500       0.500000       0.000000
      0.416667       0.500000       0.000000
      0.437500       0.479167       0.000000
      0.458333       0.479167       0.000000
      0.458333       0.500000       0.000000
      0.437500       0.500000       0.000000
      0.458333       0.458333       0.000000
      0.468750       0.458333       0.000000
      0.468750       0.468750       0.000000
      0.458333       0.468750       0.000000
      0.468750       0.458333       0.000000
      0.479167       0.458333       0.000000
      0.479167       0.468750       0.000000
      0.468750       0.468750       0.000000
      0.458333       0.468750       0.000000
      0.468750       0.468750       0.000000
      0.468750       0.479167       0.000000
      0.458333       0.479167       0.000000
      0.468750       0.468750       0.000000
      0.479167       0.468750       0.000000
      0.479167       0.479167       0.000000
      0.468750       0.479167       0.000000
[...]
POINT_DATA  1596
VECTORS U float 
      0.000000       0.000000       0.000000
      0.000000       0.000000       0.000000
      0.000354       0.000004       0.000000
      0.000345       0.000000       0.000000
      0.000000       0.000000       0.000000
      0.000000       0.000000       0.000000
      0.000380       0.000011       0.000000
      0.000354       0.000004       0.000000
      0.000345       0.000000       0.000000
      0.000354       0.000004       0.000000
      0.000649      -0.000003       0.000000
      0.000635       0.000000       0.000000
      0.000354       0.000004       0.000000
      0.000380       0.000011       0.000000
      0.000692      -0.000001       0.000000
      0.000649      -0.000003       0.000000
      0.000000       0.000000       0.000000
      0.000000       0.000000       0.000000
      0.000423       0.000025       0.000000
      0.000380       0.000011       0.000000
      0.000000       0.000000       0.000000
      0.000000       0.000000       0.000000
      0.000478       0.000053       0.000000
      0.000423       0.000025       0.000000
      0.000380       0.000011       0.000000
      0.000423       0.000025       0.000000
      0.000763       0.000016       0.000000
      0.000692      -0.000001       0.000000
      0.000423       0.000025       0.000000
      0.000478       0.000053       0.000000
      0.000863       0.000062       0.000000
      0.000763       0.000016       0.000000
      0.000000       0.000000       0.000000
      0.000000       0.000000       0.000000
      0.000534       0.000099       0.000000
      0.000478       0.000053       0.000000
      0.000000       0.000000       0.000000
      0.000000       0.000000       0.000000
      0.000570       0.000155       0.000000
      0.000534       0.000099       0.000000
      0.000478       0.000053       0.000000
      0.000534       0.000099       0.000000
      0.000982       0.000152       0.000000
      0.000863       0.000062       0.000000
      0.000534       0.000099       0.000000
      0.000570       0.000155       0.000000
      0.001092       0.000287       0.000000
      0.000982       0.000152       0.000000
      0.000635       0.000000       0.000000
      0.000649      -0.000003       0.000000
      0.000872      -0.000017       0.000000
      0.000857       0.000000       0.000000
      0.000649      -0.000003       0.000000
      0.000692      -0.000001       0.000000
      0.000919      -0.000027       0.000000
      0.000872      -0.000017       0.000000
      0.000857       0.000000       0.000000
      0.000872      -0.000017       0.000000
      0.001022      -0.000031       0.000000
      0.001009       0.000000       0.000000
      0.000872      -0.000017       0.000000
      0.000919      -0.000027       0.000000
      0.001062      -0.000056       0.000000
      0.001022      -0.000031       0.000000
      0.000692      -0.000001       0.000000
      0.000763       0.000016       0.000000
      0.001002      -0.000019       0.000000
      0.000919      -0.000027       0.000000
      0.000763       0.000016       0.000000
      0.000863       0.000062       0.000000
      0.001127       0.000024       0.000000
      0.001002      -0.000019       0.000000
      0.000919      -0.000027       0.000000
      0.001002      -0.000019       0.000000
      0.001132      -0.000064       0.000000
      0.001062      -0.000056       0.000000
      0.001002      -0.000019       0.000000
      0.001127       0.000024       0.000000
      0.001241      -0.000039       0.000000
      0.001132      -0.000064       0.000000
      0.000863       0.000062       0.000000
      0.000982       0.000152       0.000000
      0.001305       0.000132       0.000000
      0.001127       0.000024       0.000000
      0.000982       0.000152       0.000000
      0.001092       0.000287       0.000000
      0.001542       0.000354       0.000000
      0.001305       0.000132       0.000000
      0.001127       0.000024       0.000000
      0.001305       0.000132       0.000000
      0.001404       0.000045       0.000000
      0.001241      -0.000039       0.000000
      0.001009       0.000000       0.000000
      0.001022      -0.000031       0.000000
      0.001113      -0.000042       0.000000
      0.001105       0.000000       0.000000
      0.001022      -0.000031       0.000000
      0.001062      -0.000056       0.000000
      0.001137      -0.000078       0.000000
      0.001113      -0.000042       0.000000
      0.001105       0.000000       0.000000
      0.001113      -0.000042       0.000000
      0.001168      -0.000047       0.000000
      0.001165       0.000000       0.000000
      0.001113      -0.000042       0.000000
      0.001137      -0.000078       0.000000
      0.001177      -0.000087       0.000000
      0.001168      -0.000047       0.000000
      0.001062      -0.000056       0.000000
      0.001132      -0.000064       0.000000
      0.001177      -0.000098       0.000000
      0.001137      -0.000078       0.000000
      0.001132      -0.000064       0.000000
      0.001241      -0.000039       0.000000
      0.001232      -0.000085       0.000000
      0.001177      -0.000098       0.000000
      0.001137      -0.000078       0.000000
      0.001177      -0.000098       0.000000
      0.001185      -0.000110       0.000000
      0.001177      -0.000087       0.000000
      0.001177      -0.000098       0.000000
      0.001232      -0.000085       0.000000
      0.001184      -0.000097       0.000000
      0.001185      -0.000110       0.000000
      0.001241      -0.000039       0.000000
      0.001313      -0.000007       0.000000
      0.001300      -0.000039       0.000000
      0.001247      -0.000067       0.000000
      0.001313      -0.000007       0.000000
      0.001404       0.000045       0.000000
      0.001363       0.000007       0.000000
      0.001300      -0.000039       0.000000
      0.001247      -0.000067       0.000000
      0.001300      -0.000039       0.000000
      0.001264      -0.000058       0.000000
      0.001232      -0.000085       0.000000
      0.001300      -0.000039       0.000000
      0.001363       0.000007       0.000000
      0.001296      -0.000011       0.000000
      0.001264      -0.000058       0.000000
      0.001404       0.000045       0.000000
      0.001520       0.000126       0.000000
      0.001435       0.000079       0.000000
      0.001363       0.000007       0.000000
      0.001363       0.000007       0.000000
      0.001435       0.000079       0.000000
      0.001325       0.000063       0.000000
      0.001296      -0.000011       0.000000
      0.001232      -0.000085       0.000000
      0.001264      -0.000058       0.000000
      0.001220      -0.000067       0.000000
      0.001208      -0.000095       0.000000
      0.001264      -0.000058       0.000000
      0.001296      -0.000011       0.000000
      0.001230      -0.000016       0.000000
      0.001220      -0.000067       0.000000
      0.001208      -0.000095       0.000000
      0.001220      -0.000067       0.000000
      0.001177      -0.000067       0.000000
      0.001184      -0.000097       0.000000
      0.001220      -0.000067       0.000000
      0.001230      -0.000016       0.000000
      0.001168      -0.000015       0.000000
      0.001177      -0.000067       0.000000
      0.001296      -0.000011       0.000000
      0.001312       0.000022       0.000000
      0.001271       0.000020       0.000000
      0.001262      -0.000015       0.000000
      0.001312       0.000022       0.000000
      0.001325       0.000063       0.000000
      0.001278       0.000061       0.000000
      0.001271       0.000020       0.000000
      0.001262      -0.000015       0.000000
      0.001271       0.000020       0.000000
      0.001234       0.000019       0.000000
      0.001230      -0.000016       0.000000
      0.001271       0.000020       0.000000
      0.001278       0.000061       0.000000
      0.001238       0.000060       0.000000
      0.001234       0.000019       0.000000
      0.001325       0.000063       0.000000
      0.001338       0.000114       0.000000
      0.001285       0.000111       0.000000
      0.001278       0.000061       0.000000
      0.001278       0.000061       0.000000
      0.001285       0.000111       0.000000
      0.001242       0.000109       0.000000
      0.001238       0.000060       0.000000
      0.001230      -0.000016       0.000000
      0.001234       0.000019       0.000000
      0.001200       0.000019       0.000000
      0.001199      -0.000016       0.000000
      0.001234       0.000019       0.000000
      0.001238       0.000060       0.000000
      0.001201       0.000060       0.000000
      0.001200       0.000019       0.000000
      0.001199      -0.000016       0.000000
      0.001200       0.000019       0.000000
      0.001164       0.000020       0.000000
      0.001168      -0.000015       0.000000
      0.001200       0.000019       0.000000
      0.001201       0.000060       0.000000
      0.001162       0.000060       0.000000
      0.001164       0.000020       0.000000
      0.001238       0.000060       0.000000
      0.001239       0.000084       0.000000
      0.001220       0.000083       0.000000
      0.001219       0.000060       0.000000
      0.001239       0.000084       0.000000
      0.001242       0.000109       0.000000
      0.001222       0.000107       0.000000
      0.001220       0.000083       0.000000
      0.001219       0.000060       0.000000
      0.001220       0.000083       0.000000
      0.001202       0.000082       0.000000
      0.001201       0.000060       0.000000
      0.001220       0.000083       0.000000
      0.001222       0.000107       0.000000
      0.001203       0.000105       0.000000
      0.001202       0.000082       0.000000
      0.001242       0.000109       0.000000
      0.001245       0.000136       0.000000
      0.001226       0.000133       0.000000
      0.001222       0.000107       0.000000
      0.001245       0.000136       0.000000
      0.001251       0.000166       0.000000
      0.001233       0.000169       0.000000
      0.001226       0.000133       0.000000
      0.001222       0.000107       0.000000
      0.001226       0.000133       0.000000
      0.001207       0.000130       0.000000
      0.001203       0.000105       0.000000
      0.001226       0.000133       0.000000
      0.001233       0.000169       0.000000
      0.001203       0.000171       0.000000
      0.001207       0.000130       0.000000
      0.001201       0.000060       0.000000
      0.001202       0.000082       0.000000
      0.001183       0.000082       0.000000
      0.001182       0.000060       0.000000
      0.001202       0.000082       0.000000
      0.001203       0.000105       0.000000
      0.001185       0.000103       0.000000
      0.001183       0.000082       0.000000
      0.001182       0.000060       0.000000
      0.001183       0.000082       0.000000
      0.001164       0.000082       0.000000
      0.001162       0.000060       0.000000
      0.001183       0.000082       0.000000
      0.001185       0.000103       0.000000
      0.001170       0.000106       0.000000
      0.001164       0.000082       0.000000
      0.001203       0.000105       0.000000
      0.001207       0.000130       0.000000
      0.001188       0.000122       0.000000
      0.001185       0.000103       0.000000
      0.001207       0.000130       0.000000
      0.001203       0.000171       0.000000
      0.000908       0.000135       0.000000
      0.001188       0.000122       0.000000
      0.001185       0.000103       0.000000
      0.001188       0.000122       0.000000
      0.001220       0.000137       0.000000
      0.001170       0.000106       0.000000
      0.001188       0.000122       0.000000
      0.000908       0.000135       0.000000
      0.008137       0.000779       0.000000
      0.001220       0.000137       0.000000
      0.001285       0.000111       0.000000
      0.001288       0.000140       0.000000
      0.001265       0.000138       0.000000
      0.001262       0.000110       0.000000
      0.001288       0.000140       0.000000
      0.001292       0.000172       0.000000
      0.001270       0.000169       0.000000
      0.001265       0.000138       0.000000
      0.001262       0.000110       0.000000
      0.001265       0.000138       0.000000
      0.001245       0.000136       0.000000
      0.001242       0.000109       0.000000
      0.001265       0.000138       0.000000
      0.001270       0.000169       0.000000
      0.001251       0.000166       0.000000
      0.001245       0.000136       0.000000
      0.001435       0.000079       0.000000
      0.001475       0.000130       0.000000
      0.001402       0.000119       0.000000
      0.001379       0.000068       0.000000
      0.001475       0.000130       0.000000
      0.001518       0.000194       0.000000
      0.001424       0.000183       0.000000
      0.001402       0.000119       0.000000
      0.001379       0.000068       0.000000
      0.001402       0.000119       0.000000
      0.001338       0.000114       0.000000
      0.001325       0.000063       0.000000
      0.001338       0.000114       0.000000
      0.001343       0.000144       0.000000
      0.001314       0.000142       0.000000
      0.001310       0.000113       0.000000
      0.001343       0.000144       0.000000
      0.001349       0.000178       0.000000
      0.001319       0.000175       0.000000
      0.001314       0.000142       0.000000
      0.001310       0.000113       0.000000
      0.001314       0.000142       0.000000
      0.001288       0.000140       0.000000
      0.001285       0.000111       0.000000
      0.001314       0.000142       0.000000
      0.001319       0.000175       0.000000
      0.001292       0.000172       0.000000
      0.001288       0.000140       0.000000
      0.001402       0.000119       0.000000
      0.001413       0.000149       0.000000
      0.001376       0.000146       0.000000
      0.001369       0.000116       0.000000
      0.001413       0.000149       0.000000
      0.001424       0.000183       0.000000
      0.001384       0.000181       0.000000
      0.001376       0.000146       0.000000
      0.001369       0.000116       0.000000
      0.001376       0.000146       0.000000
      0.001343       0.000144       0.000000
      0.001338       0.000114       0.000000
      0.001376       0.000146       0.000000
      0.001384       0.000181       0.000000
      0.001349       0.000178       0.000000
      0.001343       0.000144       0.000000
      0.001305       0.000132       0.000000
      0.001419       0.000227       0.000000
      0.001518       0.000186       0.000000
      0.001388       0.000092       0.000000
      0.001419       0.000227       0.000000
      0.001542       0.000354       0.000000
      0.001684       0.000332       0.000000
      0.001518       0.000186       0.000000
      0.001388       0.000092       0.000000
      0.001518       0.000186       0.000000
      0.001520       0.000126       0.000000
      0.001404       0.000045       0.000000
      0.001518       0.000186       0.000000
      0.001684       0.000332       0.000000
      0.001684       0.000259       0.000000
      0.001520       0.000126       0.000000
      0.001520       0.000126       0.000000
      0.001594       0.000183       0.000000
      0.001544       0.000152       0.000000
      0.001485       0.000099       0.000000
      0.001594       0.000183       0.000000
      0.001684       0.000259       0.000000
      0.001614       0.000219       0.000000
      0.001544       0.000152       0.000000
      0.001485       0.000099       0.000000
      0.001544       0.000152       0.000000
      0.001475       0.000130       0.000000
      0.001435       0.000079       0.000000
      0.001544       0.000152       0.000000
      0.001614       0.000219       0.000000
      0.001518       0.000194       0.000000
      0.001475       0.000130       0.000000
      0.000000       0.000000       0.000000
      0.000000       0.000000       0.000000
      0.000575       0.000189       0.000000
      0.000570       0.000155       0.000000
      0.000000       0.000000       0.000000
      0.000000       0.000000       0.000000
      0.000573       0.000167       0.000000
      0.000575       0.000189       0.000000
      0.000570       0.000155       0.000000
      0.000575       0.000189       0.000000
      0.001154       0.000380       0.000000
      0.001092       0.000287       0.000000
      0.000575       0.000189       0.000000
      0.000573       0.000167       0.000000
      0.001203       0.000320       0.000000
      0.001154       0.000380       0.000000
      0.000000       0.000000       0.000000
      0.000000       0.000000       0.000000
      0.000591       0.000112       0.000000
      0.000573       0.000167       0.000000
      0.000000       0.000000       0.000000
      0.000000       0.000000       0.000000
      0.000626       0.000061       0.000000
      0.000591       0.000112       0.000000
      0.000573       0.000167       0.000000
      0.000591       0.000112       0.000000
      0.001289       0.000188       0.000000
      0.001203       0.000320       0.000000
      0.000591       0.000112       0.000000
      0.000626       0.000061       0.000000
      0.001382       0.000088       0.000000
      0.001289       0.000188       0.000000
      0.000000       0.000000       0.000000
      0.000000       0.000000       0.000000
      0.000657       0.000025       0.000000
      0.000626       0.000061       0.000000
      0.000000       0.000000       0.000000
      0.000000       0.000000       0.000000
      0.000669       0.000000       0.000000
      0.000657       0.000025       0.000000
      0.000626       0.000061       0.000000
      0.000657       0.000025       0.000000
      0.001447       0.000032       0.000000
      0.001382       0.000088       0.000000
      0.000657       0.000025       0.000000
      0.000669       0.000000       0.000000
      0.001469       0.000000       0.000000
      0.001447       0.000032       0.000000
      0.001092       0.000287       0.000000
      0.001154       0.000380       0.000000
      0.001744       0.000578       0.000000
      0.001542       0.000354       0.000000
      0.001154       0.000380       0.000000
      0.001203       0.000320       0.000000
      0.001933       0.000416       0.000000
      0.001744       0.000578       0.000000
      0.001203       0.000320       0.000000
      0.001289       0.000188       0.000000
      0.002154       0.000193       0.000000
      0.001933       0.000416       0.000000
      0.001289       0.000188       0.000000
      0.001382       0.000088       0.000000
      0.002317       0.000071       0.000000
      0.002154       0.000193       0.000000
      0.001933       0.000416       0.000000
      0.002154       0.000193       0.000000
      0.003352       0.000119       0.000000
      0.003065       0.000363       0.000000
      0.002154       0.000193       0.000000
      0.002317       0.000071       0.000000
      0.003499       0.000024       0.000000
      0.003352       0.000119       0.000000
      0.001382       0.000088       0.000000
      0.001447       0.000032       0.000000
      0.002409       0.000020       0.000000
      0.002317       0.000071       0.000000
      0.001447       0.000032       0.000000
      0.001469       0.000000       0.000000
      0.002439       0.000000       0.000000
      0.002409       0.000020       0.000000
      0.002317       0.000071       0.000000
      0.002409       0.000020       0.000000
      0.003572      -0.000002       0.000000