# vtk DataFile Version 2.0
time_10.vtk
ASCII
DATASET UNSTRUCTURED_GRID
POINTS  1188 float
      0.000000       0.000000       0.000000
      0.083333       0.000000       0.000000
      0.083333       0.083333       0.000000
      0.000000       0.083333       0.000000
      0.083333       0.000000       0.000000
      0.166667       0.000000       0.000000
      0.166667       0.083333       0.000000
      0.083333       0.083333       0.000000
      0.000000       0.083333       0.000000
      0.083333       0.083333       0.000000
      0.083333       0.166667       0.000000
      0.000000       0.166667       0.000000
      0.083333       0.083333       0.000000
      0.166667       0.083333       0.000000
      0.166667       0.166667       0.000000
      0.083333       0.166667       0.000000
      0.166667       0.000000       0.000000
      0.250000       0.000000       0.000000
      0.250000       0.083333       0.000000
      0.166667       0.083333       0.000000
      0.250000       0.000000       0.000000
      0.333333       0.000000       0.000000
      0.333333       0.083333       0.000000
      0.250000       0.083333       0.000000
      0.166667       0.083333       0.000000
      0.250000       0.083333       0.000000
      0.250000       0.166667       0.000000
      0.166667       0.166667       0.000000
      0.250000       0.083333       0.000000
      0.333333       0.083333       0.000000
      0.333333       0.166667       0.000000
      0.250000       0.166667       0.000000
      0.333333       0.000000       0.000000
      0.416667       0.000000       0.000000
      0.416667       0.083333       0.000000
      0.333333       0.083333       0.000000
      0.416667       0.000000       0.000000
      0.500000       0.000000       0.000000
      0.500000       0.083333       0.000000
      0.416667       0.083333       0.000000
      0.333333       0.083333       0.000000
      0.416667       0.083333       0.000000
      0.416667       0.166667       0.000000
      0.333333       0.166667       0.000000
      0.416667       0.083333       0.000000
      0.500000       0.083333       0.000000
      0.500000       0.166667       0.000000
      0.416667       0.166667       0.000000
      0.000000       0.166667       0.000000
      0.083333       0.166667       0.000000
      0.083333       0.250000       0.000000
      0.000000       0.250000       0.000000
      0.083333       0.166667       0.000000
      0.166667       0.166667       0.000000
      0.166667       0.250000       0.000000
      0.083333       0.250000       0.000000
      0.000000       0.250000       0.000000
      0.083333       0.250000       0.000000
      0.083333       0.333333       0.000000
      0.000000       0.333333       0.000000
      0.083333       0.250000       0.000000
      0.166667       0.250000       0.000000
      0.166667       0.333333       0.000000
      0.083333       0.333333       0.000000
      0.166667       0.166667       0.000000
      0.250000       0.166667       0.000000
      0.250000       0.250000       0.000000
      0.166667       0.250000       0.000000
      0.250000       0.166667       0.000000
      0.333333       0.166667       0.000000
      0.333333       0.250000       0.000000
      0.250000       0.250000       0.000000
      0.166667       0.250000       0.000000
      0.250000       0.250000       0.000000
      0.250000       0.333333       0.000000
      0.166667       0.333333       0.000000
      0.250000       0.250000       0.000000
      0.333333       0.250000       0.000000
      0.333333       0.333333       0.000000
      0.250000       0.333333       0.000000
      0.333333       0.166667       0.000000
      0.416667       0.166667       0.000000
      0.416667       0.250000       0.000000
      0.333333       0.250000       0.000000
      0.416667       0.166667       0.000000
      0.500000       0.166667       0.000000
      0.500000       0.250000       0.000000
      0.416667       0.250000       0.000000
      0.333333       0.250000       0.000000
      0.416667       0.250000       0.000000
      0.416667       0.333333       0.000000
      0.333333       0.333333       0.000000
      0.416667       0.250000       0.000000
      0.500000       0.250000       0.000000
      0.500000       0.333333       0.000000
      0.416667       0.333333       0.000000
      0.000000       0.333333       0.000000
      0.083333       0.333333       0.000000
      0.083333       0.416667       0.000000
      0.000000       0.416667       0.000000
      0.083333       0.333333       0.000000
      0.166667       0.333333       0.000000
      0.166667       0.416667       0.000000
      0.083333       0.416667       0.000000
      0.000000       0.416667       0.000000
      0.083333       0.416667       0.000000
      0.083333       0.500000       0.000000
      0.000000       0.500000       0.000000
      0.083333       0.416667       0.000000
      0.166667       0.416667       0.000000
      0.166667       0.500000       0.000000
      0.083333       0.500000       0.000000
      0.166667       0.333333       0.000000
      0.250000       0.333333       0.000000
      0.250000       0.416667       0.000000
      0.166667       0.416667       0.000000
      0.250000       0.333333       0.000000
      0.333333       0.333333       0.000000
      0.333333       0.416667       0.000000
      0.250000       0.416667       0.000000
      0.166667       0.416667       0.000000
      0.250000       0.416667       0.000000
      0.250000       0.500000       0.000000
      0.166667       0.500000       0.000000
      0.250000       0.416667       0.000000
      0.333333       0.416667       0.000000
      0.333333       0.500000       0.000000
      0.250000       0.500000       0.000000
      0.333333       0.333333       0.000000
      0.375000       0.333333       0.000000
      0.375000       0.375000       0.000000
      0.333333       0.375000       0.000000
      0.375000       0.333333       0.000000
      0.416667       0.333333       0.000000
      0.416667       0.375000       0.000000
      0.375000       0.375000       0.000000
      0.333333       0.375000       0.000000
      0.375000       0.375000       0.000000
      0.375000       0.416667       0.000000
      0.333333       0.416667       0.000000
      0.375000       0.375000       0.000000
      0.416667       0.375000       0.000000
      0.416667       0.416667       0.000000
      0.375000       0.416667       0.000000
      0.416667       0.333333       0.000000
      0.458333       0.333333       0.000000
      0.458333       0.375000       0.000000
      0.416667       0.375000       0.000000
      0.458333       0.333333       0.000000
      0.500000       0.333333       0.000000
      0.500000       0.375000       0.000000
      0.458333       0.375000       0.000000
      0.416667       0.375000       0.000000
      0.458333       0.375000       0.000000
      0.458333       0.416667       0.000000
      0.416667       0.416667       0.000000
      0.458333       0.375000       0.000000
      0.500000       0.375000       0.000000
      0.500000       0.416667       0.000000
      0.458333       0.416667       0.000000
      0.333333       0.416667       0.000000
      0.375000       0.416667       0.000000
      0.375000       0.458333       0.000000
      0.333333       0.458333       0.000000
      0.375000       0.416667       0.000000
      0.416667       0.416667       0.000000
      0.416667       0.458333       0.000000
      0.375000       0.458333       0.000000
      0.333333       0.458333       0.000000
      0.375000       0.458333       0.000000
      0.375000       0.500000       0.000000
      0.333333       0.500000       0.000000
      0.375000       0.458333       0.000000
      0.416667       0.458333       0.000000
      0.416667       0.500000       0.000000
      0.375000       0.500000       0.000000
      0.416667       0.416667       0.000000
      0.437500       0.416667       0.000000
      0.437500       0.437500       0.000000
      0.416667       0.437500       0.000000
      0.437500       0.416667       0.000000
      0.458333       0.416667       0.000000
      0.458333       0.437500       0.000000
      0.437500       0.437500       0.000000
      0.416667       0.437500       0.000000
      0.437500       0.437500       0.000000
      0.437500       0.458333       0.000000
      0.416667       0.458333       0.000000
      0.437500       0.437500       0.000000
      0.458333       0.437500       0.000000
      0.458333       0.458333       0.000000
      0.437500       0.458333       0.000000
      0.458333       0.416667       0.000000
      0.479167       0.416667       0.000000
      0.479167       0.437500       0.000000
      0.458333       0.437500       0.000000
      0.479167       0.416667       0.000000
      0.500000       0.416667       0.000000
      0.500000       0.437500       0.000000
      0.479167       0.437500       0.000000
      0.458333       0.437500       0.000000
      0.479167       0.437500       0.000000
      0.479167       0.458333       0.000000
      0.458333       0.458333       0.000000
      0.416667       0.458333       0.000000
      0.437500       0.458333       0.000000
      0.437500       0.479167       0.000000
      0.416667       0.479167       0.000000
      0.437500       0.458333       0.000000
      0.458333       0.458333       0.000000
      0.458333       0.479167       0.000000
      0.437500       0.479167       0.000000
      0.416667       0.479167       0.000000
      0.437500       0.479167       0.000000
      0.437500       0.500000       0.000000
      0.416667       0.500000       0.000000
      0.437500       0.479167       0.000000
      0.458333       0.479167       0.000000
      0.458333       0.500000       0.000000
      0.437500       0.500000       0.000000
[...]
POINT_DATA  1188
VECTORS U float 
      0.000000       0.000000       0.000000
      0.000000       0.000000       0.000000
      0.000508       0.000017       0.000000
      0.000504       0.000000       0.000000
      0.000000       0.000000       0.000000
      0.000000       0.000000       0.000000
      0.000522       0.000036       0.000000
      0.000508       0.000017       0.000000
      0.000504       0.000000       0.000000
      0.000508       0.000017       0.000000
      0.000949       0.000026       0.000000
      0.000939       0.000000       0.000000
      0.000508       0.000017       0.000000
      0.000522       0.000036       0.000000
      0.000977       0.000058       0.000000
      0.000949       0.000026       0.000000
      0.000000       0.000000       0.000000
      0.000000       0.000000       0.000000
      0.000540       0.000059       0.000000
      0.000522       0.000036       0.000000
      0.000000       0.000000       0.000000
      0.000000       0.000000       0.000000
      0.000556       0.000085       0.000000
      0.000540       0.000059       0.000000
      0.000522       0.000036       0.000000
      0.000540       0.000059       0.000000
      0.001018       0.000100       0.000000
      0.000977       0.000058       0.000000
      0.000540       0.000059       0.000000
      0.000556       0.000085       0.000000
      0.001064       0.000155       0.000000
      0.001018       0.000100       0.000000
      0.000000       0.000000       0.000000
      0.000000       0.000000       0.000000
      0.000564       0.000111       0.000000
      0.000556       0.000085       0.000000
      0.000000       0.000000       0.000000
      0.000000       0.000000       0.000000
      0.000562       0.000124       0.000000
      0.000564       0.000111       0.000000
      0.000556       0.000085       0.000000
      0.000564       0.000111       0.000000
      0.001103       0.000214       0.000000
      0.001064       0.000155       0.000000
      0.000564       0.000111       0.000000
      0.000562       0.000124       0.000000
      0.001124       0.000250       0.000000
      0.001103       0.000214       0.000000
      0.000939       0.000000       0.000000
      0.000949       0.000026       0.000000
      0.001307       0.000027       0.000000
      0.001292       0.000000       0.000000
      0.000949       0.000026       0.000000
      0.000977       0.000058       0.000000
      0.001351       0.000063       0.000000
      0.001307       0.000027       0.000000
      0.001292       0.000000       0.000000
      0.001307       0.000027       0.000000
      0.001570       0.000019       0.000000
      0.001551       0.000000       0.000000
      0.001307       0.000027       0.000000
      0.001351       0.000063       0.000000
      0.001627       0.000047       0.000000
      0.001570       0.000019       0.000000
      0.000977       0.000058       0.000000
      0.001018       0.000100       0.000000
      0.001422       0.000115       0.000000
      0.001351       0.000063       0.000000
      0.001018       0.000100       0.000000
      0.001064       0.000155       0.000000
      0.001515       0.000194       0.000000
      0.001422       0.000115       0.000000
      0.001351       0.000063       0.000000
      0.001422       0.000115       0.000000
      0.001726       0.000095       0.000000
      0.001627       0.000047       0.000000
      0.001422       0.000115       0.000000
      0.001515       0.000194       0.000000
      0.001872       0.000179       0.000000
      0.001726       0.000095       0.000000
      0.001064       0.000155       0.000000
      0.001103       0.000214       0.000000
      0.001613       0.000295       0.000000
      0.001515       0.000194       0.000000
      0.001103       0.000214       0.000000
      0.001124       0.000250       0.000000
      0.001686       0.000370       0.000000
      0.001613       0.000295       0.000000
      0.001515       0.000194       0.000000
      0.001613       0.000295       0.000000
      0.002066       0.000322       0.000000
      0.001872       0.000179       0.000000
      0.001613       0.000295       0.000000
      0.001686       0.000370       0.000000
      0.002251       0.000481       0.000000
      0.002066       0.000322       0.000000
      0.001551       0.000000       0.000000
      0.001570       0.000019       0.000000
      0.001729       0.000005       0.000000
      0.001709       0.000000       0.000000
      0.001570       0.000019       0.000000
      0.001627       0.000047       0.000000
      0.001791       0.000017       0.000000
      0.001729       0.000005       0.000000
      0.001709       0.000000       0.000000
      0.001729       0.000005       0.000000
      0.001786      -0.000012       0.000000
      0.001768       0.000000       0.000000
      0.001729       0.000005       0.000000
      0.001791       0.000017       0.000000
      0.001842      -0.000017       0.000000
      0.001786      -0.000012       0.000000
      0.001627       0.000047       0.000000
      0.001726       0.000095       0.000000
      0.001899       0.000047       0.000000
      0.001791       0.000017       0.000000
      0.001726       0.000095       0.000000
      0.001872       0.000179       0.000000
      0.002067       0.000106       0.000000
      0.001899       0.000047       0.000000
      0.001791       0.000017       0.000000
      0.001899       0.000047       0.000000
      0.001938      -0.000008       0.000000
      0.001842      -0.000017       0.000000
      0.001899       0.000047       0.000000
      0.002067       0.000106       0.000000
      0.002079       0.000025       0.000000
      0.001938      -0.000008       0.000000
      0.001872       0.000179       0.000000
      0.001964       0.000242       0.000000
      0.002105       0.000209       0.000000
      0.001994       0.000148       0.000000
      0.001964       0.000242       0.000000
      0.002066       0.000322       0.000000
      0.002239       0.000296       0.000000
      0.002105       0.000209       0.000000
      0.001994       0.000148       0.000000
      0.002105       0.000209       0.000000
      0.002183       0.000156       0.000000
      0.002067       0.000106       0.000000
      0.002105       0.000209       0.000000
      0.002239       0.000296       0.000000
      0.002334       0.000234       0.000000
      0.002183       0.000156       0.000000
      0.002066       0.000322       0.000000
      0.002166       0.000413       0.000000
      0.002389       0.000416       0.000000
      0.002239       0.000296       0.000000
      0.002166       0.000413       0.000000
      0.002251       0.000481       0.000000
      0.002531       0.000531       0.000000
      0.002389       0.000416       0.000000
      0.002239       0.000296       0.000000
      0.002389       0.000416       0.000000
      0.002538       0.000369       0.000000
      0.002334       0.000234       0.000000
      0.002389       0.000416       0.000000
      0.002531       0.000531       0.000000
      0.002792       0.000571       0.000000
      0.002538       0.000369       0.000000
      0.002067       0.000106       0.000000
      0.002183       0.000156       0.000000
      0.002194       0.000100       0.000000
      0.002091       0.000063       0.000000
      0.002183       0.000156       0.000000
      0.002334       0.000234       0.000000
      0.002321       0.000156       0.000000
      0.002194       0.000100       0.000000
      0.002091       0.000063       0.000000
      0.002194       0.000100       0.000000
      0.002163       0.000056       0.000000
      0.002079       0.000025       0.000000
      0.002194       0.000100       0.000000
      0.002321       0.000156       0.000000
      0.002248       0.000106       0.000000
      0.002163       0.000056       0.000000
      0.002334       0.000234       0.000000
      0.002428       0.000292       0.000000
      0.002434       0.000246       0.000000
      0.002341       0.000194       0.000000
      0.002428       0.000292       0.000000
      0.002538       0.000369       0.000000
      0.002550       0.000319       0.000000
      0.002434       0.000246       0.000000
      0.002341       0.000194       0.000000
      0.002434       0.000246       0.000000
      0.002400       0.000199       0.000000
      0.002321       0.000156       0.000000
      0.002434       0.000246       0.000000
      0.002550       0.000319       0.000000
      0.002498       0.000261       0.000000
      0.002400       0.000199       0.000000
      0.002538       0.000369       0.000000
      0.002663       0.000469       0.000000
      0.002701       0.000430       0.000000
      0.002550       0.000319       0.000000
      0.002663       0.000469       0.000000
      0.002792       0.000571       0.000000
      0.002898       0.000577       0.000000
      0.002701       0.000430       0.000000
      0.002550       0.000319       0.000000
      0.002701       0.000430       0.000000
      0.002641       0.000361       0.000000
      0.002498       0.000261       0.000000
      0.002321       0.000156       0.000000
      0.002400       0.000199       0.000000
      0.002341       0.000165       0.000000
      0.002285       0.000127       0.000000
      0.002400       0.000199       0.000000
      0.002498       0.000261       0.000000
      0.002401       0.000219       0.000000
      0.002341       0.000165       0.000000
      0.002285       0.000127       0.000000
      0.002341       0.000165       0.000000
      0.002285       0.000145       0.000000
      0.002248       0.000106       0.000000
      0.002341       0.000165       0.000000
      0.002401       0.000219       0.000000
      0.002314       0.000200       0.000000
      0.002285       0.000145       0.000000
      0.002498       0.000261       0.000000
      0.002561       0.000304       0.000000
      0.002502       0.000276       0.000000
      0.002452       0.000237       0.000000
      0.002561       0.000304       0.000000
      0.002641       0.000361       0.000000
      0.002565       0.000325       0.000000
      0.002502       0.000276       0.000000
      0.002452       0.000237       0.000000
      0.002502       0.000276       0.000000
      0.002435       0.000256       0.000000
      0.002401       0.000219       0.000000
      0.002502       0.000276       0.000000
      0.002565       0.000325       0.000000
      0.002474       0.000302       0.000000
      0.002435       0.000256       0.000000
      0.002641       0.000361       0.000000
      0.002755       0.000437       0.000000
      0.002659       0.000392       0.000000
      0.002565       0.000325       0.000000
      0.002755       0.000437       0.000000
      0.002931       0.000545       0.000000
      0.002857       0.000495       0.000000
      0.002659       0.000392       0.000000
      0.002565       0.000325       0.000000
      0.002659       0.000392       0.000000
      0.002526       0.000361       0.000000
      0.002474       0.000302       0.000000
      0.002659       0.000392       0.000000
      0.002857       0.000495       0.000000
      0.002646       0.000449       0.000000
      0.002526       0.000361       0.000000
      0.002401       0.000219       0.000000
      0.002435       0.000256       0.000000
      0.002374       0.000244       0.000000
      0.002354       0.000207       0.000000
      0.002435       0.000256       0.000000
      0.002474       0.000302       0.000000
      0.002393       0.000290       0.000000
      0.002374       0.000244       0.000000
      0.002354       0.000207       0.000000
      0.002374       0.000244       0.000000
      0.002326       0.000239       0.000000
      0.002314       0.000200       0.000000
      0.002374       0.000244       0.000000
      0.002393       0.000290       0.000000
      0.002337       0.000288       0.000000
      0.002326       0.000239       0.000000
      0.002474       0.000302       0.000000
      0.002526       0.000361       0.000000
      0.002415       0.000347       0.000000
      0.002393       0.000290       0.000000
      0.002526       0.000361       0.000000
      0.002646       0.000449       0.000000
      0.002355       0.000388       0.000000
      0.002415       0.000347       0.000000
      0.002393       0.000290       0.000000
      0.002415       0.000347       0.000000
      0.002374       0.000354       0.000000
      0.002337       0.000288       0.000000
      0.002415       0.000347       0.000000
      0.002355       0.000388       0.000000
      0.006451       0.000495       0.000000
      0.002374       0.000354       0.000000
      0.002701       0.000430       0.000000
      0.002794       0.000502       0.000000
      0.002795       0.000476       0.000000
      0.002687       0.000398       0.000000
      0.002794       0.000502       0.000000
      0.002898       0.000577       0.000000
      0.002930       0.000569       0.000000
      0.002795       0.000476       0.000000
      0.002687       0.000398       0.000000
      0.002795       0.000476       0.000000
      0.002755       0.000437       0.000000
      0.002641       0.000361       0.000000
      0.002795       0.000476       0.000000
      0.002930       0.000569       0.000000
      0.002931       0.000545       0.000000
      0.002755       0.000437       0.000000
      0.000000       0.000000       0.000000
      0.000000       0.000000       0.000000
      0.000557       0.000117       0.000000
      0.000562       0.000124       0.000000
      0.000000       0.000000       0.000000
      0.000000       0.000000       0.000000
      0.000560       0.000091       0.000000
      0.000557       0.000117       0.000000
      0.000562       0.000124       0.000000
      0.000557       0.000117       0.000000
      0.001138       0.000232       0.000000
      0.001124       0.000250       0.000000
      0.000557       0.000117       0.000000
      0.000560       0.000091       0.000000
      0.001167       0.000170       0.000000
      0.001138       0.000232       0.000000
      0.000000       0.000000       0.000000
      0.000000       0.000000       0.000000
      0.000574       0.000060       0.000000
      0.000560       0.000091       0.000000
      0.000000       0.000000       0.000000
      0.000000       0.000000       0.000000
      0.000594       0.000034       0.000000
      0.000574       0.000060       0.000000
      0.000560       0.000091       0.000000
      0.000574       0.000060       0.000000
      0.001212       0.000103       0.000000
      0.001167       0.000170       0.000000
      0.000574       0.000060       0.000000
      0.000594       0.000034       0.000000
      0.001258       0.000052       0.000000
      0.001212       0.000103       0.000000
      0.000000       0.000000       0.000000
      0.000000       0.000000       0.000000
      0.000610       0.000015       0.000000
      0.000594       0.000034       0.000000
      0.000000       0.000000       0.000000
      0.000000       0.000000       0.000000
      0.000616       0.000000       0.000000
      0.000610       0.000015       0.000000
      0.000594       0.000034       0.000000
      0.000610       0.000015       0.000000
      0.001291       0.000021       0.000000
      0.001258       0.000052       0.000000
      0.000610       0.000015       0.000000
      0.000616       0.000000       0.000000
      0.001303       0.000000       0.000000
      0.001291       0.000021       0.000000
      0.001124       0.000250       0.000000
      0.001138       0.000232       0.000000
      0.001746       0.000335       0.000000
      0.001686       0.000370       0.000000
      0.001138       0.000232       0.000000
      0.001167       0.000170       0.000000
      0.001830       0.000220       0.000000
      0.001746       0.000335       0.000000
      0.001686       0.000370       0.000000
      0.001746       0.000335       0.000000
      0.002406       0.000410       0.000000
      0.002251       0.000481       0.000000
      0.001746       0.000335       0.000000
      0.001830       0.000220       0.000000
      0.002601       0.000210       0.000000
      0.002406       0.000410       0.000000
      0.001167       0.000170       0.000000
      0.001212       0.000103       0.000000
      0.001928       0.000114       0.000000
      0.001830       0.000220       0.000000
      0.001212       0.000103       0.000000
      0.001258       0.000052       0.000000
      0.002011       0.000048       0.000000
      0.001928       0.000114       0.000000
      0.001830       0.000220       0.000000
      0.001928       0.000114       0.000000
      0.002770       0.000079       0.000000
      0.002601       0.000210       0.000000
      0.001928       0.000114       0.000000
      0.002011       0.000048       0.000000
      0.002882       0.000018       0.000000
      0.002770       0.000079       0.000000
      0.001258       0.000052       0.000000
      0.001291       0.000021       0.000000
      0.002063       0.000016       0.000000
      0.002011       0.000048       0.000000
      0.001291       0.000021       0.000000
      0.001303       0.000000       0.000000
      0.002080       0.000000       0.000000
      0.002063       0.000016       0.000000
      0.002011       0.000048       0.000000
      0.002063       0.000016       0.000000
      0.002943      -0.000000       0.000000
      0.002882       0.000018       0.000000
      0.002063       0.000016       0.000000
      0.002080       0.000000       0.000000
      0.002962       0.000000       0.000000
      0.002943      -0.000000       0.000000
      0.002601       0.000210       0.000000
      0.002770       0.000079       0.000000
      0.003811       0.000011       0.000000
      0.003643       0.000114       0.000000
      0.002770       0.000079       0.000000
      0.002882       0.000018       0.000000
      0.003894      -0.000020       0.000000
      0.003811       0.000011       0.000000
      0.003643       0.000114       0.000000
      0.003811       0.000011       0.000000
      0.005029      -0.000014       0.000000
      0.005081       0.000059       0.000000
      0.003811       0.000011       0.000000
      0.003894      -0.000020       0.000000
      0.005005      -0.000033       0.000000
      0.005029      -0.000014       0.000000
      0.002882       0.000018       0.000000
      0.002943      -0.000000       0.000000
      0.003935      -0.000018       0.000000
      0.003894      -0.000020       0.000000
      0.002943      -0.000000       0.000000
      0.002962       0.000000       0.000000
      0.003947       0.000000       0.000000
      0.003935      -0.000018       0.000000
      0.003894      -0.000020       0.000000
      0.003935      -0.000018       0.000000
      0.004994      -0.000023       0.000000
      0.005005      -0.000033       0.000000
      0.003935      -0.000018       0.000000
      0.003947       0.000000       0.000000
      0.004991       0.000000       0.000000
      0.004994      -0.000023       0.000000
      0.002251       0.000481       0.000000
      0.002325       0.000481       0.000000
      0.002652       0.000535       0.000000
      0.002531       0.000531       0.000000
      0.002325       0.000481       0.000000
      0.002406       0.000410       0.000000
      0.002790       0.000418       0.000000
      0.002652       0.000535       0.000000
      0.002531       0.000531       0.000000
      0.002652       0.000535       0.000000
      0.003041       0.000576       0.000000
      0.002792       0.000571       0.000000
      0.002652       0.000535       0.000000
      0.002790       0.000418       0.000000
      0.003296       0.000378       0.000000