# vtk DataFile Version 2.0
time_10.vtk
ASCII
DATASET UNSTRUCTURED_GRID
POINTS  1932 float
      0.000000       0.000000       0.000000
      0.083333       0.000000       0.000000
      0.083333       0.083333       0.000000
      0.000000       0.083333       0.000000
      0.083333       0.000000       0.000000
      0.166667       0.000000       0.000000
      0.166667       0.083333       0.000000
      0.083333       0.083333       0.000000
      0.000000       0.083333       0.000000
      0.083333       0.083333       0.000000
      0.083333       0.166667       0.000000
      0.000000       0.166667       0.000000
      0.083333       0.083333       0.000000
      0.166667       0.083333       0.000000
      0.166667       0.166667       0.000000
      0.083333       0.166667       0.000000
      0.166667       0.000000       0.000000
      0.250000       0.000000       0.000000
      0.250000       0.083333       0.000000
      0.166667       0.083333       0.000000
      0.250000       0.000000       0.000000
      0.333333       0.000000       0.000000
      0.333333       0.083333       0.000000
      0.250000       0.083333       0.000000
      0.166667       0.083333       0.000000
      0.250000       0.083333       0.000000
      0.250000       0.166667       0.000000
      0.166667       0.166667       0.000000
      0.250000       0.083333       0.000000
      0.333333       0.083333       0.000000
      0.333333       0.166667       0.000000
      0.250000       0.166667       0.000000
      0.333333       0.000000       0.000000
      0.416667       0.000000       0.000000
      0.416667       0.083333       0.000000
      0.333333       0.083333       0.000000
      0.416667       0.000000       0.000000
      0.500000       0.000000       0.000000
      0.500000       0.083333       0.000000
      0.416667       0.083333       0.000000
      0.333333       0.083333       0.000000
      0.416667       0.083333       0.000000
      0.416667       0.166667       0.000000
      0.333333       0.166667       0.000000
      0.416667       0.083333       0.000000
      0.500000       0.083333       0.000000
      0.500000       0.166667       0.000000
      0.416667       0.166667       0.000000
      0.000000       0.166667       0.000000
      0.083333       0.166667       0.000000
      0.083333       0.250000       0.000000
      0.000000       0.250000       0.000000
      0.083333       0.166667       0.000000
      0.166667       0.166667       0.000000
      0.166667       0.250000       0.000000
      0.083333       0.250000       0.000000
      0.000000       0.250000       0.000000
      0.083333       0.250000       0.000000
      0.083333       0.333333       0.000000
      0.000000       0.333333       0.000000
      0.083333       0.250000       0.000000
      0.166667       0.250000       0.000000
      0.166667       0.333333       0.000000
      0.083333       0.333333       0.000000
      0.166667       0.166667       0.000000
      0.250000       0.166667       0.000000
      0.250000       0.250000       0.000000
      0.166667       0.250000       0.000000
      0.250000       0.166667       0.000000
      0.333333       0.166667       0.000000
      0.333333       0.250000       0.000000
      0.250000       0.250000       0.000000
      0.166667       0.250000       0.000000
      0.250000       0.250000       0.000000
      0.250000       0.333333       0.000000
      0.166667       0.333333       0.000000
      0.250000       0.250000       0.000000
      0.333333       0.250000       0.000000
      0.333333       0.333333       0.000000
      0.250000       0.333333       0.000000
      0.333333       0.166667       0.000000
      0.416667       0.166667       0.000000
      0.416667       0.250000       0.000000
      0.333333       0.250000       0.000000
      0.416667       0.166667       0.000000
      0.500000       0.166667       0.000000
      0.500000       0.250000       0.000000
      0.416667       0.250000       0.000000
      0.333333       0.250000       0.000000
      0.416667       0.250000       0.000000
      0.416667       0.333333       0.000000
      0.333333       0.333333       0.000000
      0.000000       0.333333       0.000000
      0.083333       0.333333       0.000000
      0.083333       0.416667       0.000000
      0.000000       0.416667       0.000000
      0.083333       0.333333       0.000000
      0.166667       0.333333       0.000000
      0.166667       0.416667       0.000000
      0.083333       0.416667       0.000000
      0.000000       0.416667       0.000000
      0.083333       0.416667       0.000000
      0.083333       0.500000       0.000000
      0.000000       0.500000       0.000000
      0.083333       0.416667       0.000000
      0.166667       0.416667       0.000000
      0.166667       0.500000       0.000000
      0.083333       0.500000       0.000000
      0.166667       0.333333       0.000000
      0.250000       0.333333       0.000000
      0.250000       0.416667       0.000000
      0.166667       0.416667       0.000000
      0.250000       0.333333       0.000000
      0.333333       0.333333       0.000000
      0.333333       0.416667       0.000000
      0.250000       0.416667       0.000000
      0.166667       0.416667       0.000000
      0.250000       0.416667       0.000000
      0.250000       0.500000       0.000000
      0.166667       0.500000       0.000000
      0.250000       0.416667       0.000000
      0.333333       0.416667       0.000000
      0.333333       0.500000       0.000000
      0.250000       0.500000       0.000000
      0.333333       0.333333       0.000000
      0.375000       0.333333       0.000000
      0.375000       0.375000       0.000000
      0.333333       0.375000       0.000000
      0.375000       0.333333       0.000000
      0.416667       0.333333       0.000000
      0.416667       0.375000       0.000000
      0.375000       0.375000       0.000000
      0.333333       0.375000       0.000000
      0.375000       0.375000       0.000000
      0.375000       0.416667       0.000000
      0.333333       0.416667       0.000000
      0.375000       0.375000       0.000000
      0.416667       0.375000       0.000000
      0.416667       0.416667       0.000000
      0.375000       0.416667       0.000000
      0.416667       0.333333       0.000000
      0.458333       0.333333       0.000000
      0.458333       0.375000       0.000000
      0.416667       0.375000       0.000000
      0.416667       0.375000       0.000000
      0.458333       0.375000       0.000000
      0.458333       0.416667       0.000000
      0.416667       0.416667       0.000000
      0.333333       0.416667       0.000000
      0.375000       0.416667       0.000000
      0.375000       0.458333       0.000000
      0.333333       0.458333       0.000000
      0.375000       0.416667       0.000000
      0.416667       0.416667       0.000000
      0.416667       0.458333       0.000000
      0.375000       0.458333       0.000000
      0.333333       0.458333       0.000000
      0.375000       0.458333       0.000000
      0.375000       0.500000       0.000000
      0.333333       0.500000       0.000000
      0.375000       0.458333       0.000000
      0.416667       0.458333       0.000000
      0.416667       0.500000       0.000000
      0.375000       0.500000       0.000000
      0.416667       0.416667       0.000000
      0.437500       0.416667       0.000000
      0.437500       0.437500       0.000000
      0.416667       0.437500       0.000000
      0.437500       0.416667       0.000000
      0.458333       0.416667       0.000000
      0.458333       0.437500       0.000000
      0.437500       0.437500       0.000000
      0.416667       0.437500       0.000000
      0.437500       0.437500       0.000000
      0.437500       0.458333       0.000000
      0.416667       0.458333       0.000000
      0.437500       0.437500       0.000000
      0.458333       0.437500       0.000000
      0.458333       0.458333       0.000000
      0.437500       0.458333       0.000000
      0.458333       0.416667       0.000000
      0.479167       0.416667       0.000000
      0.479167       0.437500       0.000000
      0.458333       0.437500       0.000000
      0.416667       0.458333       0.000000
      0.437500       0.458333       0.000000
      0.437500       0.479167       0.000000
      0.416667       0.479167       0.000000
      0.437500       0.458333       0.000000
      0.458333       0.458333       0.000000
      0.458333       0.479167       0.000000
      0.437500       0.479167       0.000000
      0.416667       0.479167       0.000000
      0.437500       0.479167       0.000000
      0.437500       0.500000       0.000000
      0.416667       0.500000       0.000000
      0.437500       0.479167       0.000000
      0.458333       0.479167       0.000000
      0.458333       0.500000       0.000000
      0.437500       0.500000       0.000000
      0.458333       0.458333       0.000000
      0.468750       0.458333       0.000000
      0.468750       0.468750       0.000000
      0.458333       0.468750       0.000000
      0.468750       0.458333       0.000000
      0.479167       0.458333       0.000000
      0.479167       0.468750       0.000000
      0.468750       0.468750       0.000000
      0.458333       0.468750       0.000000
      0.468750       0.468750       0.000000
      0.468750       0.479167       0.000000
      0.458333       0.479167       0.000000
      0.468750       0.468750       0.000000
      0.479167       0.468750       0.000000
      0.479167       0.479167       0.000000
      0.468750       0.479167       0.000000
      0.479167       0.458333       0.000000
      0.489583       0.458333       0.000000
      0.489583       0.468750       0.000000
      0.479167       0.468750       0.000000
[...]
POINT_DATA  1932
VECTORS U float 
      0.000000       0.000000       0.000000
      0.000000       0.000000       0.000000
      0.000354       0.000004       0.000000
      0.000345       0.000000       0.000000
      0.000000       0.000000       0.000000
      0.000000       0.000000       0.000000
      0.000380       0.000011       0.000000
      0.000354       0.000004       0.000000
      0.000345       0.000000       0.000000
      0.000354       0.000004       0.000000
      0.000650      -0.000003       0.000000
      0.000636       0.000000       0.000000
      0.000354       0.000004       0.000000
      0.000380       0.000011       0.000000
      0.000692      -0.000001       0.000000
      0.000650      -0.000003       0.000000
      0.000000       0.000000       0.000000
      0.000000       0.000000       0.000000
      0.000423       0.000025       0.000000
      0.000380       0.000011       0.000000
      0.000000       0.000000       0.000000
      0.000000       0.000000       0.000000
      0.000478       0.000053       0.000000
      0.000423       0.000025       0.000000
      0.000380       0.000011       0.000000
      0.000423       0.000025       0.000000
      0.000763       0.000017       0.000000
      0.000692      -0.000001       0.000000
      0.000423       0.000025       0.000000
      0.000478       0.000053       0.000000
      0.000863       0.000062       0.000000
      0.000763       0.000017       0.000000
      0.000000       0.000000       0.000000
      0.000000       0.000000       0.000000
      0.000534       0.000099       0.000000
      0.000478       0.000053       0.000000
      0.000000       0.000000       0.000000
      0.000000       0.000000       0.000000
      0.000569       0.000155       0.000000
      0.000534       0.000099       0.000000
      0.000478       0.000053       0.000000
      0.000534       0.000099       0.000000
      0.000982       0.000152       0.000000
      0.000863       0.000062       0.000000
      0.000534       0.000099       0.000000
      0.000569       0.000155       0.000000
      0.001092       0.000287       0.000000
      0.000982       0.000152       0.000000
      0.000636       0.000000       0.000000
      0.000650      -0.000003       0.000000
      0.000873      -0.000017       0.000000
      0.000857       0.000000       0.000000
      0.000650      -0.000003       0.000000
      0.000692      -0.000001       0.000000
      0.000920      -0.000026       0.000000
      0.000873      -0.000017       0.000000
      0.000857       0.000000       0.000000
      0.000873      -0.000017       0.000000
      0.001023      -0.000031       0.000000
      0.001010       0.000000       0.000000
      0.000873      -0.000017       0.000000
      0.000920      -0.000026       0.000000
      0.001063      -0.000056       0.000000
      0.001023      -0.000031       0.000000
      0.000692      -0.000001       0.000000
      0.000763       0.000017       0.000000
      0.001002      -0.000019       0.000000
      0.000920      -0.000026       0.000000
      0.000763       0.000017       0.000000
      0.000863       0.000062       0.000000
      0.001127       0.000024       0.000000
      0.001002      -0.000019       0.000000
      0.000920      -0.000026       0.000000
      0.001002      -0.000019       0.000000
      0.001133      -0.000064       0.000000
      0.001063      -0.000056       0.000000
      0.001002      -0.000019       0.000000
      0.001127       0.000024       0.000000
      0.001242      -0.000039       0.000000
      0.001133      -0.000064       0.000000
      0.000863       0.000062       0.000000
      0.000982       0.000152       0.000000
      0.001306       0.000133       0.000000
      0.001127       0.000024       0.000000
      0.000982       0.000152       0.000000
      0.001092       0.000287       0.000000
      0.001542       0.000354       0.000000
      0.001306       0.000133       0.000000
      0.001127       0.000024       0.000000
      0.001306       0.000133       0.000000
      0.001405       0.000046       0.000000
      0.001242      -0.000039       0.000000
      0.001010       0.000000       0.000000
      0.001023      -0.000031       0.000000
      0.001114      -0.000042       0.000000
      0.001106       0.000000       0.000000
      0.001023      -0.000031       0.000000
      0.001063      -0.000056       0.000000
      0.001138      -0.000078       0.000000
      0.001114      -0.000042       0.000000
      0.001106       0.000000       0.000000
      0.001114      -0.000042       0.000000
      0.001169      -0.000047       0.000000
      0.001166       0.000000       0.000000
      0.001114      -0.000042       0.000000
      0.001138      -0.000078       0.000000
      0.001177      -0.000087       0.000000
      0.001169      -0.000047       0.000000
      0.001063      -0.000056       0.000000
      0.001133      -0.000064       0.000000
      0.001178      -0.000098       0.000000
      0.001138      -0.000078       0.000000
      0.001133      -0.000064       0.000000
      0.001242      -0.000039       0.000000
      0.001233      -0.000085       0.000000
      0.001178      -0.000098       0.000000
      0.001138      -0.000078       0.000000
      0.001178      -0.000098       0.000000
      0.001186      -0.000110       0.000000
      0.001177      -0.000087       0.000000
      0.001178      -0.000098       0.000000
      0.001233      -0.000085       0.000000
      0.001185      -0.000097       0.000000
      0.001186      -0.000110       0.000000
      0.001242      -0.000039       0.000000
      0.001314      -0.000007       0.000000
      0.001302      -0.000039       0.000000
      0.001248      -0.000066       0.000000
      0.001314      -0.000007       0.000000
      0.001405       0.000046       0.000000
      0.001364       0.000008       0.000000
      0.001302      -0.000039       0.000000
      0.001248      -0.000066       0.000000
      0.001302      -0.000039       0.000000
      0.001265      -0.000058       0.000000
      0.001233      -0.000085       0.000000
      0.001302      -0.000039       0.000000
      0.001364       0.000008       0.000000
      0.001298      -0.000011       0.000000
      0.001265      -0.000058       0.000000
      0.001405       0.000046       0.000000
      0.001522       0.000127       0.000000
      0.001436       0.000080       0.000000
      0.001364       0.000008       0.000000
      0.001364       0.000008       0.000000
      0.001436       0.000080       0.000000
      0.001327       0.000063       0.000000
      0.001298      -0.000011       0.000000
      0.001233      -0.000085       0.000000
      0.001265      -0.000058       0.000000
      0.001221      -0.000066       0.000000
      0.001209      -0.000095       0.000000
      0.001265      -0.000058       0.000000
      0.001298      -0.000011       0.000000
      0.001232      -0.000016       0.000000
      0.001221      -0.000066       0.000000
      0.001209      -0.000095       0.000000
      0.001221      -0.000066       0.000000
      0.001179      -0.000067       0.000000
      0.001185      -0.000097       0.000000
      0.001221      -0.000066       0.000000
      0.001232      -0.000016       0.000000
      0.001169      -0.000015       0.000000
      0.001179      -0.000067       0.000000
      0.001298      -0.000011       0.000000
      0.001313       0.000022       0.000000
      0.001273       0.000020       0.000000
      0.001264      -0.000014       0.000000
      0.001313       0.000022       0.000000
      0.001327       0.000063       0.000000
      0.001280       0.000062       0.000000
      0.001273       0.000020       0.000000
      0.001264      -0.000014       0.000000
      0.001273       0.000020       0.000000
      0.001236       0.000019       0.000000
      0.001232      -0.000016       0.000000
      0.001273       0.000020       0.000000
      0.001280       0.000062       0.000000
      0.001239       0.000061       0.000000
      0.001236       0.000019       0.000000
      0.001327       0.000063       0.000000
      0.001339       0.000114       0.000000
      0.001286       0.000112       0.000000
      0.001280       0.000062       0.000000
      0.001232      -0.000016       0.000000
      0.001236       0.000019       0.000000
      0.001201       0.000019       0.000000
      0.001201      -0.000016       0.000000
      0.001236       0.000019       0.000000
      0.001239       0.000061       0.000000
      0.001202       0.000060       0.000000
      0.001201       0.000019       0.000000
      0.001201      -0.000016       0.000000
      0.001201       0.000019       0.000000
      0.001165       0.000020       0.000000
      0.001169      -0.000015       0.000000
      0.001201       0.000019       0.000000
      0.001202       0.000060       0.000000
      0.001163       0.000060       0.000000
      0.001165       0.000020       0.000000
      0.001239       0.000061       0.000000
      0.001241       0.000084       0.000000
      0.001222       0.000083       0.000000
      0.001220       0.000060       0.000000
      0.001241       0.000084       0.000000
      0.001243       0.000109       0.000000
      0.001224       0.000107       0.000000
      0.001222       0.000083       0.000000
      0.001220       0.000060       0.000000
      0.001222       0.000083       0.000000
      0.001203       0.000083       0.000000
      0.001202       0.000060       0.000000
      0.001222       0.000083       0.000000
      0.001224       0.000107       0.000000
      0.001205       0.000106       0.000000
      0.001203       0.000083       0.000000
      0.001243       0.000109       0.000000
      0.001246       0.000136       0.000000
      0.001227       0.000134       0.000000
      0.001224       0.000107       0.000000
      0.001246       0.000136       0.000000
      0.001252       0.000166       0.000000
      0.001235       0.000170       0.000000
      0.001227       0.000134       0.000000
      0.001224       0.000107       0.000000
      0.001227       0.000134       0.000000
      0.001209       0.000130       0.000000
      0.001205       0.000106       0.000000
      0.001227       0.000134       0.000000
      0.001235       0.000170       0.000000
      0.001205       0.000172       0.000000
      0.001209       0.000130       0.000000
      0.001202       0.000060       0.000000
      0.001203       0.000083       0.000000
      0.001184       0.000082       0.000000
      0.001183       0.000060       0.000000
      0.001203       0.000083       0.000000
      0.001205       0.000106       0.000000
      0.001186       0.000103       0.000000
      0.001184       0.000082       0.000000
      0.001183       0.000060       0.000000
      0.001184       0.000082       0.000000
      0.001165       0.000082       0.000000
      0.001163       0.000060       0.000000
      0.001184       0.000082       0.000000
      0.001186       0.000103       0.000000
      0.001171       0.000106       0.000000
      0.001165       0.000082       0.000000
      0.001205       0.000106       0.000000
      0.001209       0.000130       0.000000
      0.001189       0.000122       0.000000
      0.001186       0.000103       0.000000
      0.001209       0.000130       0.000000
      0.001205       0.000172       0.000000
      0.000910       0.000135       0.000000
      0.001189       0.000122       0.000000
      0.001186       0.000103       0.000000
      0.001189       0.000122       0.000000
      0.001221       0.000138       0.000000
      0.001171       0.000106       0.000000
      0.001189       0.000122       0.000000
      0.000910       0.000135       0.000000
      0.008128       0.000778       0.000000
      0.001221       0.000138       0.000000
      0.001286       0.000112       0.000000
      0.001290       0.000141       0.000000
      0.001267       0.000139       0.000000
      0.001264       0.000111       0.000000
      0.001290       0.000141       0.000000
      0.001294       0.000173       0.000000
      0.001271       0.000170       0.000000
      0.001267       0.000139       0.000000
      0.001264       0.000111       0.000000
      0.001267       0.000139       0.000000
      0.001246       0.000136       0.000000
      0.001243       0.000109       0.000000
      0.001267       0.000139       0.000000
      0.001271       0.000170       0.000000
      0.001252       0.000166       0.000000
      0.001246       0.000136       0.000000
      0.001436       0.000080       0.000000
      0.001477       0.000130       0.000000
      0.001404       0.000119       0.000000
      0.001380       0.000069       0.000000
      0.001380       0.000069       0.000000
      0.001404       0.000119       0.000000
      0.001339       0.000114       0.000000
      0.001327       0.000063       0.000000
      0.001339       0.000114       0.000000
      0.001345       0.000144       0.000000
      0.001316       0.000143       0.000000
      0.001312       0.000113       0.000000
      0.001345       0.000144       0.000000
      0.001351       0.000178       0.000000
      0.001320       0.000176       0.000000
      0.001316       0.000143       0.000000
      0.001312       0.000113       0.000000
      0.001316       0.000143       0.000000
      0.001290       0.000141       0.000000
      0.001286       0.000112       0.000000
      0.001316       0.000143       0.000000
      0.001320       0.000176       0.000000
      0.001294       0.000173       0.000000
      0.001290       0.000141       0.000000
      0.001280       0.000062       0.000000
      0.001283       0.000086       0.000000
      0.001261       0.000085       0.000000
      0.001259       0.000061       0.000000
      0.001283       0.000086       0.000000
      0.001286       0.000112       0.000000
      0.001264       0.000111       0.000000
      0.001261       0.000085       0.000000
      0.001259       0.000061       0.000000
      0.001261       0.000085       0.000000
      0.001241       0.000084       0.000000
      0.001239       0.000061       0.000000
      0.001261       0.000085       0.000000
      0.001264       0.000111       0.000000
      0.001243       0.000109       0.000000
      0.001241       0.000084       0.000000
      0.001404       0.000119       0.000000
      0.001415       0.000149       0.000000
      0.001378       0.000147       0.000000
      0.001370       0.000116       0.000000
      0.001415       0.000149       0.000000
      0.001426       0.000184       0.000000
      0.001386       0.000181       0.000000
      0.001378       0.000147       0.000000
      0.001370       0.000116       0.000000
      0.001378       0.000147       0.000000
      0.001345       0.000144       0.000000
      0.001339       0.000114       0.000000
      0.001378       0.000147       0.000000
      0.001386       0.000181       0.000000
      0.001351       0.000178       0.000000
      0.001345       0.000144       0.000000
      0.001306       0.000133       0.000000
      0.001419       0.000227       0.000000
      0.001519       0.000187       0.000000
      0.001389       0.000093       0.000000
      0.001419       0.000227       0.000000
      0.001542       0.000354       0.000000
      0.001685       0.000332       0.000000
      0.001519       0.000187       0.000000
      0.001389       0.000093       0.000000
      0.001519       0.000187       0.000000
      0.001522       0.000127       0.000000
      0.001405       0.000046       0.000000
      0.001522       0.000127       0.000000
      0.001596       0.000184       0.000000
      0.001546       0.000152       0.000000
      0.001487       0.000100       0.000000
      0.001596       0.000184       0.000000
      0.001686       0.000259       0.000000
      0.001617       0.000220       0.000000
      0.001546       0.000152       0.000000
      0.001487       0.000100       0.000000
      0.001546       0.000152       0.000000
      0.001477       0.000130       0.000000
      0.001436       0.000080       0.000000
      0.001477       0.000130       0.000000
      0.001498       0.000160       0.000000
      0.001456       0.000154       0.000000
      0.001440       0.000123       0.000000
      0.001498       0.000160       0.000000
      0.001520       0.000195       0.000000
      0.001472       0.000188       0.000000
      0.001456       0.000154       0.000000
      0.001440       0.000123       0.000000
      0.001456       0.000154       0.000000
      0.001415       0.000149       0.000000
      0.001404       0.000119       0.000000
      0.001456       0.000154       0.000000
      0.001472       0.000188       0.000000
      0.001426       0.000184       0.000000
      0.001415       0.000149       0.000000
      0.001546       0.000152       0.000000
      0.001579       0.000184       0.000000
      0.001540       0.000170       0.000000
      0.001513       0.000140       0.000000
      0.001579       0.000184       0.000000
      0.001617       0.000220       0.000000
      0.001570       0.000205       0.000000
      0.001540       0.000170       0.000000
      0.001513       0.000140       0.000000
      0.001540       0.000170       0.000000
      0.001498       0.000160       0.000000
      0.001477       0.000130       0.000000
      0.001540       0.000170       0.000000
      0.001570       0.000205       0.000000
      0.001520       0.000195       0.000000
      0.001498       0.000160       0.000000
      0.001519       0.000187       0.000000
      0.001597       0.000252       0.000000
      0.001614       0.000220       0.000000
      0.001533       0.000158       0.000000
      0.001597       0.000252       0.000000
      0.001685       0.000332       0.000000
      0.001709       0.000301       0.000000
      0.001614       0.000220       0.000000
      0.001533       0.000158       0.000000
      0.001614       0.000220       0.000000
      0.001596       0.000184       0.000000
      0.001522       0.000127       0.000000
      0.001614       0.000220       0.000000
      0.001709       0.000301       0.000000
      0.001686       0.000259       0.000000
      0.001596       0.000184       0.000000
      0.000000       0.000000       0.000000
      0.000000       0.000000       0.000000
      0.000575       0.000188       0.000000
      0.000569       0.000155       0.000000
      0.000000       0.000000       0.000000
      0.000000       0.000000       0.000000
      0.000572       0.000167       0.000000
      0.000575       0.000188       0.000000
      0.000569       0.000155       0.000000
      0.000575       0.000188       0.000000
      0.001153       0.000380       0.000000
      0.001092       0.000287       0.000000
      0.000575       0.000188       0.000000
      0.000572       0.000167       0.000000
      0.001202       0.000319       0.000000
      0.001153       0.000380       0.000000
      0.000000       0.000000       0.000000
      0.000000       0.000000       0.000000
      0.000591       0.000112       0.000000
      0.000572       0.000167       0.000000
      0.000000       0.000000       0.000000
      0.000000       0.000000       0.000000
      0.000626       0.000060       0.000000
      0.000591       0.000112       0.000000
      0.000572       0.000167       0.000000
      0.000591       0.000112       0.000000
      0.001288       0.000188       0.000000
      0.001202       0.000319       0.000000
      0.000591       0.000112       0.000000
      0.000626       0.000060       0.000000
      0.001381       0.000088       0.000000
      0.001288       0.000188       0.000000
      0.000000       0.000000       0.000000
      0.000000       0.000000       0.000000
      0.000657       0.000025       0.000000