# vtk DataFile Version 2.0
time_10.vtk
ASCII
DATASET UNSTRUCTURED_GRID
POINTS  1152 float
      0.000000       0.000000       0.000000
      0.083333       0.000000       0.000000
      0.083333       0.083333       0.000000
      0.000000       0.083333       0.000000
      0.083333       0.000000       0.000000
      0.166667       0.000000       0.000000
      0.166667       0.083333       0.000000
      0.083333       0.083333       0.000000
      0.000000       0.083333       0.000000
      0.083333       0.083333       0.000000
      0.083333       0.166667       0.000000
      0.000000       0.166667       0.000000
      0.083333       0.083333       0.000000
      0.166667       0.083333       0.000000
      0.166667       0.166667       0.000000
      0.083333       0.166667       0.000000
      0.166667       0.000000       0.000000
      0.250000       0.000000       0.000000
      0.250000       0.083333       0.000000
      0.166667       0.083333       0.000000
      0.250000       0.000000       0.000000
      0.333333       0.000000       0.000000
      0.333333       0.083333       0.000000
      0.250000       0.083333       0.000000
      0.166667       0.083333       0.000000
      0.250000       0.083333       0.000000
      0.250000       0.166667       0.000000
      0.166667       0.166667       0.000000
      0.250000       0.083333       0.000000
      0.333333       0.083333       0.000000
      0.333333       0.166667       0.000000
      0.250000       0.166667       0.000000
      0.333333       0.000000       0.000000
      0.416667       0.000000       0.000000
      0.416667       0.083333       0.000000
      0.333333       0.083333       0.000000
      0.416667       0.000000       0.000000
      0.500000       0.000000       0.000000
      0.500000       0.083333       0.000000
      0.416667       0.083333       0.000000
      0.333333       0.083333       0.000000
      0.416667       0.083333       0.000000
      0.416667       0.166667       0.000000
      0.333333       0.166667       0.000000
      0.416667       0.083333       0.000000
      0.500000       0.083333       0.000000
      0.500000       0.166667       0.000000
      0.416667       0.166667       0.000000
      0.000000       0.166667       0.000000
      0.083333       0.166667       0.000000
      0.083333       0.250000       0.000000
      0.000000       0.250000       0.000000
      0.083333       0.166667       0.000000
      0.166667       0.166667       0.000000
      0.166667       0.250000       0.000000
      0.083333       0.250000       0.000000
      0.000000       0.250000       0.000000
      0.083333       0.250000       0.000000
      0.083333       0.333333       0.000000
      0.000000       0.333333       0.000000
      0.083333       0.250000       0.000000
      0.166667       0.250000       0.000000
      0.166667       0.333333       0.000000
      0.083333       0.333333       0.000000
      0.166667       0.166667       0.000000
      0.250000       0.166667       0.000000
      0.250000       0.250000       0.000000
      0.166667       0.250000       0.000000
      0.250000       0.166667       0.000000
      0.333333       0.166667       0.000000
      0.333333       0.250000       0.000000
      0.250000       0.250000       0.000000
      0.166667       0.250000       0.000000
      0.250000       0.250000       0.000000
      0.250000       0.333333       0.000000
      0.166667       0.333333       0.000000
      0.250000       0.250000       0.000000
      0.333333       0.250000       0.000000
      0.333333       0.333333       0.000000
      0.250000       0.333333       0.000000
      0.333333       0.166667       0.000000
      0.416667       0.166667       0.000000
      0.416667       0.250000       0.000000
      0.333333       0.250000       0.000000
      0.416667       0.166667       0.000000
      0.500000       0.166667       0.000000
      0.500000       0.250000       0.000000
      0.416667       0.250000       0.000000
      0.333333       0.250000       0.000000
      0.416667       0.250000       0.000000
      0.416667       0.333333       0.000000
      0.333333       0.333333       0.000000
      0.416667       0.250000       0.000000
      0.500000       0.250000       0.000000
      0.500000       0.333333       0.000000
      0.416667       0.333333       0.000000
      0.000000       0.333333       0.000000
      0.083333       0.333333       0.000000
      0.083333       0.416667       0.000000
      0.000000       0.416667       0.000000
      0.083333       0.333333       0.000000
      0.166667       0.333333       0.000000
      0.166667       0.416667       0.000000
      0.083333       0.416667       0.000000
      0.000000       0.416667       0.000000
      0.083333       0.416667       0.000000
      0.083333       0.500000       0.000000
      0.000000       0.500000       0.000000
      0.083333       0.416667       0.000000
      0.166667       0.416667       0.000000
      0.166667       0.500000       0.000000
      0.083333       0.500000       0.000000
      0.166667       0.333333       0.000000
      0.250000       0.333333       0.000000
      0.250000       0.416667       0.000000
      0.166667       0.416667       0.000000
      0.250000       0.333333       0.000000
      0.333333       0.333333       0.000000
      0.333333       0.416667       0.000000
      0.250000       0.416667       0.000000
      0.166667       0.416667       0.000000
      0.250000       0.416667       0.000000
      0.250000       0.500000       0.000000
      0.166667       0.500000       0.000000
      0.250000       0.416667       0.000000
      0.333333       0.416667       0.000000
      0.333333       0.500000       0.000000
      0.250000       0.500000       0.000000
      0.333333       0.333333       0.000000
      0.375000       0.333333       0.000000
      0.375000       0.375000       0.000000
      0.333333       0.375000       0.000000
      0.375000       0.333333       0.000000
      0.416667       0.333333       0.000000
      0.416667       0.375000       0.000000
      0.375000       0.375000       0.000000
      0.333333       0.375000       0.000000
      0.375000       0.375000       0.000000
      0.375000       0.416667       0.000000
      0.333333       0.416667       0.000000
      0.375000       0.375000       0.000000
      0.416667       0.375000       0.000000
      0.416667       0.416667       0.000000
      0.375000       0.416667       0.000000
      0.416667       0.333333       0.000000
      0.458333       0.333333       0.000000
      0.458333       0.375000       0.000000
      0.416667       0.375000       0.000000
      0.458333       0.333333       0.000000
      0.500000       0.333333       0.000000
      0.500000       0.375000       0.000000
      0.458333       0.375000       0.000000
      0.416667       0.375000       0.000000
      0.458333       0.375000       0.000000
      0.458333       0.416667       0.000000
      0.416667       0.416667       0.000000
      0.458333       0.375000       0.000000
      0.500000       0.375000       0.000000
      0.500000       0.416667       0.000000
      0.458333       0.416667       0.000000
      0.333333       0.416667       0.000000
      0.375000       0.416667       0.000000
      0.375000       0.458333       0.000000
      0.333333       0.458333       0.000000
      0.375000       0.416667       0.000000
      0.416667       0.416667       0.000000
      0.416667       0.458333       0.000000
      0.375000       0.458333       0.000000
      0.333333       0.458333       0.000000
      0.375000       0.458333       0.000000
      0.375000       0.500000       0.000000
      0.333333       0.500000       0.000000
      0.375000       0.458333       0.000000
      0.416667       0.458333       0.000000
      0.416667       0.500000       0.000000
      0.375000       0.500000       0.000000
      0.416667       0.416667       0.000000
      0.437500       0.416667       0.000000
      0.437500       0.437500       0.000000
      0.416667       0.437500       0.000000
      0.437500       0.416667       0.000000
      0.458333       0.416667       0.000000
      0.458333       0.437500       0.000000
      0.437500       0.437500       0.000000
      0.416667       0.437500       0.000000
      0.437500       0.437500       0.000000
      0.437500       0.458333       0.000000
      0.416667       0.458333       0.000000
      0.437500       0.437500       0.000000
      0.458333       0.437500       0.000000
      0.458333       0.458333       0.000000
      0.437500       0.458333       0.000000
      0.458333       0.416667       0.000000
      0.479167       0.416667       0.000000
      0.479167       0.437500       0.000000
      0.458333       0.437500       0.000000
      0.479167       0.416667       0.000000
      0.500000       0.416667       0.000000
      0.500000       0.437500       0.000000
      0.479167       0.437500       0.000000
      0.458333       0.437500       0.000000
      0.479167       0.437500       0.000000
      0.479167       0.458333       0.000000
      0.458333       0.458333       0.000000
      0.479167       0.437500       0.000000
      0.500000       0.437500       0.000000
      0.500000       0.458333       0.000000
      0.479167       0.458333       0.000000
      0.416667       0.458333       0.000000
      0.437500       0.458333       0.000000
      0.437500       0.479167       0.000000
      0.416667       0.479167       0.000000
      0.437500       0.458333       0.000000
      0.458333       0.458333       0.000000
      0.458333       0.479167       0.000000
      0.437500       0.479167       0.000000
      0.416667       0.479167       0.000000
      0.437500       0.479167       0.000000
      0.437500       0.500000       0.000000
      0.416667       0.500000       0.000000
[...]
POINT_DATA  1152
VECTORS U float 
      0.000000       0.000000       0.000000
      0.000000       0.000000       0.000000
      0.000064       0.000003       0.000000
      0.000064       0.000000       0.000000
      0.000000       0.000000       0.000000
      0.000000       0.000000       0.000000
      0.000064       0.000006       0.000000
      0.000064       0.000003       0.000000
      0.000064       0.000000       0.000000
      0.000064       0.000003       0.000000
      0.000121       0.000005       0.000000
      0.000120       0.000000       0.000000
      0.000064       0.000003       0.000000
      0.000064       0.000006       0.000000
      0.000122       0.000010       0.000000
      0.000121       0.000005       0.000000
      0.000000       0.000000       0.000000
      0.000000       0.000000       0.000000
      0.000065       0.000008       0.000000
      0.000064       0.000006       0.000000
      0.000000       0.000000       0.000000
      0.000000       0.000000       0.000000
      0.000064       0.000010       0.000000
      0.000065       0.000008       0.000000
      0.000064       0.000006       0.000000
      0.000065       0.000008       0.000000
      0.000124       0.000016       0.000000
      0.000122       0.000010       0.000000
      0.000065       0.000008       0.000000
      0.000064       0.000010       0.000000
      0.000126       0.000020       0.000000
      0.000124       0.000016       0.000000
      0.000000       0.000000       0.000000
      0.000000       0.000000       0.000000
      0.000064       0.000011       0.000000
      0.000064       0.000010       0.000000
      0.000000       0.000000       0.000000
      0.000000       0.000000       0.000000
      0.000063       0.000010       0.000000
      0.000064       0.000011       0.000000
      0.000064       0.000010       0.000000
      0.000064       0.000011       0.000000
      0.000127       0.000022       0.000000
      0.000126       0.000020       0.000000
      0.000064       0.000011       0.000000
      0.000063       0.000010       0.000000
      0.000127       0.000021       0.000000
      0.000127       0.000022       0.000000
      0.000120       0.000000       0.000000
      0.000121       0.000005       0.000000
      0.000169       0.000007       0.000000
      0.000167       0.000000       0.000000
      0.000121       0.000005       0.000000
      0.000122       0.000010       0.000000
      0.000172       0.000014       0.000000
      0.000169       0.000007       0.000000
      0.000167       0.000000       0.000000
      0.000169       0.000007       0.000000
      0.000205       0.000007       0.000000
      0.000203       0.000000       0.000000
      0.000169       0.000007       0.000000
      0.000172       0.000014       0.000000
      0.000212       0.000014       0.000000
      0.000205       0.000007       0.000000
      0.000122       0.000010       0.000000
      0.000124       0.000016       0.000000
      0.000178       0.000022       0.000000
      0.000172       0.000014       0.000000
      0.000124       0.000016       0.000000
      0.000126       0.000020       0.000000
      0.000184       0.000029       0.000000
      0.000178       0.000022       0.000000
      0.000172       0.000014       0.000000
      0.000178       0.000022       0.000000
      0.000223       0.000023       0.000000
      0.000212       0.000014       0.000000
      0.000178       0.000022       0.000000
      0.000184       0.000029       0.000000
      0.000237       0.000034       0.000000
      0.000223       0.000023       0.000000
      0.000126       0.000020       0.000000
      0.000127       0.000022       0.000000
      0.000189       0.000033       0.000000
      0.000184       0.000029       0.000000
      0.000127       0.000022       0.000000
      0.000127       0.000021       0.000000
      0.000194       0.000030       0.000000
      0.000189       0.000033       0.000000
      0.000184       0.000029       0.000000
      0.000189       0.000033       0.000000
      0.000251       0.000042       0.000000
      0.000237       0.000034       0.000000
      0.000189       0.000033       0.000000
      0.000194       0.000030       0.000000
      0.000263       0.000038       0.000000
      0.000251       0.000042       0.000000
      0.000203       0.000000       0.000000
      0.000205       0.000007       0.000000
      0.000227       0.000005       0.000000
      0.000224       0.000000       0.000000
      0.000205       0.000007       0.000000
      0.000212       0.000014       0.000000
      0.000237       0.000011       0.000000
      0.000227       0.000005       0.000000
      0.000224       0.000000       0.000000
      0.000227       0.000005       0.000000
      0.000233       0.000002       0.000000
      0.000230       0.000000       0.000000
      0.000227       0.000005       0.000000
      0.000237       0.000011       0.000000
      0.000243       0.000005       0.000000
      0.000233       0.000002       0.000000
      0.000212       0.000014       0.000000
      0.000223       0.000023       0.000000
      0.000254       0.000019       0.000000
      0.000237       0.000011       0.000000
      0.000223       0.000023       0.000000
      0.000237       0.000034       0.000000
      0.000279       0.000031       0.000000
      0.000254       0.000019       0.000000
      0.000237       0.000011       0.000000
      0.000254       0.000019       0.000000
      0.000262       0.000010       0.000000
      0.000243       0.000005       0.000000
      0.000254       0.000019       0.000000
      0.000279       0.000031       0.000000
      0.000293       0.000017       0.000000
      0.000262       0.000010       0.000000
      0.000237       0.000034       0.000000
      0.000244       0.000039       0.000000
      0.000271       0.000040       0.000000
      0.000260       0.000034       0.000000
      0.000244       0.000039       0.000000
      0.000251       0.000042       0.000000
      0.000282       0.000044       0.000000
      0.000271       0.000040       0.000000
      0.000260       0.000034       0.000000
      0.000271       0.000040       0.000000
      0.000295       0.000038       0.000000
      0.000279       0.000031       0.000000
      0.000271       0.000040       0.000000
      0.000282       0.000044       0.000000
      0.000311       0.000045       0.000000
      0.000295       0.000038       0.000000
      0.000251       0.000042       0.000000
      0.000257       0.000042       0.000000
      0.000291       0.000046       0.000000
      0.000282       0.000044       0.000000
      0.000257       0.000042       0.000000
      0.000263       0.000038       0.000000
      0.000300       0.000040       0.000000
      0.000291       0.000046       0.000000
      0.000282       0.000044       0.000000
      0.000291       0.000046       0.000000
      0.000327       0.000048       0.000000
      0.000311       0.000045       0.000000
      0.000291       0.000046       0.000000
      0.000300       0.000040       0.000000
      0.000340       0.000042       0.000000
      0.000327       0.000048       0.000000
      0.000279       0.000031       0.000000
      0.000295       0.000038       0.000000
      0.000311       0.000032       0.000000
      0.000291       0.000025       0.000000
      0.000295       0.000038       0.000000
      0.000311       0.000045       0.000000
      0.000336       0.000039       0.000000
      0.000311       0.000032       0.000000
      0.000291       0.000025       0.000000
      0.000311       0.000032       0.000000
      0.000315       0.000022       0.000000
      0.000293       0.000017       0.000000
      0.000311       0.000032       0.000000
      0.000336       0.000039       0.000000
      0.000344       0.000027       0.000000
      0.000315       0.000022       0.000000
      0.000311       0.000045       0.000000
      0.000320       0.000047       0.000000
      0.000336       0.000046       0.000000
      0.000325       0.000043       0.000000
      0.000320       0.000047       0.000000
      0.000327       0.000048       0.000000
      0.000346       0.000049       0.000000
      0.000336       0.000046       0.000000
      0.000325       0.000043       0.000000
      0.000336       0.000046       0.000000
      0.000350       0.000044       0.000000
      0.000336       0.000039       0.000000
      0.000336       0.000046       0.000000
      0.000346       0.000049       0.000000
      0.000365       0.000048       0.000000
      0.000350       0.000044       0.000000
      0.000327       0.000048       0.000000
      0.000334       0.000047       0.000000
      0.000355       0.000048       0.000000
      0.000346       0.000049       0.000000
      0.000334       0.000047       0.000000
      0.000340       0.000042       0.000000
      0.000363       0.000043       0.000000
      0.000355       0.000048       0.000000
      0.000346       0.000049       0.000000
      0.000355       0.000048       0.000000
      0.000378       0.000049       0.000000
      0.000365       0.000048       0.000000
      0.000355       0.000048       0.000000
      0.000363       0.000043       0.000000
      0.000389       0.000043       0.000000
      0.000378       0.000049       0.000000
      0.000336       0.000039       0.000000
      0.000350       0.000044       0.000000
      0.000361       0.000038       0.000000
      0.000343       0.000034       0.000000
      0.000350       0.000044       0.000000
      0.000365       0.000048       0.000000
      0.000381       0.000043       0.000000
      0.000361       0.000038       0.000000
      0.000343       0.000034       0.000000
      0.000361       0.000038       0.000000
      0.000363       0.000030       0.000000
      0.000344       0.000027       0.000000
      0.000361       0.000038       0.000000
      0.000381       0.000043       0.000000
      0.000387       0.000033       0.000000
      0.000363       0.000030       0.000000
      0.000365       0.000048       0.000000
      0.000371       0.000049       0.000000
      0.000382       0.000048       0.000000
      0.000373       0.000046       0.000000
      0.000371       0.000049       0.000000
      0.000378       0.000049       0.000000
      0.000390       0.000049       0.000000
      0.000382       0.000048       0.000000
      0.000373       0.000046       0.000000
      0.000382       0.000048       0.000000
      0.000392       0.000045       0.000000
      0.000381       0.000043       0.000000
      0.000382       0.000048       0.000000
      0.000390       0.000049       0.000000
      0.000403       0.000047       0.000000
      0.000392       0.000045       0.000000
      0.000378       0.000049       0.000000
      0.000384       0.000047       0.000000
      0.000398       0.000047       0.000000
      0.000390       0.000049       0.000000
      0.000384       0.000047       0.000000
      0.000389       0.000043       0.000000
      0.000405       0.000043       0.000000
      0.000398       0.000047       0.000000
      0.000390       0.000049       0.000000
      0.000398       0.000047       0.000000
      0.000414       0.000047       0.000000
      0.000403       0.000047       0.000000
      0.000398       0.000047       0.000000
      0.000405       0.000043       0.000000
      0.000423       0.000042       0.000000
      0.000414       0.000047       0.000000
      0.000381       0.000043       0.000000
      0.000392       0.000045       0.000000
      0.000399       0.000041       0.000000
      0.000386       0.000038       0.000000
      0.000392       0.000045       0.000000
      0.000403       0.000047       0.000000
      0.000415       0.000043       0.000000
      0.000399       0.000041       0.000000
      0.000386       0.000038       0.000000
      0.000399       0.000041       0.000000
      0.000401       0.000034       0.000000
      0.000387       0.000033       0.000000
      0.000399       0.000041       0.000000
      0.000415       0.000043       0.000000
      0.000419       0.000036       0.000000
      0.000401       0.000034       0.000000
      0.000403       0.000047       0.000000
      0.000414       0.000047       0.000000
      0.000431       0.000046       0.000000
      0.000415       0.000043       0.000000
      0.000414       0.000047       0.000000
      0.000423       0.000042       0.000000
      0.000446       0.000041       0.000000
      0.000431       0.000046       0.000000
      0.000415       0.000043       0.000000
      0.000431       0.000046       0.000000
      0.000444       0.000037       0.000000
      0.000419       0.000036       0.000000
      0.000431       0.000046       0.000000
      0.000446       0.000041       0.000000
      0.000500       0.000035       0.000000
      0.000444       0.000037       0.000000
      0.000000       0.000000       0.000000
      0.000000       0.000000       0.000000
      0.000063       0.000008       0.000000
      0.000063       0.000010       0.000000
      0.000000       0.000000       0.000000
      0.000000       0.000000       0.000000
      0.000065       0.000006       0.000000
      0.000063       0.000008       0.000000
      0.000063       0.000010       0.000000
      0.000063       0.000008       0.000000
      0.000130       0.000016       0.000000
      0.000127       0.000021       0.000000
      0.000063       0.000008       0.000000
      0.000065       0.000006       0.000000
      0.000134       0.000010       0.000000
      0.000130       0.000016       0.000000
      0.000000       0.000000       0.000000
      0.000000       0.000000       0.000000
      0.000067       0.000004       0.000000
      0.000065       0.000006       0.000000
      0.000000       0.000000       0.000000
      0.000000       0.000000       0.000000
      0.000069       0.000002       0.000000
      0.000067       0.000004       0.000000
      0.000065       0.000006       0.000000
      0.000067       0.000004       0.000000
      0.000138       0.000005       0.000000
      0.000134       0.000010       0.000000
      0.000067       0.000004       0.000000
      0.000069       0.000002       0.000000
      0.000142       0.000002       0.000000
      0.000138       0.000005       0.000000
      0.000000       0.000000       0.000000
      0.000000       0.000000       0.000000
      0.000070       0.000001       0.000000
      0.000069       0.000002       0.000000
      0.000000       0.000000       0.000000
      0.000000       0.000000       0.000000
      0.000071       0.000000       0.000000
      0.000070       0.000001       0.000000
      0.000069       0.000002       0.000000
      0.000070       0.000001       0.000000
      0.000145       0.000001       0.000000
      0.000142       0.000002       0.000000
      0.000070       0.000001       0.000000
      0.000071       0.000000       0.000000
      0.000146       0.000000       0.000000
      0.000145       0.000001       0.000000
      0.000127       0.000021       0.000000
      0.000130       0.000016       0.000000
      0.000200       0.000021       0.000000
      0.000194       0.000030       0.000000
      0.000130       0.000016       0.000000
      0.000134       0.000010       0.000000
      0.000208       0.000011       0.000000
      0.000200       0.000021       0.000000
      0.000194       0.000030       0.000000
      0.000200       0.000021       0.000000
      0.000276       0.000022       0.000000
      0.000263       0.000038       0.000000
      0.000200       0.000021       0.000000
      0.000208       0.000011       0.000000
      0.000290       0.000009       0.000000
      0.000276       0.000022       0.000000
      0.000134       0.000010       0.000000
      0.000138       0.000005       0.000000
      0.000216       0.000005       0.000000
      0.000208       0.000011       0.000000
      0.000138       0.000005       0.000000
      0.000142       0.000002       0.000000
      0.000222       0.000001       0.000000
      0.000216       0.000005       0.000000
      0.000208       0.000011       0.000000
      0.000216       0.000005       0.000000
      0.000301       0.000002       0.000000
      0.000290       0.000009       0.000000
      0.000216       0.000005       0.000000
      0.000222       0.000001       0.000000
      0.000308      -0.000001       0.000000
      0.000301       0.000002       0.000000
      0.000142       0.000002       0.000000
      0.000145       0.000001       0.000000
      0.000225       0.000000       0.000000
      0.000222       0.000001       0.000000
      0.000145       0.000001       0.000000
      0.000146       0.000000       0.000000
      0.000227       0.000000       0.000000
      0.000225       0.000000       0.000000
      0.000222       0.000001       0.000000
      0.000225       0.000000       0.000000
      0.000312      -0.000001       0.000000
      0.000308      -0.000001       0.000000
      0.000225       0.000000       0.000000
      0.000227       0.000000       0.000000
      0.000313       0.000000       0.000000
      0.000312      -0.000001       0.000000
      0.000290       0.000009       0.000000
      0.000301       0.000002       0.000000
      0.000397      -0.000003       0.000000
      0.000387       0.000002       0.000000
      0.000301       0.000002       0.000000
      0.000308      -0.000001       0.000000
      0.000402      -0.000003       0.000000
      0.000397      -0.000003       0.000000
      0.000387       0.000002       0.000000
      0.000397      -0.000003       0.000000
      0.000500      -0.000005       0.000000
      0.000500      -0.000003       0.000000
      0.000397      -0.000003       0.000000
      0.000402      -0.000003       0.000000
      0.000500      -0.000005       0.000000
      0.000500      -0.000005       0.000000
      0.000308      -0.000001       0.000000
      0.000312      -0.000001       0.000000
      0.000404      -0.000002       0.000000
      0.000402      -0.000003       0.000000
      0.000312      -0.000001       0.000000
      0.000313       0.000000       0.000000
      0.000405       0.000000       0.000000
      0.000404      -0.000002       0.000000
      0.000402      -0.000003       0.000000
      0.000404      -0.000002       0.000000
      0.000500      -0.000003       0.000000
      0.000500      -0.000005       0.000000
      0.000404      -0.000002       0.000000
      0.000405       0.000000       0.000000
      0.000500       0.000000       0.000000
      0.000500      -0.000003       0.000000
      0.000263       0.000038       0.000000
      0.000269       0.000030       0.000000
      0.000309       0.000030       0.000000
      0.000300       0.000040       0.000000
      0.000269       0.000030       0.000000
      0.000276       0.000022       0.000000
      0.000319       0.000020       0.000000
      0.000309       0.000030       0.000000
      0.000300       0.000040       0.000000
      0.000309       0.000030       0.000000
      0.000354       0.000028       0.000000
      0.000340       0.000042       0.000000
      0.000309       0.000030       0.000000
      0.000319       0.000020       0.000000
      0.000368       0.000015       0.000000
      0.000354       0.000028       0.000000
      0.000276       0.000022       0.000000
      0.000284       0.000014       0.000000
      0.000329       0.000011       0.000000
      0.000319       0.000020       0.000000
      0.000284       0.000014       0.000000
      0.000290       0.000009       0.000000
      0.000336       0.000005       0.000000
      0.000329       0.000011       0.000000
      0.000319       0.000020       0.000000
      0.000329       0.000011       0.000000
      0.000379       0.000007       0.000000