# vtk DataFile Version 2.0
time_10.vtk
ASCII
DATASET UNSTRUCTURED_GRID
POINTS  1560 float
      0.000000       0.000000       0.000000
      0.083333       0.000000       0.000000
      0.083333       0.083333       0.000000
      0.000000       0.083333       0.000000
      0.083333       0.000000       0.000000
      0.166667       0.000000       0.000000
      0.166667       0.083333       0.000000
      0.083333       0.083333       0.000000
      0.000000       0.083333       0.000000
      0.083333       0.083333       0.000000
      0.083333       0.166667       0.000000
      0.000000       0.166667       0.000000
      0.083333       0.083333       0.000000
      0.166667       0.083333       0.000000
      0.166667       0.166667       0.000000
      0.083333       0.166667       0.000000
      0.166667       0.000000       0.000000
      0.250000       0.000000       0.000000
      0.250000       0.083333       0.000000
      0.166667       0.083333       0.000000
      0.250000       0.000000       0.000000
      0.333333       0.000000       0.000000
      0.333333       0.083333       0.000000
      0.250000       0.083333       0.000000
      0.166667       0.083333       0.000000
      0.250000       0.083333       0.000000
      0.250000       0.166667       0.000000
      0.166667       0.166667       0.000000
      0.250000       0.083333       0.000000
      0.333333       0.083333       0.000000
      0.333333       0.166667       0.000000
      0.250000       0.166667       0.000000
      0.333333       0.000000       0.000000
      0.416667       0.000000       0.000000
      0.416667       0.083333       0.000000
      0.333333       0.083333       0.000000
      0.416667       0.000000       0.000000
      0.500000       0.000000       0.000000
      0.500000       0.083333       0.000000
      0.416667       0.083333       0.000000
      0.333333       0.083333       0.000000
      0.416667       0.083333       0.000000
      0.416667       0.166667       0.000000
      0.333333       0.166667       0.000000
      0.416667       0.083333       0.000000
      0.500000       0.083333       0.000000
      0.500000       0.166667       0.000000
      0.416667       0.166667       0.000000
      0.000000       0.166667       0.000000
      0.083333       0.166667       0.000000
      0.083333       0.250000       0.000000
      0.000000       0.250000       0.000000
      0.083333       0.166667       0.000000
      0.166667       0.166667       0.000000
      0.166667       0.250000       0.000000
      0.083333       0.250000       0.000000
      0.000000       0.250000       0.000000
      0.083333       0.250000       0.000000
      0.083333       0.333333       0.000000
      0.000000       0.333333       0.000000
      0.083333       0.250000       0.000000
      0.166667       0.250000       0.000000
      0.166667       0.333333       0.000000
      0.083333       0.333333       0.000000
      0.166667       0.166667       0.000000
      0.250000       0.166667       0.000000
      0.250000       0.250000       0.000000
      0.166667       0.250000       0.000000
      0.250000       0.166667       0.000000
      0.333333       0.166667       0.000000
      0.333333       0.250000       0.000000
      0.250000       0.250000       0.000000
      0.166667       0.250000       0.000000
      0.250000       0.250000       0.000000
      0.250000       0.333333       0.000000
      0.166667       0.333333       0.000000
      0.250000       0.250000       0.000000
      0.333333       0.250000       0.000000
      0.333333       0.333333       0.000000
      0.250000       0.333333       0.000000
      0.333333       0.166667       0.000000
      0.416667       0.166667       0.000000
      0.416667       0.250000       0.000000
      0.333333       0.250000       0.000000
      0.416667       0.166667       0.000000
      0.500000       0.166667       0.000000
      0.500000       0.250000       0.000000
      0.416667       0.250000       0.000000
      0.333333       0.250000       0.000000
      0.416667       0.250000       0.000000
      0.416667       0.333333       0.000000
      0.333333       0.333333       0.000000
      0.000000       0.333333       0.000000
      0.083333       0.333333       0.000000
      0.083333       0.416667       0.000000
      0.000000       0.416667       0.000000
      0.083333       0.333333       0.000000
      0.166667       0.333333       0.000000
      0.166667       0.416667       0.000000
      0.083333       0.416667       0.000000
      0.000000       0.416667       0.000000
      0.083333       0.416667       0.000000
      0.083333       0.500000       0.000000
      0.000000       0.500000       0.000000
      0.083333       0.416667       0.000000
      0.166667       0.416667       0.000000
      0.166667       0.500000       0.000000
      0.083333       0.500000       0.000000
      0.166667       0.333333       0.000000
      0.250000       0.333333       0.000000
      0.250000       0.416667       0.000000
      0.166667       0.416667       0.000000
      0.250000       0.333333       0.000000
      0.333333       0.333333       0.000000
      0.333333       0.416667       0.000000
      0.250000       0.416667       0.000000
      0.166667       0.416667       0.000000
      0.250000       0.416667       0.000000
      0.250000       0.500000       0.000000
      0.166667       0.500000       0.000000
      0.250000       0.416667       0.000000
      0.333333       0.416667       0.000000
      0.333333       0.500000       0.000000
      0.250000       0.500000       0.000000
      0.333333       0.333333       0.000000
      0.375000       0.333333       0.000000
      0.375000       0.375000       0.000000
      0.333333       0.375000       0.000000
      0.375000       0.333333       0.000000
      0.416667       0.333333       0.000000
      0.416667       0.375000       0.000000
      0.375000       0.375000       0.000000
      0.333333       0.375000       0.000000
      0.375000       0.375000       0.000000
      0.375000       0.416667       0.000000
      0.333333       0.416667       0.000000
      0.375000       0.375000       0.000000
      0.416667       0.375000       0.000000
      0.416667       0.416667       0.000000
      0.375000       0.416667       0.000000
      0.416667       0.333333       0.000000
      0.458333       0.333333       0.000000
      0.458333       0.375000       0.000000
      0.416667       0.375000       0.000000
      0.416667       0.375000       0.000000
      0.458333       0.375000       0.000000
      0.458333       0.416667       0.000000
      0.416667       0.416667       0.000000
      0.333333       0.416667       0.000000
      0.375000       0.416667       0.000000
      0.375000       0.458333       0.000000
      0.333333       0.458333       0.000000
      0.375000       0.416667       0.000000
      0.416667       0.416667       0.000000
      0.416667       0.458333       0.000000
      0.375000       0.458333       0.000000
      0.333333       0.458333       0.000000
      0.375000       0.458333       0.000000
      0.375000       0.500000       0.000000
      0.333333       0.500000       0.000000
      0.375000       0.458333       0.000000
      0.416667       0.458333       0.000000
      0.416667       0.500000       0.000000
      0.375000       0.500000       0.000000
      0.416667       0.416667       0.000000
      0.437500       0.416667       0.000000
      0.437500       0.437500       0.000000
      0.416667       0.437500       0.000000
      0.437500       0.416667       0.000000
      0.458333       0.416667       0.000000
      0.458333       0.437500       0.000000
      0.437500       0.437500       0.000000
      0.416667       0.437500       0.000000
      0.437500       0.437500       0.000000
      0.437500       0.458333       0.000000
      0.416667       0.458333       0.000000
      0.437500       0.437500       0.000000
      0.458333       0.437500       0.000000
      0.458333       0.458333       0.000000
      0.437500       0.458333       0.000000
      0.458333       0.416667       0.000000
      0.479167       0.416667       0.000000
      0.479167       0.437500       0.000000
      0.458333       0.437500       0.000000
      0.458333       0.437500       0.000000
      0.479167       0.437500       0.000000
      0.479167       0.458333       0.000000
      0.458333       0.458333       0.000000
      0.416667       0.458333       0.000000
      0.437500       0.458333       0.000000
      0.437500       0.479167       0.000000
      0.416667       0.479167       0.000000
      0.437500       0.458333       0.000000
      0.458333       0.458333       0.000000
      0.458333       0.479167       0.000000
      0.437500       0.479167       0.000000
      0.416667       0.479167       0.000000
      0.437500       0.479167       0.000000
      0.437500       0.500000       0.000000
      0.416667       0.500000       0.000000
      0.437500       0.479167       0.000000
      0.458333       0.479167       0.000000
      0.458333       0.500000       0.000000
      0.437500       0.500000       0.000000
      0.458333       0.458333       0.000000
      0.468750       0.458333       0.000000
      0.468750       0.468750       0.000000
      0.458333       0.468750       0.000000
      0.468750       0.458333       0.000000
      0.479167       0.458333       0.000000
      0.479167       0.468750       0.000000
      0.468750       0.468750       0.000000
      0.458333       0.468750       0.000000
      0.468750       0.468750       0.000000
      0.468750       0.479167       0.000000
      0.458333       0.479167       0.000000
      0.468750       0.468750       0.000000
      0.479167       0.468750       0.000000
      0.479167       0.479167       0.000000
      0.468750       0.479167       0.000000
[...]
POINT_DATA  1560
VECTORS U float 
      0.000000       0.000000       0.000000
      0.000000       0.000000       0.000000
      0.000369       0.000005       0.000000
      0.000360       0.000000       0.000000
      0.000000       0.000000       0.000000
      0.000000       0.000000       0.000000
      0.000395       0.000013       0.000000
      0.000369       0.000005       0.000000
      0.000360       0.000000       0.000000
      0.000369       0.000005       0.000000
      0.000678      -0.000002       0.000000
      0.000664       0.000000       0.000000
      0.000369       0.000005       0.000000
      0.000395       0.000013       0.000000
      0.000721       0.000003       0.000000
      0.000678      -0.000002       0.000000
      0.000000       0.000000       0.000000
      0.000000       0.000000       0.000000
      0.000437       0.000028       0.000000
      0.000395       0.000013       0.000000
      0.000000       0.000000       0.000000
      0.000000       0.000000       0.000000
      0.000490       0.000057       0.000000
      0.000437       0.000028       0.000000
      0.000395       0.000013       0.000000
      0.000437       0.000028       0.000000
      0.000792       0.000023       0.000000
      0.000721       0.000003       0.000000
      0.000437       0.000028       0.000000
      0.000490       0.000057       0.000000
      0.000889       0.000071       0.000000
      0.000792       0.000023       0.000000
      0.000000       0.000000       0.000000
      0.000000       0.000000       0.000000
      0.000541       0.000103       0.000000
      0.000490       0.000057       0.000000
      0.000000       0.000000       0.000000
      0.000000       0.000000       0.000000
      0.000572       0.000155       0.000000
      0.000541       0.000103       0.000000
      0.000490       0.000057       0.000000
      0.000541       0.000103       0.000000
      0.001003       0.000164       0.000000
      0.000889       0.000071       0.000000
      0.000541       0.000103       0.000000
      0.000572       0.000155       0.000000
      0.001103       0.000292       0.000000
      0.001003       0.000164       0.000000
      0.000664       0.000000       0.000000
      0.000678      -0.000002       0.000000
      0.000913      -0.000015       0.000000
      0.000897       0.000000       0.000000
      0.000678      -0.000002       0.000000
      0.000721       0.000003       0.000000
      0.000961      -0.000022       0.000000
      0.000913      -0.000015       0.000000
      0.000897       0.000000       0.000000
      0.000913      -0.000015       0.000000
      0.001071      -0.000029       0.000000
      0.001058       0.000000       0.000000
      0.000913      -0.000015       0.000000
      0.000961      -0.000022       0.000000
      0.001113      -0.000051       0.000000
      0.001071      -0.000029       0.000000
      0.000721       0.000003       0.000000
      0.000792       0.000023       0.000000
      0.001045      -0.000010       0.000000
      0.000961      -0.000022       0.000000
      0.000792       0.000023       0.000000
      0.000889       0.000071       0.000000
      0.001172       0.000038       0.000000
      0.001045      -0.000010       0.000000
      0.000961      -0.000022       0.000000
      0.001045      -0.000010       0.000000
      0.001187      -0.000056       0.000000
      0.001113      -0.000051       0.000000
      0.001045      -0.000010       0.000000
      0.001172       0.000038       0.000000
      0.001303      -0.000027       0.000000
      0.001187      -0.000056       0.000000
      0.000889       0.000071       0.000000
      0.001003       0.000164       0.000000
      0.001351       0.000154       0.000000
      0.001172       0.000038       0.000000
      0.001003       0.000164       0.000000
      0.001103       0.000292       0.000000
      0.001575       0.000375       0.000000
      0.001351       0.000154       0.000000
      0.001172       0.000038       0.000000
      0.001351       0.000154       0.000000
      0.001480       0.000067       0.000000
      0.001303      -0.000027       0.000000
      0.001058       0.000000       0.000000
      0.001071      -0.000029       0.000000
      0.001167      -0.000040       0.000000
      0.001159       0.000000       0.000000
      0.001071      -0.000029       0.000000
      0.001113      -0.000051       0.000000
      0.001194      -0.000075       0.000000
      0.001167      -0.000040       0.000000
      0.001159       0.000000       0.000000
      0.001167      -0.000040       0.000000
      0.001223      -0.000046       0.000000
      0.001219       0.000000       0.000000
      0.001167      -0.000040       0.000000
      0.001194      -0.000075       0.000000
      0.001234      -0.000085       0.000000
      0.001223      -0.000046       0.000000
      0.001113      -0.000051       0.000000
      0.001187      -0.000056       0.000000
      0.001238      -0.000093       0.000000
      0.001194      -0.000075       0.000000
      0.001187      -0.000056       0.000000
      0.001303      -0.000027       0.000000
      0.001300      -0.000078       0.000000
      0.001238      -0.000093       0.000000
      0.001194      -0.000075       0.000000
      0.001238      -0.000093       0.000000
      0.001246      -0.000107       0.000000
      0.001234      -0.000085       0.000000
      0.001238      -0.000093       0.000000
      0.001300      -0.000078       0.000000
      0.001249      -0.000092       0.000000
      0.001246      -0.000107       0.000000
      0.001303      -0.000027       0.000000
      0.001381       0.000009       0.000000
      0.001373      -0.000026       0.000000
      0.001313      -0.000057       0.000000
      0.001381       0.000009       0.000000
      0.001480       0.000067       0.000000
      0.001445       0.000024       0.000000
      0.001373      -0.000026       0.000000
      0.001313      -0.000057       0.000000
      0.001373      -0.000026       0.000000
      0.001337      -0.000049       0.000000
      0.001300      -0.000078       0.000000
      0.001373      -0.000026       0.000000
      0.001445       0.000024       0.000000
      0.001376       0.000001       0.000000
      0.001337      -0.000049       0.000000
      0.001480       0.000067       0.000000
      0.001608       0.000156       0.000000
      0.001530       0.000101       0.000000
      0.001445       0.000024       0.000000
      0.001445       0.000024       0.000000
      0.001530       0.000101       0.000000
      0.001412       0.000079       0.000000
      0.001376       0.000001       0.000000
      0.001300      -0.000078       0.000000
      0.001337      -0.000049       0.000000
      0.001290      -0.000060       0.000000
      0.001275      -0.000090       0.000000
      0.001337      -0.000049       0.000000
      0.001376       0.000001       0.000000
      0.001303      -0.000007       0.000000
      0.001290      -0.000060       0.000000
      0.001275      -0.000090       0.000000
      0.001290      -0.000060       0.000000
      0.001245      -0.000061       0.000000
      0.001249      -0.000092       0.000000
      0.001290      -0.000060       0.000000
      0.001303      -0.000007       0.000000
      0.001236      -0.000007       0.000000
      0.001245      -0.000061       0.000000
      0.001376       0.000001       0.000000
      0.001395       0.000035       0.000000
      0.001350       0.000032       0.000000
      0.001339      -0.000005       0.000000
      0.001395       0.000035       0.000000
      0.001412       0.000079       0.000000
      0.001359       0.000076       0.000000
      0.001350       0.000032       0.000000
      0.001339      -0.000005       0.000000
      0.001350       0.000032       0.000000
      0.001309       0.000030       0.000000
      0.001303      -0.000007       0.000000
      0.001350       0.000032       0.000000
      0.001359       0.000076       0.000000
      0.001313       0.000075       0.000000
      0.001309       0.000030       0.000000
      0.001412       0.000079       0.000000
      0.001428       0.000133       0.000000
      0.001368       0.000130       0.000000
      0.001359       0.000076       0.000000
      0.001359       0.000076       0.000000
      0.001368       0.000130       0.000000
      0.001318       0.000127       0.000000
      0.001313       0.000075       0.000000
      0.001303      -0.000007       0.000000
      0.001309       0.000030       0.000000
      0.001271       0.000030       0.000000
      0.001270      -0.000008       0.000000
      0.001309       0.000030       0.000000
      0.001313       0.000075       0.000000
      0.001272       0.000074       0.000000
      0.001271       0.000030       0.000000
      0.001270      -0.000008       0.000000
      0.001271       0.000030       0.000000
      0.001232       0.000031       0.000000
      0.001236      -0.000007       0.000000
      0.001271       0.000030       0.000000
      0.001272       0.000074       0.000000
      0.001230       0.000074       0.000000
      0.001232       0.000031       0.000000
      0.001313       0.000075       0.000000
      0.001316       0.000100       0.000000
      0.001294       0.000099       0.000000
      0.001292       0.000075       0.000000
      0.001316       0.000100       0.000000
      0.001318       0.000127       0.000000
      0.001296       0.000126       0.000000
      0.001294       0.000099       0.000000
      0.001292       0.000075       0.000000
      0.001294       0.000099       0.000000
      0.001273       0.000098       0.000000
      0.001272       0.000074       0.000000
      0.001294       0.000099       0.000000
      0.001296       0.000126       0.000000
      0.001275       0.000124       0.000000
      0.001273       0.000098       0.000000
      0.001318       0.000127       0.000000
      0.001321       0.000157       0.000000
      0.001300       0.000154       0.000000
      0.001296       0.000126       0.000000
      0.001321       0.000157       0.000000
      0.001328       0.000190       0.000000
      0.001308       0.000193       0.000000
      0.001300       0.000154       0.000000
      0.001296       0.000126       0.000000
      0.001300       0.000154       0.000000
      0.001279       0.000150       0.000000
      0.001275       0.000124       0.000000
      0.001300       0.000154       0.000000
      0.001308       0.000193       0.000000
      0.001275       0.000194       0.000000
      0.001279       0.000150       0.000000
      0.001272       0.000074       0.000000
      0.001273       0.000098       0.000000
      0.001253       0.000098       0.000000
      0.001252       0.000074       0.000000
      0.001273       0.000098       0.000000
      0.001275       0.000124       0.000000
      0.001255       0.000121       0.000000
      0.001253       0.000098       0.000000
      0.001252       0.000074       0.000000
      0.001253       0.000098       0.000000
      0.001231       0.000098       0.000000
      0.001230       0.000074       0.000000
      0.001253       0.000098       0.000000
      0.001255       0.000121       0.000000
      0.001237       0.000124       0.000000
      0.001231       0.000098       0.000000
      0.001275       0.000124       0.000000
      0.001279       0.000150       0.000000
      0.001258       0.000142       0.000000
      0.001255       0.000121       0.000000
      0.001279       0.000150       0.000000
      0.001275       0.000194       0.000000
      0.000981       0.000152       0.000000
      0.001258       0.000142       0.000000
      0.001255       0.000121       0.000000
      0.001258       0.000142       0.000000
      0.001286       0.000158       0.000000
      0.001237       0.000124       0.000000
      0.001258       0.000142       0.000000
      0.000981       0.000152       0.000000
      0.008049       0.000763       0.000000
      0.001286       0.000158       0.000000
      0.001368       0.000130       0.000000
      0.001372       0.000161       0.000000
      0.001345       0.000159       0.000000
      0.001342       0.000129       0.000000
      0.001372       0.000161       0.000000
      0.001376       0.000196       0.000000
      0.001350       0.000193       0.000000
      0.001345       0.000159       0.000000
      0.001342       0.000129       0.000000
      0.001345       0.000159       0.000000
      0.001321       0.000157       0.000000
      0.001318       0.000127       0.000000
      0.001345       0.000159       0.000000
      0.001350       0.000193       0.000000
      0.001328       0.000190       0.000000
      0.001321       0.000157       0.000000
      0.001530       0.000101       0.000000
      0.001580       0.000155       0.000000
      0.001502       0.000140       0.000000
      0.001471       0.000086       0.000000
      0.001580       0.000155       0.000000
      0.001638       0.000225       0.000000
      0.001532       0.000209       0.000000
      0.001502       0.000140       0.000000
      0.001471       0.000086       0.000000
      0.001502       0.000140       0.000000
      0.001428       0.000133       0.000000
      0.001412       0.000079       0.000000
      0.001428       0.000133       0.000000
      0.001436       0.000165       0.000000
      0.001402       0.000163       0.000000
      0.001396       0.000131       0.000000
      0.001436       0.000165       0.000000
      0.001443       0.000202       0.000000
      0.001407       0.000200       0.000000
      0.001402       0.000163       0.000000
      0.001396       0.000131       0.000000
      0.001402       0.000163       0.000000
      0.001372       0.000161       0.000000
      0.001368       0.000130       0.000000
      0.001402       0.000163       0.000000
      0.001407       0.000200       0.000000
      0.001376       0.000196       0.000000
      0.001372       0.000161       0.000000
      0.001502       0.000140       0.000000
      0.001517       0.000172       0.000000
      0.001474       0.000168       0.000000
      0.001464       0.000136       0.000000
      0.001517       0.000172       0.000000
      0.001532       0.000209       0.000000
      0.001485       0.000205       0.000000
      0.001474       0.000168       0.000000
      0.001464       0.000136       0.000000
      0.001474       0.000168       0.000000
      0.001436       0.000165       0.000000
      0.001428       0.000133       0.000000
      0.001474       0.000168       0.000000
      0.001485       0.000205       0.000000
      0.001443       0.000202       0.000000
      0.001436       0.000165       0.000000
      0.001351       0.000154       0.000000
      0.001461       0.000251       0.000000
      0.001582       0.000217       0.000000
      0.001450       0.000116       0.000000
      0.001461       0.000251       0.000000
      0.001575       0.000375       0.000000
      0.001745       0.000367       0.000000
      0.001582       0.000217       0.000000
      0.001450       0.000116       0.000000
      0.001582       0.000217       0.000000
      0.001608       0.000156       0.000000
      0.001480       0.000067       0.000000
      0.001582       0.000217       0.000000
      0.001745       0.000367       0.000000
      0.001789       0.000303       0.000000
      0.001608       0.000156       0.000000
      0.001608       0.000156       0.000000
      0.001689       0.000220       0.000000
      0.001649       0.000183       0.000000
      0.001579       0.000126       0.000000
      0.001689       0.000220       0.000000
      0.001789       0.000303       0.000000
      0.001735       0.000259       0.000000
      0.001649       0.000183       0.000000
      0.001579       0.000126       0.000000
      0.001649       0.000183       0.000000
      0.001580       0.000155       0.000000
      0.001530       0.000101       0.000000
      0.001649       0.000183       0.000000
      0.001735       0.000259       0.000000
      0.001638       0.000225       0.000000
      0.001580       0.000155       0.000000
      0.000000       0.000000       0.000000
      0.000000       0.000000       0.000000
      0.000575       0.000184       0.000000
      0.000572       0.000155       0.000000
      0.000000       0.000000       0.000000
      0.000000       0.000000       0.000000
      0.000572       0.000161       0.000000
      0.000575       0.000184       0.000000
      0.000572       0.000155       0.000000
      0.000575       0.000184       0.000000
      0.001156       0.000371       0.000000
      0.001103       0.000292       0.000000
      0.000575       0.000184       0.000000
      0.000572       0.000161       0.000000
      0.001202       0.000306       0.000000
      0.001156       0.000371       0.000000
      0.000000       0.000000       0.000000
      0.000000       0.000000       0.000000
      0.000591       0.000107       0.000000
      0.000572       0.000161       0.000000
      0.000000       0.000000       0.000000
      0.000000       0.000000       0.000000
      0.000624       0.000058       0.000000
      0.000591       0.000107       0.000000
      0.000572       0.000161       0.000000
      0.000591       0.000107       0.000000
      0.001284       0.000181       0.000000
      0.001202       0.000306       0.000000
      0.000591       0.000107       0.000000
      0.000624       0.000058       0.000000
      0.001371       0.000086       0.000000
      0.001284       0.000181       0.000000
      0.000000       0.000000       0.000000
      0.000000       0.000000       0.000000
      0.000653       0.000024       0.000000
      0.000624       0.000058       0.000000
      0.000000       0.000000       0.000000
      0.000000       0.000000       0.000000
      0.000665       0.000000       0.000000
      0.000653       0.000024       0.000000
      0.000624       0.000058       0.000000
      0.000653       0.000024       0.000000
      0.001433       0.000032       0.000000
      0.001371       0.000086       0.000000
      0.000653       0.000024       0.000000
      0.000665       0.000000       0.000000
      0.001455       0.000000       0.000000
      0.001433       0.000032       0.000000
      0.001103       0.000292       0.000000
      0.001156       0.000371       0.000000
      0.001752       0.000562       0.000000
      0.001575       0.000375       0.000000
      0.001156       0.000371       0.000000
      0.001202       0.000306       0.000000
      0.001926       0.000398       0.000000
      0.001752       0.000562       0.000000
      0.001202       0.000306       0.000000
      0.001284       0.000181       0.000000
      0.002133       0.000188       0.000000
      0.001926       0.000398       0.000000
      0.001284       0.000181       0.000000
      0.001371       0.000086       0.000000
      0.002288       0.000070       0.000000
      0.002133       0.000188       0.000000
      0.001926       0.000398       0.000000
      0.002133       0.000188       0.000000
      0.003290       0.000116       0.000000
      0.002999       0.000350       0.000000
      0.002133       0.000188       0.000000
      0.002288       0.000070       0.000000
      0.003441       0.000024       0.000000
      0.003290       0.000116       0.000000
      0.001371       0.000086       0.000000
      0.001433       0.000032       0.000000
      0.002378       0.000020       0.000000
      0.002288       0.000070       0.000000
      0.001433       0.000032       0.000000
      0.001455       0.000000       0.000000
      0.002407       0.000000       0.000000
      0.002378       0.000020       0.000000
      0.002288       0.000070       0.000000
      0.002378       0.000020       0.000000
      0.003516      -0.000002       0.000000