# vtk DataFile Version 2.0
time_10.vtk
ASCII
DATASET UNSTRUCTURED_GRID
POINTS  1188 float
      0.000000       0.000000       0.000000
      0.083333       0.000000       0.000000
      0.083333       0.083333       0.000000
      0.000000       0.083333       0.000000
      0.083333       0.000000       0.000000
      0.166667       0.000000       0.000000
      0.166667       0.083333       0.000000
      0.083333       0.083333       0.000000
      0.000000       0.083333       0.000000
      0.083333       0.083333       0.000000
      0.083333       0.166667       0.000000
      0.000000       0.166667       0.000000
      0.083333       0.083333       0.000000
      0.166667       0.083333       0.000000
      0.166667       0.166667       0.000000
      0.083333       0.166667       0.000000
      0.166667       0.000000       0.000000
      0.250000       0.000000       0.000000
      0.250000       0.083333       0.000000
      0.166667       0.083333       0.000000
      0.250000       0.000000       0.000000
      0.333333       0.000000       0.000000
      0.333333       0.083333       0.000000
      0.250000       0.083333       0.000000
      0.166667       0.083333       0.000000
      0.250000       0.083333       0.000000
      0.250000       0.166667       0.000000
      0.166667       0.166667       0.000000
      0.250000       0.083333       0.000000
      0.333333       0.083333       0.000000
      0.333333       0.166667       0.000000
      0.250000       0.166667       0.000000
      0.333333       0.000000       0.000000
      0.416667       0.000000       0.000000
      0.416667       0.083333       0.000000
      0.333333       0.083333       0.000000
      0.416667       0.000000       0.000000
      0.500000       0.000000       0.000000
      0.500000       0.083333       0.000000
      0.416667       0.083333       0.000000
      0.333333       0.083333       0.000000
      0.416667       0.083333       0.000000
      0.416667       0.166667       0.000000
      0.333333       0.166667       0.000000
      0.416667       0.083333       0.000000
      0.500000       0.083333       0.000000
      0.500000       0.166667       0.000000
      0.416667       0.166667       0.000000
      0.000000       0.166667       0.000000
      0.083333       0.166667       0.000000
      0.083333       0.250000       0.000000
      0.000000       0.250000       0.000000
      0.083333       0.166667       0.000000
      0.166667       0.166667       0.000000
      0.166667       0.250000       0.000000
      0.083333       0.250000       0.000000
      0.000000       0.250000       0.000000
      0.083333       0.250000       0.000000
      0.083333       0.333333       0.000000
      0.000000       0.333333       0.000000
      0.083333       0.250000       0.000000
      0.166667       0.250000       0.000000
      0.166667       0.333333       0.000000
      0.083333       0.333333       0.000000
      0.166667       0.166667       0.000000
      0.250000       0.166667       0.000000
      0.250000       0.250000       0.000000
      0.166667       0.250000       0.000000
      0.250000       0.166667       0.000000
      0.333333       0.166667       0.000000
      0.333333       0.250000       0.000000
      0.250000       0.250000       0.000000
      0.166667       0.250000       0.000000
      0.250000       0.250000       0.000000
      0.250000       0.333333       0.000000
      0.166667       0.333333       0.000000
      0.250000       0.250000       0.000000
      0.333333       0.250000       0.000000
      0.333333       0.333333       0.000000
      0.250000       0.333333       0.000000
      0.333333       0.166667       0.000000
      0.416667       0.166667       0.000000
      0.416667       0.250000       0.000000
      0.333333       0.250000       0.000000
      0.416667       0.166667       0.000000
      0.500000       0.166667       0.000000
      0.500000       0.250000       0.000000
      0.416667       0.250000       0.000000
      0.333333       0.250000       0.000000
      0.416667       0.250000       0.000000
      0.416667       0.333333       0.000000
      0.333333       0.333333       0.000000
      0.416667       0.250000       0.000000
      0.500000       0.250000       0.000000
      0.500000       0.333333       0.000000
      0.416667       0.333333       0.000000
      0.000000       0.333333       0.000000
      0.083333       0.333333       0.000000
      0.083333       0.416667       0.000000
      0.000000       0.416667       0.000000
      0.083333       0.333333       0.000000
      0.166667       0.333333       0.000000
      0.166667       0.416667       0.000000
      0.083333       0.416667       0.000000
      0.000000       0.416667       0.000000
      0.083333       0.416667       0.000000
      0.083333       0.500000       0.000000
      0.000000       0.500000       0.000000
      0.083333       0.416667       0.000000
      0.166667       0.416667       0.000000
      0.166667       0.500000       0.000000
      0.083333       0.500000       0.000000
      0.166667       0.333333       0.000000
      0.250000       0.333333       0.000000
      0.250000       0.416667       0.000000
      0.166667       0.416667       0.000000
      0.250000       0.333333       0.000000
      0.333333       0.333333       0.000000
      0.333333       0.416667       0.000000
      0.250000       0.416667       0.000000
      0.166667       0.416667       0.000000
      0.250000       0.416667       0.000000
      0.250000       0.500000       0.000000
      0.166667       0.500000       0.000000
      0.250000       0.416667       0.000000
      0.333333       0.416667       0.000000
      0.333333       0.500000       0.000000
      0.250000       0.500000       0.000000
      0.333333       0.333333       0.000000
      0.375000       0.333333       0.000000
      0.375000       0.375000       0.000000
      0.333333       0.375000       0.000000
      0.375000       0.333333       0.000000
      0.416667       0.333333       0.000000
      0.416667       0.375000       0.000000
      0.375000       0.375000       0.000000
      0.333333       0.375000       0.000000
      0.375000       0.375000       0.000000
      0.375000       0.416667       0.000000
      0.333333       0.416667       0.000000
      0.375000       0.375000       0.000000
      0.416667       0.375000       0.000000
      0.416667       0.416667       0.000000
      0.375000       0.416667       0.000000
      0.416667       0.333333       0.000000
      0.458333       0.333333       0.000000
      0.458333       0.375000       0.000000
      0.416667       0.375000       0.000000
      0.458333       0.333333       0.000000
      0.500000       0.333333       0.000000
      0.500000       0.375000       0.000000
      0.458333       0.375000       0.000000
      0.416667       0.375000       0.000000
      0.458333       0.375000       0.000000
      0.458333       0.416667       0.000000
      0.416667       0.416667       0.000000
      0.458333       0.375000       0.000000
      0.500000       0.375000       0.000000
      0.500000       0.416667       0.000000
      0.458333       0.416667       0.000000
      0.333333       0.416667       0.000000
      0.375000       0.416667       0.000000
      0.375000       0.458333       0.000000
      0.333333       0.458333       0.000000
      0.375000       0.416667       0.000000
      0.416667       0.416667       0.000000
      0.416667       0.458333       0.000000
      0.375000       0.458333       0.000000
      0.333333       0.458333       0.000000
      0.375000       0.458333       0.000000
      0.375000       0.500000       0.000000
      0.333333       0.500000       0.000000
      0.375000       0.458333       0.000000
      0.416667       0.458333       0.000000
      0.416667       0.500000       0.000000
      0.375000       0.500000       0.000000
      0.416667       0.416667       0.000000
      0.437500       0.416667       0.000000
      0.437500       0.437500       0.000000
      0.416667       0.437500       0.000000
      0.437500       0.416667       0.000000
      0.458333       0.416667       0.000000
      0.458333       0.437500       0.000000
      0.437500       0.437500       0.000000
      0.416667       0.437500       0.000000
      0.437500       0.437500       0.000000
      0.437500       0.458333       0.000000
      0.416667       0.458333       0.000000
      0.437500       0.437500       0.000000
      0.458333       0.437500       0.000000
      0.458333       0.458333       0.000000
      0.437500       0.458333       0.000000
      0.458333       0.416667       0.000000
      0.479167       0.416667       0.000000
      0.479167       0.437500       0.000000
      0.458333       0.437500       0.000000
      0.479167       0.416667       0.000000
      0.500000       0.416667       0.000000
      0.500000       0.437500       0.000000
      0.479167       0.437500       0.000000
      0.458333       0.437500       0.000000
      0.479167       0.437500       0.000000
      0.479167       0.458333       0.000000
      0.458333       0.458333       0.000000
      0.416667       0.458333       0.000000
      0.437500       0.458333       0.000000
      0.437500       0.479167       0.000000
      0.416667       0.479167       0.000000
      0.437500       0.458333       0.000000
      0.458333       0.458333       0.000000
      0.458333       0.479167       0.000000
      0.437500       0.479167       0.000000
      0.416667       0.479167       0.000000
      0.437500       0.479167       0.000000
      0.437500       0.500000       0.000000
      0.416667       0.500000       0.000000
      0.437500       0.479167       0.000000
      0.458333       0.479167       0.000000
      0.458333       0.500000       0.000000
      0.437500       0.500000       0.000000
[...]
POINT_DATA  1188
VECTORS U float 
      0.000000       0.000000       0.000000
      0.000000       0.000000       0.000000
      0.000500       0.000015       0.000000
      0.000494       0.000000       0.000000
      0.000000       0.000000       0.000000
      0.000000       0.000000       0.000000
      0.000515       0.000033       0.000000
      0.000500       0.000015       0.000000
      0.000494       0.000000       0.000000
      0.000500       0.000015       0.000000
      0.000930       0.000023       0.000000
      0.000920       0.000000       0.000000
      0.000500       0.000015       0.000000
      0.000515       0.000033       0.000000
      0.000961       0.000051       0.000000
      0.000930       0.000023       0.000000
      0.000000       0.000000       0.000000
      0.000000       0.000000       0.000000
      0.000537       0.000056       0.000000
      0.000515       0.000033       0.000000
      0.000000       0.000000       0.000000
      0.000000       0.000000       0.000000
      0.000558       0.000084       0.000000
      0.000537       0.000056       0.000000
      0.000515       0.000033       0.000000
      0.000537       0.000056       0.000000
      0.001008       0.000092       0.000000
      0.000961       0.000051       0.000000
      0.000537       0.000056       0.000000
      0.000558       0.000084       0.000000
      0.001062       0.000150       0.000000
      0.001008       0.000092       0.000000
      0.000000       0.000000       0.000000
      0.000000       0.000000       0.000000
      0.000570       0.000113       0.000000
      0.000558       0.000084       0.000000
      0.000000       0.000000       0.000000
      0.000000       0.000000       0.000000
      0.000570       0.000131       0.000000
      0.000570       0.000113       0.000000
      0.000558       0.000084       0.000000
      0.000570       0.000113       0.000000
      0.001109       0.000216       0.000000
      0.001062       0.000150       0.000000
      0.000570       0.000113       0.000000
      0.000570       0.000131       0.000000
      0.001135       0.000263       0.000000
      0.001109       0.000216       0.000000
      0.000920       0.000000       0.000000
      0.000930       0.000023       0.000000
      0.001278       0.000021       0.000000
      0.001263       0.000000       0.000000
      0.000930       0.000023       0.000000
      0.000961       0.000051       0.000000
      0.001324       0.000051       0.000000
      0.001278       0.000021       0.000000
      0.001263       0.000000       0.000000
      0.001278       0.000021       0.000000
      0.001531       0.000011       0.000000
      0.001512       0.000000       0.000000
      0.001278       0.000021       0.000000
      0.001324       0.000051       0.000000
      0.001587       0.000032       0.000000
      0.001531       0.000011       0.000000
      0.000961       0.000051       0.000000
      0.001008       0.000092       0.000000
      0.001400       0.000100       0.000000
      0.001324       0.000051       0.000000
      0.001008       0.000092       0.000000
      0.001062       0.000150       0.000000
      0.001503       0.000180       0.000000
      0.001400       0.000100       0.000000
      0.001324       0.000051       0.000000
      0.001400       0.000100       0.000000
      0.001687       0.000073       0.000000
      0.001587       0.000032       0.000000
      0.001400       0.000100       0.000000
      0.001503       0.000180       0.000000
      0.001837       0.000153       0.000000
      0.001687       0.000073       0.000000
      0.001062       0.000150       0.000000
      0.001109       0.000216       0.000000
      0.001614       0.000292       0.000000
      0.001503       0.000180       0.000000
      0.001109       0.000216       0.000000
      0.001135       0.000263       0.000000
      0.001699       0.000388       0.000000
      0.001614       0.000292       0.000000
      0.001503       0.000180       0.000000
      0.001614       0.000292       0.000000
      0.002045       0.000304       0.000000
      0.001837       0.000153       0.000000
      0.001614       0.000292       0.000000
      0.001699       0.000388       0.000000
      0.002259       0.000502       0.000000
      0.002045       0.000304       0.000000
      0.001512       0.000000       0.000000
      0.001531       0.000011       0.000000
      0.001683      -0.000003       0.000000
      0.001665       0.000000       0.000000
      0.001531       0.000011       0.000000
      0.001587       0.000032       0.000000
      0.001741       0.000001       0.000000
      0.001683      -0.000003       0.000000
      0.001665       0.000000       0.000000
      0.001683      -0.000003       0.000000
      0.001742      -0.000018       0.000000
      0.001726       0.000000       0.000000
      0.001683      -0.000003       0.000000
      0.001741       0.000001       0.000000
      0.001792      -0.000030       0.000000
      0.001742      -0.000018       0.000000
      0.001587       0.000032       0.000000
      0.001687       0.000073       0.000000
      0.001842       0.000022       0.000000
      0.001741       0.000001       0.000000
      0.001687       0.000073       0.000000
      0.001837       0.000153       0.000000
      0.001999       0.000074       0.000000
      0.001842       0.000022       0.000000
      0.001741       0.000001       0.000000
      0.001842       0.000022       0.000000
      0.001875      -0.000027       0.000000
      0.001792      -0.000030       0.000000
      0.001842       0.000022       0.000000
      0.001999       0.000074       0.000000
      0.001991       0.000002       0.000000
      0.001875      -0.000027       0.000000
      0.001837       0.000153       0.000000
      0.001934       0.000218       0.000000
      0.002054       0.000177       0.000000
      0.001943       0.000117       0.000000
      0.001934       0.000218       0.000000
      0.002045       0.000304       0.000000
      0.002193       0.000266       0.000000
      0.002054       0.000177       0.000000
      0.001943       0.000117       0.000000
      0.002054       0.000177       0.000000
      0.002108       0.000121       0.000000
      0.001999       0.000074       0.000000
      0.002054       0.000177       0.000000
      0.002193       0.000266       0.000000
      0.002250       0.000197       0.000000
      0.002108       0.000121       0.000000
      0.002045       0.000304       0.000000
      0.002159       0.000410       0.000000
      0.002358       0.000399       0.000000
      0.002193       0.000266       0.000000
      0.002159       0.000410       0.000000
      0.002259       0.000502       0.000000
      0.002525       0.000550       0.000000
      0.002358       0.000399       0.000000
      0.002193       0.000266       0.000000
      0.002358       0.000399       0.000000
      0.002451       0.000331       0.000000
      0.002250       0.000197       0.000000
      0.002358       0.000399       0.000000
      0.002525       0.000550       0.000000
      0.002744       0.000570       0.000000
      0.002451       0.000331       0.000000
      0.001999       0.000074       0.000000
      0.002108       0.000121       0.000000
      0.002097       0.000069       0.000000
      0.002009       0.000034       0.000000
      0.002108       0.000121       0.000000
      0.002250       0.000197       0.000000
      0.002203       0.000126       0.000000
      0.002097       0.000069       0.000000
      0.002009       0.000034       0.000000
      0.002097       0.000069       0.000000
      0.002056       0.000034       0.000000
      0.001991       0.000002       0.000000
      0.002097       0.000069       0.000000
      0.002203       0.000126       0.000000
      0.002114       0.000089       0.000000
      0.002056       0.000034       0.000000
      0.002250       0.000197       0.000000
      0.002341       0.000254       0.000000
      0.002320       0.000209       0.000000
      0.002238       0.000159       0.000000
      0.002341       0.000254       0.000000
      0.002451       0.000331       0.000000
      0.002422       0.000279       0.000000
      0.002320       0.000209       0.000000
      0.002238       0.000159       0.000000
      0.002320       0.000209       0.000000
      0.002265       0.000170       0.000000
      0.002203       0.000126       0.000000
      0.002320       0.000209       0.000000
      0.002422       0.000279       0.000000
      0.002339       0.000231       0.000000
      0.002265       0.000170       0.000000
      0.002451       0.000331       0.000000
      0.002585       0.000439       0.000000
      0.002562       0.000382       0.000000
      0.002422       0.000279       0.000000
      0.002585       0.000439       0.000000
      0.002744       0.000570       0.000000
      0.002782       0.000545       0.000000
      0.002562       0.000382       0.000000
      0.002422       0.000279       0.000000
      0.002562       0.000382       0.000000
      0.002437       0.000320       0.000000
      0.002339       0.000231       0.000000
      0.002203       0.000126       0.000000
      0.002265       0.000170       0.000000
      0.002196       0.000145       0.000000
      0.002156       0.000103       0.000000
      0.002265       0.000170       0.000000
      0.002339       0.000231       0.000000
      0.002236       0.000205       0.000000
      0.002196       0.000145       0.000000
      0.002156       0.000103       0.000000
      0.002196       0.000145       0.000000
      0.002135       0.000133       0.000000
      0.002114       0.000089       0.000000
      0.002196       0.000145       0.000000
      0.002236       0.000205       0.000000
      0.002149       0.000195       0.000000
      0.002135       0.000133       0.000000
      0.002339       0.000231       0.000000
      0.002383       0.000271       0.000000
      0.002318       0.000254       0.000000
      0.002287       0.000215       0.000000
      0.002383       0.000271       0.000000
      0.002437       0.000320       0.000000
      0.002353       0.000301       0.000000
      0.002318       0.000254       0.000000
      0.002287       0.000215       0.000000
      0.002318       0.000254       0.000000
      0.002255       0.000244       0.000000
      0.002236       0.000205       0.000000
      0.002318       0.000254       0.000000
      0.002353       0.000301       0.000000
      0.002275       0.000291       0.000000
      0.002255       0.000244       0.000000
      0.002437       0.000320       0.000000
      0.002510       0.000380       0.000000
      0.002397       0.000358       0.000000
      0.002353       0.000301       0.000000
      0.002510       0.000380       0.000000
      0.002633       0.000461       0.000000
      0.002468       0.000434       0.000000
      0.002397       0.000358       0.000000
      0.002353       0.000301       0.000000
      0.002397       0.000358       0.000000
      0.002297       0.000349       0.000000
      0.002275       0.000291       0.000000
      0.002397       0.000358       0.000000
      0.002468       0.000434       0.000000
      0.002333       0.000435       0.000000
      0.002297       0.000349       0.000000
      0.002236       0.000205       0.000000
      0.002255       0.000244       0.000000
      0.002200       0.000238       0.000000
      0.002189       0.000198       0.000000
      0.002255       0.000244       0.000000
      0.002275       0.000291       0.000000
      0.002211       0.000286       0.000000
      0.002200       0.000238       0.000000
      0.002189       0.000198       0.000000
      0.002200       0.000238       0.000000
      0.002154       0.000236       0.000000
      0.002149       0.000195       0.000000
      0.002200       0.000238       0.000000
      0.002211       0.000286       0.000000
      0.002161       0.000286       0.000000
      0.002154       0.000236       0.000000
      0.002275       0.000291       0.000000
      0.002297       0.000349       0.000000
      0.002222       0.000339       0.000000
      0.002211       0.000286       0.000000
      0.002297       0.000349       0.000000
      0.002333       0.000435       0.000000
      0.002092       0.000366       0.000000
      0.002222       0.000339       0.000000
      0.002211       0.000286       0.000000
      0.002222       0.000339       0.000000
      0.002198       0.000348       0.000000
      0.002161       0.000286       0.000000
      0.002222       0.000339       0.000000
      0.002092       0.000366       0.000000
      0.006752       0.000540       0.000000
      0.002198       0.000348       0.000000
      0.002562       0.000382       0.000000
      0.002658       0.000454       0.000000
      0.002604       0.000416       0.000000
      0.002511       0.000349       0.000000
      0.002658       0.000454       0.000000
      0.002782       0.000545       0.000000
      0.002744       0.000509       0.000000
      0.002604       0.000416       0.000000
      0.002511       0.000349       0.000000
      0.002604       0.000416       0.000000
      0.002510       0.000380       0.000000
      0.002437       0.000320       0.000000
      0.002604       0.000416       0.000000
      0.002744       0.000509       0.000000
      0.002633       0.000461       0.000000
      0.002510       0.000380       0.000000
      0.000000       0.000000       0.000000
      0.000000       0.000000       0.000000
      0.000564       0.000126       0.000000
      0.000570       0.000131       0.000000
      0.000000       0.000000       0.000000
      0.000000       0.000000       0.000000
      0.000566       0.000100       0.000000
      0.000564       0.000126       0.000000
      0.000570       0.000131       0.000000
      0.000564       0.000126       0.000000
      0.001151       0.000251       0.000000
      0.001135       0.000263       0.000000
      0.000564       0.000126       0.000000
      0.000566       0.000100       0.000000
      0.001181       0.000186       0.000000
      0.001151       0.000251       0.000000
      0.000000       0.000000       0.000000
      0.000000       0.000000       0.000000
      0.000581       0.000066       0.000000
      0.000566       0.000100       0.000000
      0.000000       0.000000       0.000000
      0.000000       0.000000       0.000000
      0.000601       0.000037       0.000000
      0.000581       0.000066       0.000000
      0.000566       0.000100       0.000000
      0.000581       0.000066       0.000000
      0.001229       0.000113       0.000000
      0.001181       0.000186       0.000000
      0.000581       0.000066       0.000000
      0.000601       0.000037       0.000000
      0.001279       0.000057       0.000000
      0.001229       0.000113       0.000000
      0.000000       0.000000       0.000000
      0.000000       0.000000       0.000000
      0.000618       0.000016       0.000000
      0.000601       0.000037       0.000000
      0.000000       0.000000       0.000000
      0.000000       0.000000       0.000000
      0.000625       0.000000       0.000000
      0.000618       0.000016       0.000000
      0.000601       0.000037       0.000000
      0.000618       0.000016       0.000000
      0.001315       0.000023       0.000000
      0.001279       0.000057       0.000000
      0.000618       0.000016       0.000000
      0.000625       0.000000       0.000000
      0.001327       0.000000       0.000000
      0.001315       0.000023       0.000000
      0.001135       0.000263       0.000000
      0.001151       0.000251       0.000000
      0.001764       0.000364       0.000000
      0.001699       0.000388       0.000000
      0.001151       0.000251       0.000000
      0.001181       0.000186       0.000000
      0.001855       0.000241       0.000000
      0.001764       0.000364       0.000000
      0.001699       0.000388       0.000000
      0.001764       0.000364       0.000000
      0.002431       0.000450       0.000000
      0.002259       0.000502       0.000000
      0.001764       0.000364       0.000000
      0.001855       0.000241       0.000000
      0.002651       0.000230       0.000000
      0.002431       0.000450       0.000000
      0.001181       0.000186       0.000000
      0.001229       0.000113       0.000000
      0.001963       0.000125       0.000000
      0.001855       0.000241       0.000000
      0.001229       0.000113       0.000000
      0.001279       0.000057       0.000000
      0.002053       0.000052       0.000000
      0.001963       0.000125       0.000000
      0.001855       0.000241       0.000000
      0.001963       0.000125       0.000000
      0.002837       0.000086       0.000000
      0.002651       0.000230       0.000000
      0.001963       0.000125       0.000000
      0.002053       0.000052       0.000000
      0.002958       0.000020       0.000000
      0.002837       0.000086       0.000000
      0.001279       0.000057       0.000000
      0.001315       0.000023       0.000000
      0.002110       0.000017       0.000000
      0.002053       0.000052       0.000000
      0.001315       0.000023       0.000000
      0.001327       0.000000       0.000000
      0.002129       0.000000       0.000000
      0.002110       0.000017       0.000000
      0.002053       0.000052       0.000000
      0.002110       0.000017       0.000000
      0.003024       0.000000       0.000000
      0.002958       0.000020       0.000000
      0.002110       0.000017       0.000000
      0.002129       0.000000       0.000000
      0.003045       0.000000       0.000000
      0.003024       0.000000       0.000000
      0.002651       0.000230       0.000000
      0.002837       0.000086       0.000000
      0.003935       0.000014       0.000000
      0.003763       0.000124       0.000000
      0.002837       0.000086       0.000000
      0.002958       0.000020       0.000000
      0.004019      -0.000020       0.000000
      0.003935       0.000014       0.000000
      0.003763       0.000124       0.000000
      0.003935       0.000014       0.000000
      0.005217      -0.000005       0.000000
      0.005295       0.000082       0.000000
      0.003935       0.000014       0.000000
      0.004019      -0.000020       0.000000
      0.005181      -0.000029       0.000000
      0.005217      -0.000005       0.000000
      0.002958       0.000020       0.000000
      0.003024       0.000000       0.000000
      0.004059      -0.000018       0.000000
      0.004019      -0.000020       0.000000
      0.003024       0.000000       0.000000
      0.003045       0.000000       0.000000
      0.004071       0.000000       0.000000
      0.004059      -0.000018       0.000000
      0.004019      -0.000020       0.000000
      0.004059      -0.000018       0.000000
      0.005164      -0.000022       0.000000
      0.005181      -0.000029       0.000000
      0.004059      -0.000018       0.000000
      0.004071       0.000000       0.000000
      0.005159       0.000000       0.000000
      0.005164      -0.000022       0.000000
      0.002259       0.000502       0.000000
      0.002342       0.000521       0.000000
      0.002669       0.000586       0.000000
      0.002525       0.000550       0.000000
      0.002342       0.000521       0.000000
      0.002431       0.000450       0.000000
      0.002829       0.000462       0.000000
      0.002669       0.000586       0.000000
      0.002525       0.000550       0.000000
      0.002669       0.000586       0.000000
      0.003076       0.000641       0.000000
      0.002744       0.000570       0.000000
      0.002669       0.000586       0.000000
      0.002829       0.000462       0.000000
      0.003385       0.000414       0.000000