# vtk DataFile Version 2.0
time_10.vtk
ASCII
DATASET UNSTRUCTURED_GRID
POINTS  1632 float
      0.000000       0.000000       0.000000
      0.083333       0.000000       0.000000
      0.083333       0.083333       0.000000
      0.000000       0.083333       0.000000
      0.083333       0.000000       0.000000
      0.166667       0.000000       0.000000
      0.166667       0.083333       0.000000
      0.083333       0.083333       0.000000
      0.000000       0.083333       0.000000
      0.083333       0.083333       0.000000
      0.083333       0.166667       0.000000
      0.000000       0.166667       0.000000
      0.083333       0.083333       0.000000
      0.166667       0.083333       0.000000
      0.166667       0.166667       0.000000
      0.083333       0.166667       0.000000
      0.166667       0.000000       0.000000
      0.250000       0.000000       0.000000
      0.250000       0.083333       0.000000
      0.166667       0.083333       0.000000
      0.250000       0.000000       0.000000
      0.333333       0.000000       0.000000
      0.333333       0.083333       0.000000
      0.250000       0.083333       0.000000
      0.166667       0.083333       0.000000
      0.250000       0.083333       0.000000
      0.250000       0.166667       0.000000
      0.166667       0.166667       0.000000
      0.250000       0.083333       0.000000
      0.333333       0.083333       0.000000
      0.333333       0.166667       0.000000
      0.250000       0.166667       0.000000
      0.333333       0.000000       0.000000
      0.416667       0.000000       0.000000
      0.416667       0.083333       0.000000
      0.333333       0.083333       0.000000
      0.416667       0.000000       0.000000
      0.500000       0.000000       0.000000
      0.500000       0.083333       0.000000
      0.416667       0.083333       0.000000
      0.333333       0.083333       0.000000
      0.416667       0.083333       0.000000
      0.416667       0.166667       0.000000
      0.333333       0.166667       0.000000
      0.416667       0.083333       0.000000
      0.500000       0.083333       0.000000
      0.500000       0.166667       0.000000
      0.416667       0.166667       0.000000
      0.000000       0.166667       0.000000
      0.083333       0.166667       0.000000
      0.083333       0.250000       0.000000
      0.000000       0.250000       0.000000
      0.083333       0.166667       0.000000
      0.166667       0.166667       0.000000
      0.166667       0.250000       0.000000
      0.083333       0.250000       0.000000
      0.000000       0.250000       0.000000
      0.083333       0.250000       0.000000
      0.083333       0.333333       0.000000
      0.000000       0.333333       0.000000
      0.083333       0.250000       0.000000
      0.166667       0.250000       0.000000
      0.166667       0.333333       0.000000
      0.083333       0.333333       0.000000
      0.166667       0.166667       0.000000
      0.250000       0.166667       0.000000
      0.250000       0.250000       0.000000
      0.166667       0.250000       0.000000
      0.250000       0.166667       0.000000
      0.333333       0.166667       0.000000
      0.333333       0.250000       0.000000
      0.250000       0.250000       0.000000
      0.166667       0.250000       0.000000
      0.250000       0.250000       0.000000
      0.250000       0.333333       0.000000
      0.166667       0.333333       0.000000
      0.250000       0.250000       0.000000
      0.333333       0.250000       0.000000
      0.333333       0.333333       0.000000
      0.250000       0.333333       0.000000
      0.333333       0.166667       0.000000
      0.416667       0.166667       0.000000
      0.416667       0.250000       0.000000
      0.333333       0.250000       0.000000
      0.416667       0.166667       0.000000
      0.500000       0.166667       0.000000
      0.500000       0.250000       0.000000
      0.416667       0.250000       0.000000
      0.333333       0.250000       0.000000
      0.416667       0.250000       0.000000
      0.416667       0.333333       0.000000
      0.333333       0.333333       0.000000
      0.000000       0.333333       0.000000
      0.083333       0.333333       0.000000
      0.083333       0.416667       0.000000
      0.000000       0.416667       0.000000
      0.083333       0.333333       0.000000
      0.166667       0.333333       0.000000
      0.166667       0.416667       0.000000
      0.083333       0.416667       0.000000
      0.000000       0.416667       0.000000
      0.083333       0.416667       0.000000
      0.083333       0.500000       0.000000
      0.000000       0.500000       0.000000
      0.083333       0.416667       0.000000
      0.166667       0.416667       0.000000
      0.166667       0.500000       0.000000
      0.083333       0.500000       0.000000
      0.166667       0.333333       0.000000
      0.250000       0.333333       0.000000
      0.250000       0.416667       0.000000
      0.166667       0.416667       0.000000
      0.250000       0.333333       0.000000
      0.333333       0.333333       0.000000
      0.333333       0.416667       0.000000
      0.250000       0.416667       0.000000
      0.166667       0.416667       0.000000
      0.250000       0.416667       0.000000
      0.250000       0.500000       0.000000
      0.166667       0.500000       0.000000
      0.250000       0.416667       0.000000
      0.333333       0.416667       0.000000
      0.333333       0.500000       0.000000
      0.250000       0.500000       0.000000
      0.333333       0.333333       0.000000
      0.375000       0.333333       0.000000
      0.375000       0.375000       0.000000
      0.333333       0.375000       0.000000
      0.375000       0.333333       0.000000
      0.416667       0.333333       0.000000
      0.416667       0.375000       0.000000
      0.375000       0.375000       0.000000
      0.333333       0.375000       0.000000
      0.375000       0.375000       0.000000
      0.375000       0.416667       0.000000
      0.333333       0.416667       0.000000
      0.375000       0.375000       0.000000
      0.416667       0.375000       0.000000
      0.416667       0.416667       0.000000
      0.375000       0.416667       0.000000
      0.416667       0.333333       0.000000
      0.458333       0.333333       0.000000
      0.458333       0.375000       0.000000
      0.416667       0.375000       0.000000
      0.416667       0.375000       0.000000
      0.458333       0.375000       0.000000
      0.458333       0.416667       0.000000
      0.416667       0.416667       0.000000
      0.333333       0.416667       0.000000
      0.375000       0.416667       0.000000
      0.375000       0.458333       0.000000
      0.333333       0.458333       0.000000
      0.375000       0.416667       0.000000
      0.416667       0.416667       0.000000
      0.416667       0.458333       0.000000
      0.375000       0.458333       0.000000
      0.333333       0.458333       0.000000
      0.375000       0.458333       0.000000
      0.375000       0.500000       0.000000
      0.333333       0.500000       0.000000
      0.375000       0.458333       0.000000
      0.416667       0.458333       0.000000
      0.416667       0.500000       0.000000
      0.375000       0.500000       0.000000
      0.416667       0.416667       0.000000
      0.437500       0.416667       0.000000
      0.437500       0.437500       0.000000
      0.416667       0.437500       0.000000
      0.437500       0.416667       0.000000
      0.458333       0.416667       0.000000
      0.458333       0.437500       0.000000
      0.437500       0.437500       0.000000
      0.416667       0.437500       0.000000
      0.437500       0.437500       0.000000
      0.437500       0.458333       0.000000
      0.416667       0.458333       0.000000
      0.437500       0.437500       0.000000
      0.458333       0.437500       0.000000
      0.458333       0.458333       0.000000
      0.437500       0.458333       0.000000
      0.458333       0.416667       0.000000
      0.479167       0.416667       0.000000
      0.479167       0.437500       0.000000
      0.458333       0.437500       0.000000
      0.458333       0.437500       0.000000
      0.479167       0.437500       0.000000
      0.479167       0.458333       0.000000
      0.458333       0.458333       0.000000
      0.416667       0.458333       0.000000
      0.437500       0.458333       0.000000
      0.437500       0.479167       0.000000
      0.416667       0.479167       0.000000
      0.437500       0.458333       0.000000
      0.458333       0.458333       0.000000
      0.458333       0.479167       0.000000
      0.437500       0.479167       0.000000
      0.416667       0.479167       0.000000
      0.437500       0.479167       0.000000
      0.437500       0.500000       0.000000
      0.416667       0.500000       0.000000
      0.437500       0.479167       0.000000
      0.458333       0.479167       0.000000
      0.458333       0.500000       0.000000
      0.437500       0.500000       0.000000
      0.458333       0.458333       0.000000
      0.468750       0.458333       0.000000
      0.468750       0.468750       0.000000
      0.458333       0.468750       0.000000
      0.468750       0.458333       0.000000
      0.479167       0.458333       0.000000
      0.479167       0.468750       0.000000
      0.468750       0.468750       0.000000
      0.458333       0.468750       0.000000
      0.468750       0.468750       0.000000
      0.468750       0.479167       0.000000
      0.458333       0.479167       0.000000
      0.468750       0.468750       0.000000
      0.479167       0.468750       0.000000
      0.479167       0.479167       0.000000
      0.468750       0.479167       0.000000
[...]
POINT_DATA  1632
VECTORS U float 
      0.000000       0.000000       0.000000
      0.000000       0.000000       0.000000
      0.000337       0.000003       0.000000
      0.000328       0.000000       0.000000
      0.000000       0.000000       0.000000
      0.000000       0.000000       0.000000
      0.000364       0.000009       0.000000
      0.000337       0.000003       0.000000
      0.000328       0.000000       0.000000
      0.000337       0.000003       0.000000
      0.000618      -0.000005       0.000000
      0.000604       0.000000       0.000000
      0.000337       0.000003       0.000000
      0.000364       0.000009       0.000000
      0.000660      -0.000005       0.000000
      0.000618      -0.000005       0.000000
      0.000000       0.000000       0.000000
      0.000000       0.000000       0.000000
      0.000408       0.000022       0.000000
      0.000364       0.000009       0.000000
      0.000000       0.000000       0.000000
      0.000000       0.000000       0.000000
      0.000466       0.000048       0.000000
      0.000408       0.000022       0.000000
      0.000364       0.000009       0.000000
      0.000408       0.000022       0.000000
      0.000732       0.000009       0.000000
      0.000660      -0.000005       0.000000
      0.000408       0.000022       0.000000
      0.000466       0.000048       0.000000
      0.000834       0.000051       0.000000
      0.000732       0.000009       0.000000
      0.000000       0.000000       0.000000
      0.000000       0.000000       0.000000
      0.000527       0.000094       0.000000
      0.000466       0.000048       0.000000
      0.000000       0.000000       0.000000
      0.000000       0.000000       0.000000
      0.000569       0.000154       0.000000
      0.000527       0.000094       0.000000
      0.000466       0.000048       0.000000
      0.000527       0.000094       0.000000
      0.000959       0.000138       0.000000
      0.000834       0.000051       0.000000
      0.000527       0.000094       0.000000
      0.000569       0.000154       0.000000
      0.001082       0.000280       0.000000
      0.000959       0.000138       0.000000
      0.000604       0.000000       0.000000
      0.000618      -0.000005       0.000000
      0.000829      -0.000019       0.000000
      0.000814       0.000000       0.000000
      0.000618      -0.000005       0.000000
      0.000660      -0.000005       0.000000
      0.000875      -0.000032       0.000000
      0.000829      -0.000019       0.000000
      0.000814       0.000000       0.000000
      0.000829      -0.000019       0.000000
      0.000970      -0.000033       0.000000
      0.000958       0.000000       0.000000
      0.000829      -0.000019       0.000000
      0.000875      -0.000032       0.000000
      0.001008      -0.000060       0.000000
      0.000970      -0.000033       0.000000
      0.000660      -0.000005       0.000000
      0.000732       0.000009       0.000000
      0.000955      -0.000028       0.000000
      0.000875      -0.000032       0.000000
      0.000732       0.000009       0.000000
      0.000834       0.000051       0.000000
      0.001077       0.000009       0.000000
      0.000955      -0.000028       0.000000
      0.000875      -0.000032       0.000000
      0.000955      -0.000028       0.000000
      0.001074      -0.000072       0.000000
      0.001008      -0.000060       0.000000
      0.000955      -0.000028       0.000000
      0.001077       0.000009       0.000000
      0.001174      -0.000053       0.000000
      0.001074      -0.000072       0.000000
      0.000834       0.000051       0.000000
      0.000959       0.000138       0.000000
      0.001255       0.000108       0.000000
      0.001077       0.000009       0.000000
      0.000959       0.000138       0.000000
      0.001082       0.000280       0.000000
      0.001503       0.000326       0.000000
      0.001255       0.000108       0.000000
      0.001077       0.000009       0.000000
      0.001255       0.000108       0.000000
      0.001323       0.000022       0.000000
      0.001174      -0.000053       0.000000
      0.000958       0.000000       0.000000
      0.000970      -0.000033       0.000000
      0.001057      -0.000043       0.000000
      0.001049       0.000000       0.000000
      0.000970      -0.000033       0.000000
      0.001008      -0.000060       0.000000
      0.001078      -0.000081       0.000000
      0.001057      -0.000043       0.000000
      0.001049       0.000000       0.000000
      0.001057      -0.000043       0.000000
      0.001110      -0.000048       0.000000
      0.001108       0.000000       0.000000
      0.001057      -0.000043       0.000000
      0.001078      -0.000081       0.000000
      0.001117      -0.000089       0.000000
      0.001110      -0.000048       0.000000
      0.001008      -0.000060       0.000000
      0.001074      -0.000072       0.000000
      0.001113      -0.000103       0.000000
      0.001078      -0.000081       0.000000
      0.001074      -0.000072       0.000000
      0.001174      -0.000053       0.000000
      0.001161      -0.000093       0.000000
      0.001113      -0.000103       0.000000
      0.001078      -0.000081       0.000000
      0.001113      -0.000103       0.000000
      0.001121      -0.000113       0.000000
      0.001117      -0.000089       0.000000
      0.001113      -0.000103       0.000000
      0.001161      -0.000093       0.000000
      0.001116      -0.000101       0.000000
      0.001121      -0.000113       0.000000
      0.001174      -0.000053       0.000000
      0.001241      -0.000024       0.000000
      0.001224      -0.000052       0.000000
      0.001176      -0.000077       0.000000
      0.001241      -0.000024       0.000000
      0.001323       0.000022       0.000000
      0.001277      -0.000009       0.000000
      0.001224      -0.000052       0.000000
      0.001176      -0.000077       0.000000
      0.001224      -0.000052       0.000000
      0.001188      -0.000068       0.000000
      0.001161      -0.000093       0.000000
      0.001224      -0.000052       0.000000
      0.001277      -0.000009       0.000000
      0.001214      -0.000023       0.000000
      0.001188      -0.000068       0.000000
      0.001323       0.000022       0.000000
      0.001425       0.000095       0.000000
      0.001335       0.000057       0.000000
      0.001277      -0.000009       0.000000
      0.001277      -0.000009       0.000000
      0.001335       0.000057       0.000000
      0.001237       0.000046       0.000000
      0.001214      -0.000023       0.000000
      0.001161      -0.000093       0.000000
      0.001188      -0.000068       0.000000
      0.001147      -0.000074       0.000000
      0.001138      -0.000101       0.000000
      0.001188      -0.000068       0.000000
      0.001214      -0.000023       0.000000
      0.001155      -0.000026       0.000000
      0.001147      -0.000074       0.000000
      0.001138      -0.000101       0.000000
      0.001147      -0.000074       0.000000
      0.001108      -0.000074       0.000000
      0.001116      -0.000101       0.000000
      0.001147      -0.000074       0.000000
      0.001155      -0.000026       0.000000
      0.001099      -0.000025       0.000000
      0.001108      -0.000074       0.000000
      0.001214      -0.000023       0.000000
      0.001226       0.000008       0.000000
      0.001191       0.000006       0.000000
      0.001184      -0.000026       0.000000
      0.001226       0.000008       0.000000
      0.001237       0.000046       0.000000
      0.001196       0.000045       0.000000
      0.001191       0.000006       0.000000
      0.001184      -0.000026       0.000000
      0.001191       0.000006       0.000000
      0.001158       0.000006       0.000000
      0.001155      -0.000026       0.000000
      0.001191       0.000006       0.000000
      0.001196       0.000045       0.000000
      0.001160       0.000044       0.000000
      0.001158       0.000006       0.000000
      0.001237       0.000046       0.000000
      0.001246       0.000093       0.000000
      0.001201       0.000091       0.000000
      0.001196       0.000045       0.000000
      0.001196       0.000045       0.000000
      0.001201       0.000091       0.000000
      0.001164       0.000088       0.000000
      0.001160       0.000044       0.000000
      0.001155      -0.000026       0.000000
      0.001158       0.000006       0.000000
      0.001127       0.000006       0.000000
      0.001127      -0.000026       0.000000
      0.001158       0.000006       0.000000
      0.001160       0.000044       0.000000
      0.001128       0.000044       0.000000
      0.001127       0.000006       0.000000
      0.001127      -0.000026       0.000000
      0.001127       0.000006       0.000000
      0.001095       0.000007       0.000000
      0.001099      -0.000025       0.000000
      0.001127       0.000006       0.000000
      0.001128       0.000044       0.000000
      0.001093       0.000044       0.000000
      0.001095       0.000007       0.000000
      0.001160       0.000044       0.000000
      0.001162       0.000066       0.000000
      0.001145       0.000065       0.000000
      0.001144       0.000044       0.000000
      0.001162       0.000066       0.000000
      0.001164       0.000088       0.000000
      0.001147       0.000087       0.000000
      0.001145       0.000065       0.000000
      0.001144       0.000044       0.000000
      0.001145       0.000065       0.000000
      0.001129       0.000064       0.000000
      0.001128       0.000044       0.000000
      0.001145       0.000065       0.000000
      0.001147       0.000087       0.000000
      0.001130       0.000085       0.000000
      0.001129       0.000064       0.000000
      0.001164       0.000088       0.000000
      0.001167       0.000113       0.000000
      0.001150       0.000110       0.000000
      0.001147       0.000087       0.000000
      0.001167       0.000113       0.000000
      0.001172       0.000139       0.000000
      0.001157       0.000143       0.000000
      0.001150       0.000110       0.000000
      0.001147       0.000087       0.000000
      0.001150       0.000110       0.000000
      0.001134       0.000107       0.000000
      0.001130       0.000085       0.000000
      0.001150       0.000110       0.000000
      0.001157       0.000143       0.000000
      0.001129       0.000146       0.000000
      0.001134       0.000107       0.000000
      0.001128       0.000044       0.000000
      0.001129       0.000064       0.000000
      0.001112       0.000064       0.000000
      0.001111       0.000044       0.000000
      0.001129       0.000064       0.000000
      0.001130       0.000085       0.000000
      0.001114       0.000083       0.000000
      0.001112       0.000064       0.000000
      0.001111       0.000044       0.000000
      0.001112       0.000064       0.000000
      0.001095       0.000064       0.000000
      0.001093       0.000044       0.000000
      0.001112       0.000064       0.000000
      0.001114       0.000083       0.000000
      0.001101       0.000086       0.000000
      0.001095       0.000064       0.000000
      0.001130       0.000085       0.000000
      0.001134       0.000107       0.000000
      0.001117       0.000099       0.000000
      0.001114       0.000083       0.000000
      0.001134       0.000107       0.000000
      0.001129       0.000146       0.000000
      0.000833       0.000116       0.000000
      0.001117       0.000099       0.000000
      0.001114       0.000083       0.000000
      0.001117       0.000099       0.000000
      0.001152       0.000115       0.000000
      0.001101       0.000086       0.000000
      0.001117       0.000099       0.000000
      0.000833       0.000116       0.000000
      0.008273       0.000799       0.000000
      0.001152       0.000115       0.000000
      0.001201       0.000091       0.000000
      0.001204       0.000117       0.000000
      0.001184       0.000115       0.000000
      0.001182       0.000090       0.000000
      0.001204       0.000117       0.000000
      0.001208       0.000146       0.000000
      0.001189       0.000143       0.000000
      0.001184       0.000115       0.000000
      0.001182       0.000090       0.000000
      0.001184       0.000115       0.000000
      0.001167       0.000113       0.000000
      0.001164       0.000088       0.000000
      0.001184       0.000115       0.000000
      0.001189       0.000143       0.000000
      0.001172       0.000139       0.000000
      0.001167       0.000113       0.000000
      0.001335       0.000057       0.000000
      0.001366       0.000104       0.000000
      0.001302       0.000097       0.000000
      0.001284       0.000049       0.000000
      0.001366       0.000104       0.000000
      0.001397       0.000164       0.000000
      0.001317       0.000157       0.000000
      0.001302       0.000097       0.000000
      0.001284       0.000049       0.000000
      0.001302       0.000097       0.000000
      0.001246       0.000093       0.000000
      0.001237       0.000046       0.000000
      0.001246       0.000093       0.000000
      0.001250       0.000121       0.000000
      0.001226       0.000119       0.000000
      0.001222       0.000092       0.000000
      0.001250       0.000121       0.000000
      0.001255       0.000152       0.000000
      0.001230       0.000149       0.000000
      0.001226       0.000119       0.000000
      0.001222       0.000092       0.000000
      0.001226       0.000119       0.000000
      0.001204       0.000117       0.000000
      0.001201       0.000091       0.000000
      0.001226       0.000119       0.000000
      0.001230       0.000149       0.000000
      0.001208       0.000146       0.000000
      0.001204       0.000117       0.000000
      0.001302       0.000097       0.000000
      0.001310       0.000125       0.000000
      0.001278       0.000123       0.000000
      0.001273       0.000095       0.000000
      0.001310       0.000125       0.000000
      0.001317       0.000157       0.000000
      0.001284       0.000154       0.000000
      0.001278       0.000123       0.000000
      0.001273       0.000095       0.000000
      0.001278       0.000123       0.000000
      0.001250       0.000121       0.000000
      0.001246       0.000093       0.000000
      0.001278       0.000123       0.000000
      0.001284       0.000154       0.000000
      0.001255       0.000152       0.000000
      0.001250       0.000121       0.000000
      0.001255       0.000108       0.000000
      0.001370       0.000198       0.000000
      0.001445       0.000152       0.000000
      0.001320       0.000066       0.000000
      0.001370       0.000198       0.000000
      0.001503       0.000326       0.000000
      0.001610       0.000288       0.000000
      0.001445       0.000152       0.000000
      0.001320       0.000066       0.000000
      0.001445       0.000152       0.000000
      0.001425       0.000095       0.000000
      0.001323       0.000022       0.000000
      0.001445       0.000152       0.000000
      0.001610       0.000288       0.000000
      0.001566       0.000212       0.000000
      0.001425       0.000095       0.000000
      0.001425       0.000095       0.000000
      0.001489       0.000146       0.000000
      0.001433       0.000120       0.000000
      0.001385       0.000072       0.000000
      0.001489       0.000146       0.000000
      0.001566       0.000212       0.000000
      0.001487       0.000181       0.000000
      0.001433       0.000120       0.000000
      0.001385       0.000072       0.000000
      0.001433       0.000120       0.000000
      0.001366       0.000104       0.000000
      0.001335       0.000057       0.000000
      0.001433       0.000120       0.000000
      0.001487       0.000181       0.000000
      0.001397       0.000164       0.000000
      0.001366       0.000104       0.000000
      0.000000       0.000000       0.000000
      0.000000       0.000000       0.000000
      0.000578       0.000195       0.000000
      0.000569       0.000154       0.000000
      0.000000       0.000000       0.000000
      0.000000       0.000000       0.000000
      0.000575       0.000176       0.000000
      0.000578       0.000195       0.000000
      0.000569       0.000154       0.000000
      0.000578       0.000195       0.000000
      0.001155       0.000392       0.000000
      0.001082       0.000280       0.000000
      0.000578       0.000195       0.000000
      0.000575       0.000176       0.000000
      0.001208       0.000338       0.000000
      0.001155       0.000392       0.000000
      0.000000       0.000000       0.000000
      0.000000       0.000000       0.000000
      0.000594       0.000118       0.000000
      0.000575       0.000176       0.000000
      0.000000       0.000000       0.000000
      0.000000       0.000000       0.000000
      0.000632       0.000063       0.000000
      0.000594       0.000118       0.000000
      0.000575       0.000176       0.000000
      0.000594       0.000118       0.000000
      0.001301       0.000198       0.000000
      0.001208       0.000338       0.000000
      0.000594       0.000118       0.000000
      0.000632       0.000063       0.000000
      0.001400       0.000091       0.000000
      0.001301       0.000198       0.000000
      0.000000       0.000000       0.000000
      0.000000       0.000000       0.000000
      0.000665       0.000026       0.000000
      0.000632       0.000063       0.000000
      0.000000       0.000000       0.000000
      0.000000       0.000000       0.000000
      0.000678       0.000000       0.000000
      0.000665       0.000026       0.000000
      0.000632       0.000063       0.000000
      0.000665       0.000026       0.000000
      0.001469       0.000033       0.000000
      0.001400       0.000091       0.000000
      0.000665       0.000026       0.000000
      0.000678       0.000000       0.000000
      0.001493       0.000000       0.000000
      0.001469       0.000033       0.000000
      0.001082       0.000280       0.000000
      0.001155       0.000392       0.000000
      0.001740       0.000596       0.000000
      0.001503       0.000326       0.000000
      0.001155       0.000392       0.000000
      0.001208       0.000338       0.000000
      0.001949       0.000439       0.000000
      0.001740       0.000596       0.000000
      0.001208       0.000338       0.000000
      0.001301       0.000198       0.000000
      0.002189       0.000200       0.000000
      0.001949       0.000439       0.000000
      0.001301       0.000198       0.000000
      0.001400       0.000091       0.000000
      0.002361       0.000072       0.000000
      0.002189       0.000200       0.000000
      0.001949       0.000439       0.000000
      0.002189       0.000200       0.000000
      0.003443       0.000125       0.000000
      0.003167       0.000383       0.000000
      0.002189       0.000200       0.000000
      0.002361       0.000072       0.000000
      0.003584       0.000026       0.000000
      0.003443       0.000125       0.000000
      0.001400       0.000091       0.000000
      0.001469       0.000033       0.000000
      0.002456       0.000019       0.000000
      0.002361       0.000072       0.000000
      0.001469       0.000033       0.000000
      0.001493       0.000000       0.000000
      0.002487       0.000000       0.000000
      0.002456       0.000019       0.000000
      0.002361       0.000072       0.000000
      0.002456       0.000019       0.000000
      0.003653      -0.000002       0.000000