# vtk DataFile Version 2.0
time_10.vtk
ASCII
DATASET UNSTRUCTURED_GRID
POINTS  1284 float
      0.000000       0.000000       0.000000
      0.083333       0.000000       0.000000
      0.083333       0.083333       0.000000
      0.000000       0.083333       0.000000
      0.083333       0.000000       0.000000
      0.166667       0.000000       0.000000
      0.166667       0.083333       0.000000
      0.083333       0.083333       0.000000
      0.000000       0.083333       0.000000
      0.083333       0.083333       0.000000
      0.083333       0.166667       0.000000
      0.000000       0.166667       0.000000
      0.083333       0.083333       0.000000
      0.166667       0.083333       0.000000
      0.166667       0.166667       0.000000
      0.083333       0.166667       0.000000
      0.166667       0.000000       0.000000
      0.250000       0.000000       0.000000
      0.250000       0.083333       0.000000
      0.166667       0.083333       0.000000
      0.250000       0.000000       0.000000
      0.333333       0.000000       0.000000
      0.333333       0.083333       0.000000
      0.250000       0.083333       0.000000
      0.166667       0.083333       0.000000
      0.250000       0.083333       0.000000
      0.250000       0.166667       0.000000
      0.166667       0.166667       0.000000
      0.250000       0.083333       0.000000
      0.333333       0.083333       0.000000
      0.333333       0.166667       0.000000
      0.250000       0.166667       0.000000
      0.333333       0.000000       0.000000
      0.416667       0.000000       0.000000
      0.416667       0.083333       0.000000
      0.333333       0.083333       0.000000
      0.416667       0.000000       0.000000
      0.500000       0.000000       0.000000
      0.500000       0.083333       0.000000
      0.416667       0.083333       0.000000
      0.333333       0.083333       0.000000
      0.416667       0.083333       0.000000
      0.416667       0.166667       0.000000
      0.333333       0.166667       0.000000
      0.416667       0.083333       0.000000
      0.500000       0.083333       0.000000
      0.500000       0.166667       0.000000
      0.416667       0.166667       0.000000
      0.000000       0.166667       0.000000
      0.083333       0.166667       0.000000
      0.083333       0.250000       0.000000
      0.000000       0.250000       0.000000
      0.083333       0.166667       0.000000
      0.166667       0.166667       0.000000
      0.166667       0.250000       0.000000
      0.083333       0.250000       0.000000
      0.000000       0.250000       0.000000
      0.083333       0.250000       0.000000
      0.083333       0.333333       0.000000
      0.000000       0.333333       0.000000
      0.083333       0.250000       0.000000
      0.166667       0.250000       0.000000
      0.166667       0.333333       0.000000
      0.083333       0.333333       0.000000
      0.166667       0.166667       0.000000
      0.250000       0.166667       0.000000
      0.250000       0.250000       0.000000
      0.166667       0.250000       0.000000
      0.250000       0.166667       0.000000
      0.333333       0.166667       0.000000
      0.333333       0.250000       0.000000
      0.250000       0.250000       0.000000
      0.166667       0.250000       0.000000
      0.250000       0.250000       0.000000
      0.250000       0.333333       0.000000
      0.166667       0.333333       0.000000
      0.250000       0.250000       0.000000
      0.333333       0.250000       0.000000
      0.333333       0.333333       0.000000
      0.250000       0.333333       0.000000
      0.333333       0.166667       0.000000
      0.416667       0.166667       0.000000
      0.416667       0.250000       0.000000
      0.333333       0.250000       0.000000
      0.416667       0.166667       0.000000
      0.500000       0.166667       0.000000
      0.500000       0.250000       0.000000
      0.416667       0.250000       0.000000
      0.333333       0.250000       0.000000
      0.416667       0.250000       0.000000
      0.416667       0.333333       0.000000
      0.333333       0.333333       0.000000
      0.416667       0.250000       0.000000
      0.500000       0.250000       0.000000
      0.500000       0.333333       0.000000
      0.416667       0.333333       0.000000
      0.000000       0.333333       0.000000
      0.083333       0.333333       0.000000
      0.083333       0.416667       0.000000
      0.000000       0.416667       0.000000
      0.083333       0.333333       0.000000
      0.166667       0.333333       0.000000
      0.166667       0.416667       0.000000
      0.083333       0.416667       0.000000
      0.000000       0.416667       0.000000
      0.083333       0.416667       0.000000
      0.083333       0.500000       0.000000
      0.000000       0.500000       0.000000
      0.083333       0.416667       0.000000
      0.166667       0.416667       0.000000
      0.166667       0.500000       0.000000
      0.083333       0.500000       0.000000
      0.166667       0.333333       0.000000
      0.250000       0.333333       0.000000
      0.250000       0.416667       0.000000
      0.166667       0.416667       0.000000
      0.250000       0.333333       0.000000
      0.333333       0.333333       0.000000
      0.333333       0.416667       0.000000
      0.250000       0.416667       0.000000
      0.166667       0.416667       0.000000
      0.250000       0.416667       0.000000
      0.250000       0.500000       0.000000
      0.166667       0.500000       0.000000
      0.250000       0.416667       0.000000
      0.333333       0.416667       0.000000
      0.333333       0.500000       0.000000
      0.250000       0.500000       0.000000
      0.333333       0.333333       0.000000
      0.375000       0.333333       0.000000
      0.375000       0.375000       0.000000
      0.333333       0.375000       0.000000
      0.375000       0.333333       0.000000
      0.416667       0.333333       0.000000
      0.416667       0.375000       0.000000
      0.375000       0.375000       0.000000
      0.333333       0.375000       0.000000
      0.375000       0.375000       0.000000
      0.375000       0.416667       0.000000
      0.333333       0.416667       0.000000
      0.375000       0.375000       0.000000
      0.416667       0.375000       0.000000
      0.416667       0.416667       0.000000
      0.375000       0.416667       0.000000
      0.416667       0.333333       0.000000
      0.458333       0.333333       0.000000
      0.458333       0.375000       0.000000
      0.416667       0.375000       0.000000
      0.458333       0.333333       0.000000
      0.500000       0.333333       0.000000
      0.500000       0.375000       0.000000
      0.458333       0.375000       0.000000
      0.416667       0.375000       0.000000
      0.458333       0.375000       0.000000
      0.458333       0.416667       0.000000
      0.416667       0.416667       0.000000
      0.333333       0.416667       0.000000
      0.375000       0.416667       0.000000
      0.375000       0.458333       0.000000
      0.333333       0.458333       0.000000
      0.375000       0.416667       0.000000
      0.416667       0.416667       0.000000
      0.416667       0.458333       0.000000
      0.375000       0.458333       0.000000
      0.333333       0.458333       0.000000
      0.375000       0.458333       0.000000
      0.375000       0.500000       0.000000
      0.333333       0.500000       0.000000
      0.375000       0.458333       0.000000
      0.416667       0.458333       0.000000
      0.416667       0.500000       0.000000
      0.375000       0.500000       0.000000
      0.416667       0.416667       0.000000
      0.437500       0.416667       0.000000
      0.437500       0.437500       0.000000
      0.416667       0.437500       0.000000
      0.437500       0.416667       0.000000
      0.458333       0.416667       0.000000
      0.458333       0.437500       0.000000
      0.437500       0.437500       0.000000
      0.416667       0.437500       0.000000
      0.437500       0.437500       0.000000
      0.437500       0.458333       0.000000
      0.416667       0.458333       0.000000
      0.437500       0.437500       0.000000
      0.458333       0.437500       0.000000
      0.458333       0.458333       0.000000
      0.437500       0.458333       0.000000
      0.458333       0.416667       0.000000
      0.479167       0.416667       0.000000
      0.479167       0.437500       0.000000
      0.458333       0.437500       0.000000
      0.458333       0.437500       0.000000
      0.479167       0.437500       0.000000
      0.479167       0.458333       0.000000
      0.458333       0.458333       0.000000
      0.416667       0.458333       0.000000
      0.437500       0.458333       0.000000
      0.437500       0.479167       0.000000
      0.416667       0.479167       0.000000
      0.437500       0.458333       0.000000
      0.458333       0.458333       0.000000
      0.458333       0.479167       0.000000
      0.437500       0.479167       0.000000
      0.416667       0.479167       0.000000
      0.437500       0.479167       0.000000
      0.437500       0.500000       0.000000
      0.416667       0.500000       0.000000
      0.437500       0.479167       0.000000
      0.458333       0.479167       0.000000
      0.458333       0.500000       0.000000
      0.437500       0.500000       0.000000
      0.458333       0.458333       0.000000
      0.468750       0.458333       0.000000
      0.468750       0.468750       0.000000
      0.458333       0.468750       0.000000
      0.468750       0.458333       0.000000
      0.479167       0.458333       0.000000
      0.479167       0.468750       0.000000
      0.468750       0.468750       0.000000
[...]
POINT_DATA  1284
VECTORS U float 
      0.000000       0.000000       0.000000
      0.000000       0.000000       0.000000
      0.000474       0.000013       0.000000
      0.000467       0.000000       0.000000
      0.000000       0.000000       0.000000
      0.000000       0.000000       0.000000
      0.000493       0.000028       0.000000
      0.000474       0.000013       0.000000
      0.000467       0.000000       0.000000
      0.000474       0.000013       0.000000
      0.000880       0.000016       0.000000
      0.000867       0.000000       0.000000
      0.000474       0.000013       0.000000
      0.000493       0.000028       0.000000
      0.000915       0.000039       0.000000
      0.000880       0.000016       0.000000
      0.000000       0.000000       0.000000
      0.000000       0.000000       0.000000
      0.000521       0.000050       0.000000
      0.000493       0.000028       0.000000
      0.000000       0.000000       0.000000
      0.000000       0.000000       0.000000
      0.000550       0.000080       0.000000
      0.000521       0.000050       0.000000
      0.000493       0.000028       0.000000
      0.000521       0.000050       0.000000
      0.000971       0.000076       0.000000
      0.000915       0.000039       0.000000
      0.000521       0.000050       0.000000
      0.000550       0.000080       0.000000
      0.001038       0.000135       0.000000
      0.000971       0.000076       0.000000
      0.000000       0.000000       0.000000
      0.000000       0.000000       0.000000
      0.000571       0.000115       0.000000
      0.000550       0.000080       0.000000
      0.000000       0.000000       0.000000
      0.000000       0.000000       0.000000
      0.000575       0.000141       0.000000
      0.000571       0.000115       0.000000
      0.000550       0.000080       0.000000
      0.000571       0.000115       0.000000
      0.001101       0.000214       0.000000
      0.001038       0.000135       0.000000
      0.000571       0.000115       0.000000
      0.000575       0.000141       0.000000
      0.001139       0.000280       0.000000
      0.001101       0.000214       0.000000
      0.000867       0.000000       0.000000
      0.000880       0.000016       0.000000
      0.001202       0.000010       0.000000
      0.001186       0.000000       0.000000
      0.000880       0.000016       0.000000
      0.000915       0.000039       0.000000
      0.001251       0.000030       0.000000
      0.001202       0.000010       0.000000
      0.001186       0.000000       0.000000
      0.001202       0.000010       0.000000
      0.001431      -0.000002       0.000000
      0.001414       0.000000       0.000000
      0.001202       0.000010       0.000000
      0.001251       0.000030       0.000000
      0.001486       0.000006       0.000000
      0.001431      -0.000002       0.000000
      0.000915       0.000039       0.000000
      0.000971       0.000076       0.000000
      0.001333       0.000071       0.000000
      0.001251       0.000030       0.000000
      0.000971       0.000076       0.000000
      0.001038       0.000135       0.000000
      0.001449       0.000148       0.000000
      0.001333       0.000071       0.000000
      0.001251       0.000030       0.000000
      0.001333       0.000071       0.000000
      0.001583       0.000034       0.000000
      0.001486       0.000006       0.000000
      0.001333       0.000071       0.000000
      0.001449       0.000148       0.000000
      0.001734       0.000104       0.000000
      0.001583       0.000034       0.000000
      0.001038       0.000135       0.000000
      0.001101       0.000214       0.000000
      0.001583       0.000275       0.000000
      0.001449       0.000148       0.000000
      0.001101       0.000214       0.000000
      0.001139       0.000280       0.000000
      0.001696       0.000411       0.000000
      0.001583       0.000275       0.000000
      0.001449       0.000148       0.000000
      0.001583       0.000275       0.000000
      0.001957       0.000256       0.000000
      0.001734       0.000104       0.000000
      0.001583       0.000275       0.000000
      0.001696       0.000411       0.000000
      0.002227       0.000517       0.000000
      0.001957       0.000256       0.000000
      0.001414       0.000000       0.000000
      0.001431      -0.000002       0.000000
      0.001570      -0.000016       0.000000
      0.001554       0.000000       0.000000
      0.001431      -0.000002       0.000000
      0.001486       0.000006       0.000000
      0.001619      -0.000025       0.000000
      0.001570      -0.000016       0.000000
      0.001554       0.000000       0.000000
      0.001570      -0.000016       0.000000
      0.001630      -0.000028       0.000000
      0.001617       0.000000       0.000000
      0.001570      -0.000016       0.000000
      0.001619      -0.000025       0.000000
      0.001668      -0.000050       0.000000
      0.001630      -0.000028       0.000000
      0.001486       0.000006       0.000000
      0.001583       0.000034       0.000000
      0.001705      -0.000017       0.000000
      0.001619      -0.000025       0.000000
      0.001583       0.000034       0.000000
      0.001734       0.000104       0.000000
      0.001837       0.000022       0.000000
      0.001705      -0.000017       0.000000
      0.001619      -0.000025       0.000000
      0.001705      -0.000017       0.000000
      0.001728      -0.000056       0.000000
      0.001668      -0.000050       0.000000
      0.001705      -0.000017       0.000000
      0.001837       0.000022       0.000000
      0.001804      -0.000032       0.000000
      0.001728      -0.000056       0.000000
      0.001734       0.000104       0.000000
      0.001836       0.000166       0.000000
      0.001915       0.000118       0.000000
      0.001809       0.000064       0.000000
      0.001836       0.000166       0.000000
      0.001957       0.000256       0.000000
      0.002051       0.000203       0.000000
      0.001915       0.000118       0.000000
      0.001809       0.000064       0.000000
      0.001915       0.000118       0.000000
      0.001929       0.000064       0.000000
      0.001837       0.000022       0.000000
      0.001915       0.000118       0.000000
      0.002051       0.000203       0.000000
      0.002046       0.000133       0.000000
      0.001929       0.000064       0.000000
      0.001957       0.000256       0.000000
      0.002094       0.000381       0.000000
      0.002228       0.000338       0.000000
      0.002051       0.000203       0.000000
      0.002094       0.000381       0.000000
      0.002227       0.000517       0.000000
      0.002447       0.000539       0.000000
      0.002228       0.000338       0.000000
      0.002051       0.000203       0.000000
      0.002228       0.000338       0.000000
      0.002208       0.000251       0.000000
      0.002046       0.000133       0.000000
      0.001837       0.000022       0.000000
      0.001929       0.000064       0.000000
      0.001891       0.000023       0.000000
      0.001828      -0.000011       0.000000
      0.001929       0.000064       0.000000
      0.002046       0.000133       0.000000
      0.001961       0.000083       0.000000
      0.001891       0.000023       0.000000
      0.001828      -0.000011       0.000000
      0.001891       0.000023       0.000000
      0.001839       0.000002       0.000000
      0.001804      -0.000032       0.000000
      0.001891       0.000023       0.000000
      0.001961       0.000083       0.000000
      0.001863       0.000064       0.000000
      0.001839       0.000002       0.000000
      0.002046       0.000133       0.000000
      0.002119       0.000184       0.000000
      0.002066       0.000150       0.000000
      0.002010       0.000104       0.000000
      0.002119       0.000184       0.000000
      0.002208       0.000251       0.000000
      0.002132       0.000211       0.000000
      0.002066       0.000150       0.000000
      0.002010       0.000104       0.000000
      0.002066       0.000150       0.000000
      0.001998       0.000128       0.000000
      0.001961       0.000083       0.000000
      0.002066       0.000150       0.000000
      0.002132       0.000211       0.000000
      0.002036       0.000188       0.000000
      0.001998       0.000128       0.000000
      0.002208       0.000251       0.000000
      0.002324       0.000342       0.000000
      0.002213       0.000293       0.000000
      0.002132       0.000211       0.000000
      0.002132       0.000211       0.000000
      0.002213       0.000293       0.000000
      0.002075       0.000269       0.000000
      0.002036       0.000188       0.000000
      0.001961       0.000083       0.000000
      0.001998       0.000128       0.000000
      0.001930       0.000116       0.000000
      0.001909       0.000070       0.000000
      0.001998       0.000128       0.000000
      0.002036       0.000188       0.000000
      0.001947       0.000179       0.000000
      0.001930       0.000116       0.000000
      0.001909       0.000070       0.000000
      0.001930       0.000116       0.000000
      0.001869       0.000112       0.000000
      0.001863       0.000064       0.000000
      0.001930       0.000116       0.000000
      0.001947       0.000179       0.000000
      0.001871       0.000176       0.000000
      0.001869       0.000112       0.000000
      0.002036       0.000188       0.000000
      0.002055       0.000226       0.000000
      0.002002       0.000221       0.000000
      0.001990       0.000182       0.000000
      0.002055       0.000226       0.000000
      0.002075       0.000269       0.000000
      0.002014       0.000265       0.000000
      0.002002       0.000221       0.000000
      0.001990       0.000182       0.000000
      0.002002       0.000221       0.000000
      0.001954       0.000218       0.000000
      0.001947       0.000179       0.000000
      0.002002       0.000221       0.000000
      0.002014       0.000265       0.000000
      0.001961       0.000262       0.000000
      0.001954       0.000218       0.000000
      0.002075       0.000269       0.000000
      0.002096       0.000321       0.000000
      0.002027       0.000317       0.000000
      0.002014       0.000265       0.000000
      0.002096       0.000321       0.000000
      0.002120       0.000384       0.000000
      0.002048       0.000386       0.000000
      0.002027       0.000317       0.000000
      0.002014       0.000265       0.000000
      0.002027       0.000317       0.000000
      0.001970       0.000312       0.000000
      0.001961       0.000262       0.000000
      0.002027       0.000317       0.000000
      0.002048       0.000386       0.000000
      0.001981       0.000386       0.000000
      0.001970       0.000312       0.000000
      0.001947       0.000179       0.000000
      0.001954       0.000218       0.000000
      0.001912       0.000216       0.000000
      0.001908       0.000177       0.000000
      0.001954       0.000218       0.000000
      0.001961       0.000262       0.000000
      0.001916       0.000259       0.000000
      0.001912       0.000216       0.000000
      0.001908       0.000177       0.000000
      0.001912       0.000216       0.000000
      0.001872       0.000216       0.000000
      0.001871       0.000176       0.000000
      0.001912       0.000216       0.000000
      0.001916       0.000259       0.000000
      0.001877       0.000260       0.000000
      0.001872       0.000216       0.000000
      0.001961       0.000262       0.000000
      0.001970       0.000312       0.000000
      0.001922       0.000303       0.000000
      0.001916       0.000259       0.000000
      0.001970       0.000312       0.000000
      0.001981       0.000386       0.000000
      0.001728       0.000314       0.000000
      0.001922       0.000303       0.000000
      0.001916       0.000259       0.000000
      0.001922       0.000303       0.000000
      0.001917       0.000314       0.000000
      0.001877       0.000260       0.000000
      0.001922       0.000303       0.000000
      0.001728       0.000314       0.000000
      0.007152       0.000609       0.000000
      0.001917       0.000314       0.000000
      0.002213       0.000293       0.000000
      0.002265       0.000345       0.000000
      0.002178       0.000329       0.000000
      0.002143       0.000278       0.000000
      0.002265       0.000345       0.000000
      0.002335       0.000408       0.000000
      0.002220       0.000390       0.000000
      0.002178       0.000329       0.000000
      0.002143       0.000278       0.000000
      0.002178       0.000329       0.000000
      0.002096       0.000321       0.000000
      0.002075       0.000269       0.000000
      0.002178       0.000329       0.000000
      0.002220       0.000390       0.000000
      0.002120       0.000384       0.000000
      0.002096       0.000321       0.000000
      0.002228       0.000338       0.000000
      0.002334       0.000431       0.000000
      0.002362       0.000395       0.000000
      0.002242       0.000297       0.000000
      0.002334       0.000431       0.000000
      0.002447       0.000539       0.000000
      0.002511       0.000525       0.000000
      0.002362       0.000395       0.000000
      0.002242       0.000297       0.000000
      0.002362       0.000395       0.000000
      0.002324       0.000342       0.000000
      0.002208       0.000251       0.000000
      0.002362       0.000395       0.000000
      0.002511       0.000525       0.000000
      0.002495       0.000477       0.000000
      0.002324       0.000342       0.000000
      0.002324       0.000342       0.000000
      0.002399       0.000402       0.000000
      0.002343       0.000371       0.000000
      0.002276       0.000315       0.000000
      0.002399       0.000402       0.000000
      0.002495       0.000477       0.000000
      0.002434       0.000441       0.000000
      0.002343       0.000371       0.000000
      0.002276       0.000315       0.000000
      0.002343       0.000371       0.000000
      0.002265       0.000345       0.000000
      0.002213       0.000293       0.000000
      0.002343       0.000371       0.000000
      0.002434       0.000441       0.000000
      0.002335       0.000408       0.000000
      0.002265       0.000345       0.000000
      0.000000       0.000000       0.000000
      0.000000       0.000000       0.000000
      0.000569       0.000141       0.000000
      0.000575       0.000141       0.000000
      0.000000       0.000000       0.000000
      0.000000       0.000000       0.000000
      0.000569       0.000114       0.000000
      0.000569       0.000141       0.000000
      0.000575       0.000141       0.000000
      0.000569       0.000141       0.000000
      0.001158       0.000282       0.000000
      0.001139       0.000280       0.000000
      0.000569       0.000141       0.000000
      0.000569       0.000114       0.000000
      0.001191       0.000214       0.000000
      0.001158       0.000282       0.000000
      0.000000       0.000000       0.000000
      0.000000       0.000000       0.000000
      0.000585       0.000076       0.000000
      0.000569       0.000114       0.000000
      0.000000       0.000000       0.000000
      0.000000       0.000000       0.000000
      0.000608       0.000043       0.000000
      0.000585       0.000076       0.000000
      0.000569       0.000114       0.000000
      0.000585       0.000076       0.000000
      0.001245       0.000129       0.000000
      0.001191       0.000214       0.000000
      0.000585       0.000076       0.000000
      0.000608       0.000043       0.000000
      0.001303       0.000065       0.000000
      0.001245       0.000129       0.000000
      0.000000       0.000000       0.000000
      0.000000       0.000000       0.000000
      0.000628       0.000018       0.000000
      0.000608       0.000043       0.000000
      0.000000       0.000000       0.000000
      0.000000       0.000000       0.000000
      0.000635       0.000000       0.000000
      0.000628       0.000018       0.000000
      0.000608       0.000043       0.000000
      0.000628       0.000018       0.000000
      0.001344       0.000026       0.000000
      0.001303       0.000065       0.000000
      0.000628       0.000018       0.000000
      0.000635       0.000000       0.000000
      0.001358       0.000000       0.000000
      0.001344       0.000026       0.000000
      0.001139       0.000280       0.000000
      0.001158       0.000282       0.000000
      0.001773       0.000414       0.000000
      0.001696       0.000411       0.000000
      0.001158       0.000282       0.000000
      0.001191       0.000214       0.000000
      0.001878       0.000277       0.000000
      0.001773       0.000414       0.000000
      0.001696       0.000411       0.000000
      0.001773       0.000414       0.000000
      0.002447       0.000522       0.000000
      0.002227       0.000517       0.000000
      0.001773       0.000414       0.000000
      0.001878       0.000277       0.000000
      0.002715       0.000261       0.000000
      0.002447       0.000522       0.000000
      0.001191       0.000214       0.000000
      0.001245       0.000129       0.000000
      0.002004       0.000141       0.000000
      0.001878       0.000277       0.000000
      0.001245       0.000129       0.000000
      0.001303       0.000065       0.000000
      0.002109       0.000059       0.000000
      0.002004       0.000141       0.000000
      0.001878       0.000277       0.000000
      0.002004       0.000141       0.000000
      0.002933       0.000095       0.000000
      0.002715       0.000261       0.000000
      0.002004       0.000141       0.000000
      0.002109       0.000059       0.000000
      0.003068       0.000022       0.000000
      0.002933       0.000095       0.000000
      0.001303       0.000065       0.000000
      0.001344       0.000026       0.000000
      0.002173       0.000019       0.000000
      0.002109       0.000059       0.000000
      0.001344       0.000026       0.000000
      0.001358       0.000000       0.000000
      0.002195       0.000000       0.000000
      0.002173       0.000019       0.000000
      0.002109       0.000059       0.000000
      0.002173       0.000019       0.000000
      0.003140      -0.000000       0.000000
      0.003068       0.000022       0.000000
      0.002173       0.000019       0.000000
      0.002195       0.000000       0.000000
      0.003163       0.000000       0.000000
      0.003140      -0.000000       0.000000
      0.002715       0.000261       0.000000
      0.002933       0.000095       0.000000
      0.004128       0.000020       0.000000
      0.003966       0.000141       0.000000
      0.002933       0.000095       0.000000
      0.003068       0.000022       0.000000
      0.004206      -0.000019       0.000000
      0.004128       0.000020       0.000000
      0.003966       0.000141       0.000000
      0.004128       0.000020       0.000000
      0.005501       0.000017       0.000000
      0.005630       0.000133       0.000000
      0.004128       0.000020       0.000000
      0.004206      -0.000019       0.000000
      0.005440      -0.000020       0.000000
      0.005501       0.000017       0.000000
      0.003068       0.000022       0.000000
      0.003140      -0.000000       0.000000
      0.004242      -0.000018       0.000000
      0.004206      -0.000019       0.000000
      0.003140      -0.000000       0.000000
      0.003163       0.000000       0.000000
      0.004253       0.000000       0.000000