# vtk DataFile Version 2.0
time_10.vtk
ASCII
DATASET UNSTRUCTURED_GRID
POINTS  1524 float
      0.000000       0.000000       0.000000
      0.083333       0.000000       0.000000
      0.083333       0.083333       0.000000
      0.000000       0.083333       0.000000
      0.083333       0.000000       0.000000
      0.166667       0.000000       0.000000
      0.166667       0.083333       0.000000
      0.083333       0.083333       0.000000
      0.000000       0.083333       0.000000
      0.083333       0.083333       0.000000
      0.083333       0.166667       0.000000
      0.000000       0.166667       0.000000
      0.083333       0.083333       0.000000
      0.166667       0.083333       0.000000
      0.166667       0.166667       0.000000
      0.083333       0.166667       0.000000
      0.166667       0.000000       0.000000
      0.250000       0.000000       0.000000
      0.250000       0.083333       0.000000
      0.166667       0.083333       0.000000
      0.250000       0.000000       0.000000
      0.333333       0.000000       0.000000
      0.333333       0.083333       0.000000
      0.250000       0.083333       0.000000
      0.166667       0.083333       0.000000
      0.250000       0.083333       0.000000
      0.250000       0.166667       0.000000
      0.166667       0.166667       0.000000
      0.250000       0.083333       0.000000
      0.333333       0.083333       0.000000
      0.333333       0.166667       0.000000
      0.250000       0.166667       0.000000
      0.333333       0.000000       0.000000
      0.416667       0.000000       0.000000
      0.416667       0.083333       0.000000
      0.333333       0.083333       0.000000
      0.416667       0.000000       0.000000
      0.500000       0.000000       0.000000
      0.500000       0.083333       0.000000
      0.416667       0.083333       0.000000
      0.333333       0.083333       0.000000
      0.416667       0.083333       0.000000
      0.416667       0.166667       0.000000
      0.333333       0.166667       0.000000
      0.416667       0.083333       0.000000
      0.500000       0.083333       0.000000
      0.500000       0.166667       0.000000
      0.416667       0.166667       0.000000
      0.000000       0.166667       0.000000
      0.083333       0.166667       0.000000
      0.083333       0.250000       0.000000
      0.000000       0.250000       0.000000
      0.083333       0.166667       0.000000
      0.166667       0.166667       0.000000
      0.166667       0.250000       0.000000
      0.083333       0.250000       0.000000
      0.000000       0.250000       0.000000
      0.083333       0.250000       0.000000
      0.083333       0.333333       0.000000
      0.000000       0.333333       0.000000
      0.083333       0.250000       0.000000
      0.166667       0.250000       0.000000
      0.166667       0.333333       0.000000
      0.083333       0.333333       0.000000
      0.166667       0.166667       0.000000
      0.250000       0.166667       0.000000
      0.250000       0.250000       0.000000
      0.166667       0.250000       0.000000
      0.250000       0.166667       0.000000
      0.333333       0.166667       0.000000
      0.333333       0.250000       0.000000
      0.250000       0.250000       0.000000
      0.166667       0.250000       0.000000
      0.250000       0.250000       0.000000
      0.250000       0.333333       0.000000
      0.166667       0.333333       0.000000
      0.250000       0.250000       0.000000
      0.333333       0.250000       0.000000
      0.333333       0.333333       0.000000
      0.250000       0.333333       0.000000
      0.333333       0.166667       0.000000
      0.416667       0.166667       0.000000
      0.416667       0.250000       0.000000
      0.333333       0.250000       0.000000
      0.416667       0.166667       0.000000
      0.500000       0.166667       0.000000
      0.500000       0.250000       0.000000
      0.416667       0.250000       0.000000
      0.333333       0.250000       0.000000
      0.416667       0.250000       0.000000
      0.416667       0.333333       0.000000
      0.333333       0.333333       0.000000
      0.000000       0.333333       0.000000
      0.083333       0.333333       0.000000
      0.083333       0.416667       0.000000
      0.000000       0.416667       0.000000
      0.083333       0.333333       0.000000
      0.166667       0.333333       0.000000
      0.166667       0.416667       0.000000
      0.083333       0.416667       0.000000
      0.000000       0.416667       0.000000
      0.083333       0.416667       0.000000
      0.083333       0.500000       0.000000
      0.000000       0.500000       0.000000
      0.083333       0.416667       0.000000
      0.166667       0.416667       0.000000
      0.166667       0.500000       0.000000
      0.083333       0.500000       0.000000
      0.166667       0.333333       0.000000
      0.250000       0.333333       0.000000
      0.250000       0.416667       0.000000
      0.166667       0.416667       0.000000
      0.250000       0.333333       0.000000
      0.333333       0.333333       0.000000
      0.333333       0.416667       0.000000
      0.250000       0.416667       0.000000
      0.166667       0.416667       0.000000
      0.250000       0.416667       0.000000
      0.250000       0.500000       0.000000
      0.166667       0.500000       0.000000
      0.250000       0.416667       0.000000
      0.333333       0.416667       0.000000
      0.333333       0.500000       0.000000
      0.250000       0.500000       0.000000
      0.333333       0.333333       0.000000
      0.375000       0.333333       0.000000
      0.375000       0.375000       0.000000
      0.333333       0.375000       0.000000
      0.375000       0.333333       0.000000
      0.416667       0.333333       0.000000
      0.416667       0.375000       0.000000
      0.375000       0.375000       0.000000
      0.333333       0.375000       0.000000
      0.375000       0.375000       0.000000
      0.375000       0.416667       0.000000
      0.333333       0.416667       0.000000
      0.375000       0.375000       0.000000
      0.416667       0.375000       0.000000
      0.416667       0.416667       0.000000
      0.375000       0.416667       0.000000
      0.416667       0.333333       0.000000
      0.458333       0.333333       0.000000
      0.458333       0.375000       0.000000
      0.416667       0.375000       0.000000
      0.416667       0.375000       0.000000
      0.458333       0.375000       0.000000
      0.458333       0.416667       0.000000
      0.416667       0.416667       0.000000
      0.333333       0.416667       0.000000
      0.375000       0.416667       0.000000
      0.375000       0.458333       0.000000
      0.333333       0.458333       0.000000
      0.375000       0.416667       0.000000
      0.416667       0.416667       0.000000
      0.416667       0.458333       0.000000
      0.375000       0.458333       0.000000
      0.333333       0.458333       0.000000
      0.375000       0.458333       0.000000
      0.375000       0.500000       0.000000
      0.333333       0.500000       0.000000
      0.375000       0.458333       0.000000
      0.416667       0.458333       0.000000
      0.416667       0.500000       0.000000
      0.375000       0.500000       0.000000
      0.416667       0.416667       0.000000
      0.437500       0.416667       0.000000
      0.437500       0.437500       0.000000
      0.416667       0.437500       0.000000
      0.437500       0.416667       0.000000
      0.458333       0.416667       0.000000
      0.458333       0.437500       0.000000
      0.437500       0.437500       0.000000
      0.416667       0.437500       0.000000
      0.437500       0.437500       0.000000
      0.437500       0.458333       0.000000
      0.416667       0.458333       0.000000
      0.437500       0.437500       0.000000
      0.458333       0.437500       0.000000
      0.458333       0.458333       0.000000
      0.437500       0.458333       0.000000
      0.458333       0.416667       0.000000
      0.479167       0.416667       0.000000
      0.479167       0.437500       0.000000
      0.458333       0.437500       0.000000
      0.458333       0.437500       0.000000
      0.479167       0.437500       0.000000
      0.479167       0.458333       0.000000
      0.458333       0.458333       0.000000
      0.416667       0.458333       0.000000
      0.437500       0.458333       0.000000
      0.437500       0.479167       0.000000
      0.416667       0.479167       0.000000
      0.437500       0.458333       0.000000
      0.458333       0.458333       0.000000
      0.458333       0.479167       0.000000
      0.437500       0.479167       0.000000
      0.416667       0.479167       0.000000
      0.437500       0.479167       0.000000
      0.437500       0.500000       0.000000
      0.416667       0.500000       0.000000
      0.437500       0.479167       0.000000
      0.458333       0.479167       0.000000
      0.458333       0.500000       0.000000
      0.437500       0.500000       0.000000
      0.458333       0.458333       0.000000
      0.468750       0.458333       0.000000
      0.468750       0.468750       0.000000
      0.458333       0.468750       0.000000
      0.468750       0.458333       0.000000
      0.479167       0.458333       0.000000
      0.479167       0.468750       0.000000
      0.468750       0.468750       0.000000
      0.458333       0.468750       0.000000
      0.468750       0.468750       0.000000
      0.468750       0.479167       0.000000
      0.458333       0.479167       0.000000
      0.468750       0.468750       0.000000
      0.479167       0.468750       0.000000
      0.479167       0.479167       0.000000
      0.468750       0.479167       0.000000
[...]
POINT_DATA  1524
VECTORS U float 
      0.000000       0.000000       0.000000
      0.000000       0.000000       0.000000
      0.000383       0.000005       0.000000
      0.000374       0.000000       0.000000
      0.000000       0.000000       0.000000
      0.000000       0.000000       0.000000
      0.000408       0.000014       0.000000
      0.000383       0.000005       0.000000
      0.000374       0.000000       0.000000
      0.000383       0.000005       0.000000
      0.000704       0.000000       0.000000
      0.000690       0.000000       0.000000
      0.000383       0.000005       0.000000
      0.000408       0.000014       0.000000
      0.000746       0.000007       0.000000
      0.000704       0.000000       0.000000
      0.000000       0.000000       0.000000
      0.000000       0.000000       0.000000
      0.000449       0.000031       0.000000
      0.000408       0.000014       0.000000
      0.000000       0.000000       0.000000
      0.000000       0.000000       0.000000
      0.000500       0.000061       0.000000
      0.000449       0.000031       0.000000
      0.000408       0.000014       0.000000
      0.000449       0.000031       0.000000
      0.000817       0.000029       0.000000
      0.000746       0.000007       0.000000
      0.000449       0.000031       0.000000
      0.000500       0.000061       0.000000
      0.000912       0.000080       0.000000
      0.000817       0.000029       0.000000
      0.000000       0.000000       0.000000
      0.000000       0.000000       0.000000
      0.000547       0.000106       0.000000
      0.000500       0.000061       0.000000
      0.000000       0.000000       0.000000
      0.000000       0.000000       0.000000
      0.000574       0.000155       0.000000
      0.000547       0.000106       0.000000
      0.000500       0.000061       0.000000
      0.000547       0.000106       0.000000
      0.001021       0.000173       0.000000
      0.000912       0.000080       0.000000
      0.000547       0.000106       0.000000
      0.000574       0.000155       0.000000
      0.001111       0.000296       0.000000
      0.001021       0.000173       0.000000
      0.000690       0.000000       0.000000
      0.000704       0.000000       0.000000
      0.000949      -0.000012       0.000000
      0.000933       0.000000       0.000000
      0.000704       0.000000       0.000000
      0.000746       0.000007       0.000000
      0.000998      -0.000017       0.000000
      0.000949      -0.000012       0.000000
      0.000933       0.000000       0.000000
      0.000949      -0.000012       0.000000
      0.001115      -0.000027       0.000000
      0.001101       0.000000       0.000000
      0.000949      -0.000012       0.000000
      0.000998      -0.000017       0.000000
      0.001159      -0.000047       0.000000
      0.001115      -0.000027       0.000000
      0.000746       0.000007       0.000000
      0.000817       0.000029       0.000000
      0.001083      -0.000002       0.000000
      0.000998      -0.000017       0.000000
      0.000817       0.000029       0.000000
      0.000912       0.000080       0.000000
      0.001211       0.000051       0.000000
      0.001083      -0.000002       0.000000
      0.000998      -0.000017       0.000000
      0.001083      -0.000002       0.000000
      0.001237      -0.000049       0.000000
      0.001159      -0.000047       0.000000
      0.001083      -0.000002       0.000000
      0.001211       0.000051       0.000000
      0.001358      -0.000014       0.000000
      0.001237      -0.000049       0.000000
      0.000912       0.000080       0.000000
      0.001021       0.000173       0.000000
      0.001389       0.000173       0.000000
      0.001211       0.000051       0.000000
      0.001021       0.000173       0.000000
      0.001111       0.000296       0.000000
      0.001601       0.000391       0.000000
      0.001389       0.000173       0.000000
      0.001211       0.000051       0.000000
      0.001389       0.000173       0.000000
      0.001546       0.000088       0.000000
      0.001358      -0.000014       0.000000
      0.001101       0.000000       0.000000
      0.001115      -0.000027       0.000000
      0.001216      -0.000039       0.000000
      0.001206       0.000000       0.000000
      0.001115      -0.000027       0.000000
      0.001159      -0.000047       0.000000
      0.001244      -0.000071       0.000000
      0.001216      -0.000039       0.000000
      0.001206       0.000000       0.000000
      0.001216      -0.000039       0.000000
      0.001272      -0.000045       0.000000
      0.001267       0.000000       0.000000
      0.001216      -0.000039       0.000000
      0.001244      -0.000071       0.000000
      0.001285      -0.000083       0.000000
      0.001272      -0.000045       0.000000
      0.001159      -0.000047       0.000000
      0.001237      -0.000049       0.000000
      0.001292      -0.000087       0.000000
      0.001244      -0.000071       0.000000
      0.001237      -0.000049       0.000000
      0.001358      -0.000014       0.000000
      0.001361      -0.000070       0.000000
      0.001292      -0.000087       0.000000
      0.001244      -0.000071       0.000000
      0.001292      -0.000087       0.000000
      0.001301      -0.000104       0.000000
      0.001285      -0.000083       0.000000
      0.001292      -0.000087       0.000000
      0.001361      -0.000070       0.000000
      0.001309      -0.000088       0.000000
      0.001301      -0.000104       0.000000
      0.001358      -0.000014       0.000000
      0.001441       0.000026       0.000000
      0.001439      -0.000013       0.000000
      0.001373      -0.000046       0.000000
      0.001441       0.000026       0.000000
      0.001546       0.000088       0.000000
      0.001519       0.000041       0.000000
      0.001439      -0.000013       0.000000
      0.001373      -0.000046       0.000000
      0.001439      -0.000013       0.000000
      0.001403      -0.000040       0.000000
      0.001361      -0.000070       0.000000
      0.001439      -0.000013       0.000000
      0.001519       0.000041       0.000000
      0.001449       0.000012       0.000000
      0.001403      -0.000040       0.000000
      0.001546       0.000088       0.000000
      0.001683       0.000186       0.000000
      0.001618       0.000124       0.000000
      0.001519       0.000041       0.000000
      0.001519       0.000041       0.000000
      0.001618       0.000124       0.000000
      0.001493       0.000094       0.000000
      0.001449       0.000012       0.000000
      0.001361      -0.000070       0.000000
      0.001403      -0.000040       0.000000
      0.001354      -0.000053       0.000000
      0.001335      -0.000084       0.000000
      0.001403      -0.000040       0.000000
      0.001449       0.000012       0.000000
      0.001371       0.000002       0.000000
      0.001354      -0.000053       0.000000
      0.001335      -0.000084       0.000000
      0.001354      -0.000053       0.000000
      0.001306      -0.000055       0.000000
      0.001309      -0.000088       0.000000
      0.001354      -0.000053       0.000000
      0.001371       0.000002       0.000000
      0.001299       0.000002       0.000000
      0.001306      -0.000055       0.000000
      0.001449       0.000012       0.000000
      0.001471       0.000049       0.000000
      0.001423       0.000044       0.000000
      0.001409       0.000006       0.000000
      0.001471       0.000049       0.000000
      0.001493       0.000094       0.000000
      0.001435       0.000090       0.000000
      0.001423       0.000044       0.000000
      0.001409       0.000006       0.000000
      0.001423       0.000044       0.000000
      0.001378       0.000042       0.000000
      0.001371       0.000002       0.000000
      0.001423       0.000044       0.000000
      0.001435       0.000090       0.000000
      0.001383       0.000089       0.000000
      0.001378       0.000042       0.000000
      0.001493       0.000094       0.000000
      0.001514       0.000152       0.000000
      0.001445       0.000148       0.000000
      0.001435       0.000090       0.000000
      0.001435       0.000090       0.000000
      0.001445       0.000148       0.000000
      0.001389       0.000145       0.000000
      0.001383       0.000089       0.000000
      0.001371       0.000002       0.000000
      0.001378       0.000042       0.000000
      0.001336       0.000041       0.000000
      0.001334       0.000001       0.000000
      0.001378       0.000042       0.000000
      0.001383       0.000089       0.000000
      0.001338       0.000088       0.000000
      0.001336       0.000041       0.000000
      0.001334       0.000001       0.000000
      0.001336       0.000041       0.000000
      0.001295       0.000041       0.000000
      0.001299       0.000002       0.000000
      0.001336       0.000041       0.000000
      0.001338       0.000088       0.000000
      0.001292       0.000088       0.000000
      0.001295       0.000041       0.000000
      0.001383       0.000089       0.000000
      0.001386       0.000116       0.000000
      0.001362       0.000115       0.000000
      0.001360       0.000089       0.000000
      0.001386       0.000116       0.000000
      0.001389       0.000145       0.000000
      0.001364       0.000144       0.000000
      0.001362       0.000115       0.000000
      0.001360       0.000089       0.000000
      0.001362       0.000115       0.000000
      0.001339       0.000114       0.000000
      0.001338       0.000088       0.000000
      0.001362       0.000115       0.000000
      0.001364       0.000144       0.000000
      0.001341       0.000142       0.000000
      0.001339       0.000114       0.000000
      0.001389       0.000145       0.000000
      0.001393       0.000177       0.000000
      0.001368       0.000175       0.000000
      0.001364       0.000144       0.000000
      0.001393       0.000177       0.000000
      0.001399       0.000213       0.000000
      0.001376       0.000216       0.000000
      0.001368       0.000175       0.000000
      0.001364       0.000144       0.000000
      0.001368       0.000175       0.000000
      0.001345       0.000171       0.000000
      0.001341       0.000142       0.000000
      0.001368       0.000175       0.000000
      0.001376       0.000216       0.000000
      0.001342       0.000217       0.000000
      0.001345       0.000171       0.000000
      0.001338       0.000088       0.000000
      0.001339       0.000114       0.000000
      0.001317       0.000114       0.000000
      0.001316       0.000088       0.000000
      0.001339       0.000114       0.000000
      0.001341       0.000142       0.000000
      0.001319       0.000139       0.000000
      0.001317       0.000114       0.000000
      0.001316       0.000088       0.000000
      0.001317       0.000114       0.000000
      0.001293       0.000114       0.000000
      0.001292       0.000088       0.000000
      0.001317       0.000114       0.000000
      0.001319       0.000139       0.000000
      0.001299       0.000142       0.000000
      0.001293       0.000114       0.000000
      0.001341       0.000142       0.000000
      0.001345       0.000171       0.000000
      0.001322       0.000162       0.000000
      0.001319       0.000139       0.000000
      0.001345       0.000171       0.000000
      0.001342       0.000217       0.000000
      0.001049       0.000169       0.000000
      0.001322       0.000162       0.000000
      0.001319       0.000139       0.000000
      0.001322       0.000162       0.000000
      0.001348       0.000177       0.000000
      0.001299       0.000142       0.000000
      0.001322       0.000162       0.000000
      0.001049       0.000169       0.000000
      0.007964       0.000747       0.000000
      0.001348       0.000177       0.000000
      0.001445       0.000148       0.000000
      0.001450       0.000182       0.000000
      0.001420       0.000180       0.000000
      0.001416       0.000147       0.000000
      0.001450       0.000182       0.000000
      0.001455       0.000220       0.000000
      0.001425       0.000217       0.000000
      0.001420       0.000180       0.000000
      0.001416       0.000147       0.000000
      0.001420       0.000180       0.000000
      0.001393       0.000177       0.000000
      0.001389       0.000145       0.000000
      0.001420       0.000180       0.000000
      0.001425       0.000217       0.000000
      0.001399       0.000213       0.000000
      0.001393       0.000177       0.000000
      0.001618       0.000124       0.000000
      0.001678       0.000182       0.000000
      0.001596       0.000161       0.000000
      0.001557       0.000105       0.000000
      0.001678       0.000182       0.000000
      0.001752       0.000258       0.000000
      0.001636       0.000234       0.000000
      0.001596       0.000161       0.000000
      0.001557       0.000105       0.000000
      0.001596       0.000161       0.000000
      0.001514       0.000152       0.000000
      0.001493       0.000094       0.000000
      0.001514       0.000152       0.000000
      0.001524       0.000186       0.000000
      0.001484       0.000184       0.000000
      0.001478       0.000150       0.000000
      0.001524       0.000186       0.000000
      0.001533       0.000226       0.000000
      0.001491       0.000223       0.000000
      0.001484       0.000184       0.000000
      0.001478       0.000150       0.000000
      0.001484       0.000184       0.000000
      0.001450       0.000182       0.000000
      0.001445       0.000148       0.000000
      0.001484       0.000184       0.000000
      0.001491       0.000223       0.000000
      0.001455       0.000220       0.000000
      0.001450       0.000182       0.000000
      0.001596       0.000161       0.000000
      0.001616       0.000195       0.000000
      0.001568       0.000190       0.000000
      0.001554       0.000155       0.000000
      0.001616       0.000195       0.000000
      0.001636       0.000234       0.000000
      0.001582       0.000229       0.000000
      0.001568       0.000190       0.000000
      0.001554       0.000155       0.000000
      0.001568       0.000190       0.000000
      0.001524       0.000186       0.000000
      0.001514       0.000152       0.000000
      0.001568       0.000190       0.000000
      0.001582       0.000229       0.000000
      0.001533       0.000226       0.000000
      0.001524       0.000186       0.000000
      0.001389       0.000173       0.000000
      0.001495       0.000271       0.000000
      0.001636       0.000245       0.000000
      0.001502       0.000138       0.000000
      0.001495       0.000271       0.000000
      0.001601       0.000391       0.000000
      0.001792       0.000397       0.000000
      0.001636       0.000245       0.000000
      0.001502       0.000138       0.000000
      0.001636       0.000245       0.000000
      0.001683       0.000186       0.000000
      0.001546       0.000088       0.000000
      0.001636       0.000245       0.000000
      0.001792       0.000397       0.000000
      0.001876       0.000346       0.000000
      0.001683       0.000186       0.000000
      0.001683       0.000186       0.000000
      0.001770       0.000255       0.000000
      0.001742       0.000216       0.000000
      0.001663       0.000153       0.000000
      0.001770       0.000255       0.000000
      0.001876       0.000346       0.000000
      0.001842       0.000300       0.000000
      0.001742       0.000216       0.000000
      0.001663       0.000153       0.000000
      0.001742       0.000216       0.000000
      0.001678       0.000182       0.000000
      0.001618       0.000124       0.000000
      0.001742       0.000216       0.000000
      0.001842       0.000300       0.000000
      0.001752       0.000258       0.000000
      0.001678       0.000182       0.000000
      0.000000       0.000000       0.000000
      0.000000       0.000000       0.000000
      0.000574       0.000179       0.000000
      0.000574       0.000155       0.000000
      0.000000       0.000000       0.000000
      0.000000       0.000000       0.000000
      0.000572       0.000155       0.000000
      0.000574       0.000179       0.000000
      0.000574       0.000155       0.000000
      0.000574       0.000179       0.000000
      0.001157       0.000361       0.000000
      0.001111       0.000296       0.000000
      0.000574       0.000179       0.000000
      0.000572       0.000155       0.000000
      0.001201       0.000294       0.000000
      0.001157       0.000361       0.000000
      0.000000       0.000000       0.000000
      0.000000       0.000000       0.000000
      0.000590       0.000103       0.000000
      0.000572       0.000155       0.000000
      0.000000       0.000000       0.000000
      0.000000       0.000000       0.000000
      0.000622       0.000057       0.000000
      0.000590       0.000103       0.000000
      0.000572       0.000155       0.000000
      0.000590       0.000103       0.000000
      0.001279       0.000175       0.000000
      0.001201       0.000294       0.000000
      0.000590       0.000103       0.000000
      0.000622       0.000057       0.000000
      0.001362       0.000084       0.000000
      0.001279       0.000175       0.000000
      0.000000       0.000000       0.000000
      0.000000       0.000000       0.000000
      0.000650       0.000024       0.000000
      0.000622       0.000057       0.000000
      0.000000       0.000000       0.000000
      0.000000       0.000000       0.000000
      0.000661       0.000000       0.000000
      0.000650       0.000024       0.000000
      0.000622       0.000057       0.000000
      0.000650       0.000024       0.000000
      0.001421       0.000031       0.000000
      0.001362       0.000084       0.000000
      0.000650       0.000024       0.000000
      0.000661       0.000000       0.000000
      0.001442       0.000000       0.000000
      0.001421       0.000031       0.000000
      0.001111       0.000296       0.000000
      0.001157       0.000361       0.000000
      0.001758       0.000546       0.000000
      0.001601       0.000391       0.000000
      0.001157       0.000361       0.000000
      0.001201       0.000294       0.000000
      0.001920       0.000383       0.000000
      0.001758       0.000546       0.000000
      0.001201       0.000294       0.000000
      0.001279       0.000175       0.000000
      0.002115       0.000183       0.000000
      0.001920       0.000383       0.000000
      0.001279       0.000175       0.000000
      0.001362       0.000084       0.000000
      0.002264       0.000069       0.000000
      0.002115       0.000183       0.000000
      0.001920       0.000383       0.000000
      0.002115       0.000183       0.000000
      0.003238       0.000113       0.000000
      0.002949       0.000338       0.000000
      0.002115       0.000183       0.000000
      0.002264       0.000069       0.000000
      0.003392       0.000023       0.000000
      0.003238       0.000113       0.000000
      0.001362       0.000084       0.000000
      0.001421       0.000031       0.000000
      0.002351       0.000020       0.000000
      0.002264       0.000069       0.000000
      0.001421       0.000031       0.000000
      0.001442       0.000000       0.000000
      0.002379       0.000000       0.000000
      0.002351       0.000020       0.000000
      0.002264       0.000069       0.000000
      0.002351       0.000020       0.000000
      0.003468      -0.000002       0.000000