# vtk DataFile Version 2.0
time_10.vtk
ASCII
DATASET UNSTRUCTURED_GRID
POINTS  1344 float
      0.000000       0.000000       0.000000
      0.083333       0.000000       0.000000
      0.083333       0.083333       0.000000
      0.000000       0.083333       0.000000
      0.083333       0.000000       0.000000
      0.166667       0.000000       0.000000
      0.166667       0.083333       0.000000
      0.083333       0.083333       0.000000
      0.000000       0.083333       0.000000
      0.083333       0.083333       0.000000
      0.083333       0.166667       0.000000
      0.000000       0.166667       0.000000
      0.083333       0.083333       0.000000
      0.166667       0.083333       0.000000
      0.166667       0.166667       0.000000
      0.083333       0.166667       0.000000
      0.166667       0.000000       0.000000
      0.250000       0.000000       0.000000
      0.250000       0.083333       0.000000
      0.166667       0.083333       0.000000
      0.250000       0.000000       0.000000
      0.333333       0.000000       0.000000
      0.333333       0.083333       0.000000
      0.250000       0.083333       0.000000
      0.166667       0.083333       0.000000
      0.250000       0.083333       0.000000
      0.250000       0.166667       0.000000
      0.166667       0.166667       0.000000
      0.250000       0.083333       0.000000
      0.333333       0.083333       0.000000
      0.333333       0.166667       0.000000
      0.250000       0.166667       0.000000
      0.333333       0.000000       0.000000
      0.416667       0.000000       0.000000
      0.416667       0.083333       0.000000
      0.333333       0.083333       0.000000
      0.416667       0.000000       0.000000
      0.500000       0.000000       0.000000
      0.500000       0.083333       0.000000
      0.416667       0.083333       0.000000
      0.333333       0.083333       0.000000
      0.416667       0.083333       0.000000
      0.416667       0.166667       0.000000
      0.333333       0.166667       0.000000
      0.416667       0.083333       0.000000
      0.500000       0.083333       0.000000
      0.500000       0.166667       0.000000
      0.416667       0.166667       0.000000
      0.000000       0.166667       0.000000
      0.083333       0.166667       0.000000
      0.083333       0.250000       0.000000
      0.000000       0.250000       0.000000
      0.083333       0.166667       0.000000
      0.166667       0.166667       0.000000
      0.166667       0.250000       0.000000
      0.083333       0.250000       0.000000
      0.000000       0.250000       0.000000
      0.083333       0.250000       0.000000
      0.083333       0.333333       0.000000
      0.000000       0.333333       0.000000
      0.083333       0.250000       0.000000
      0.166667       0.250000       0.000000
      0.166667       0.333333       0.000000
      0.083333       0.333333       0.000000
      0.166667       0.166667       0.000000
      0.250000       0.166667       0.000000
      0.250000       0.250000       0.000000
      0.166667       0.250000       0.000000
      0.250000       0.166667       0.000000
      0.333333       0.166667       0.000000
      0.333333       0.250000       0.000000
      0.250000       0.250000       0.000000
      0.166667       0.250000       0.000000
      0.250000       0.250000       0.000000
      0.250000       0.333333       0.000000
      0.166667       0.333333       0.000000
      0.250000       0.250000       0.000000
      0.333333       0.250000       0.000000
      0.333333       0.333333       0.000000
      0.250000       0.333333       0.000000
      0.333333       0.166667       0.000000
      0.416667       0.166667       0.000000
      0.416667       0.250000       0.000000
      0.333333       0.250000       0.000000
      0.416667       0.166667       0.000000
      0.500000       0.166667       0.000000
      0.500000       0.250000       0.000000
      0.416667       0.250000       0.000000
      0.333333       0.250000       0.000000
      0.416667       0.250000       0.000000
      0.416667       0.333333       0.000000
      0.333333       0.333333       0.000000
      0.416667       0.250000       0.000000
      0.500000       0.250000       0.000000
      0.500000       0.333333       0.000000
      0.416667       0.333333       0.000000
      0.000000       0.333333       0.000000
      0.083333       0.333333       0.000000
      0.083333       0.416667       0.000000
      0.000000       0.416667       0.000000
      0.083333       0.333333       0.000000
      0.166667       0.333333       0.000000
      0.166667       0.416667       0.000000
      0.083333       0.416667       0.000000
      0.000000       0.416667       0.000000
      0.083333       0.416667       0.000000
      0.083333       0.500000       0.000000
      0.000000       0.500000       0.000000
      0.083333       0.416667       0.000000
      0.166667       0.416667       0.000000
      0.166667       0.500000       0.000000
      0.083333       0.500000       0.000000
      0.166667       0.333333       0.000000
      0.250000       0.333333       0.000000
      0.250000       0.416667       0.000000
      0.166667       0.416667       0.000000
      0.250000       0.333333       0.000000
      0.333333       0.333333       0.000000
      0.333333       0.416667       0.000000
      0.250000       0.416667       0.000000
      0.166667       0.416667       0.000000
      0.250000       0.416667       0.000000
      0.250000       0.500000       0.000000
      0.166667       0.500000       0.000000
      0.250000       0.416667       0.000000
      0.333333       0.416667       0.000000
      0.333333       0.500000       0.000000
      0.250000       0.500000       0.000000
      0.333333       0.333333       0.000000
      0.375000       0.333333       0.000000
      0.375000       0.375000       0.000000
      0.333333       0.375000       0.000000
      0.375000       0.333333       0.000000
      0.416667       0.333333       0.000000
      0.416667       0.375000       0.000000
      0.375000       0.375000       0.000000
      0.333333       0.375000       0.000000
      0.375000       0.375000       0.000000
      0.375000       0.416667       0.000000
      0.333333       0.416667       0.000000
      0.375000       0.375000       0.000000
      0.416667       0.375000       0.000000
      0.416667       0.416667       0.000000
      0.375000       0.416667       0.000000
      0.416667       0.333333       0.000000
      0.458333       0.333333       0.000000
      0.458333       0.375000       0.000000
      0.416667       0.375000       0.000000
      0.458333       0.333333       0.000000
      0.500000       0.333333       0.000000
      0.500000       0.375000       0.000000
      0.458333       0.375000       0.000000
      0.416667       0.375000       0.000000
      0.458333       0.375000       0.000000
      0.458333       0.416667       0.000000
      0.416667       0.416667       0.000000
      0.333333       0.416667       0.000000
      0.375000       0.416667       0.000000
      0.375000       0.458333       0.000000
      0.333333       0.458333       0.000000
      0.375000       0.416667       0.000000
      0.416667       0.416667       0.000000
      0.416667       0.458333       0.000000
      0.375000       0.458333       0.000000
      0.333333       0.458333       0.000000
      0.375000       0.458333       0.000000
      0.375000       0.500000       0.000000
      0.333333       0.500000       0.000000
      0.375000       0.458333       0.000000
      0.416667       0.458333       0.000000
      0.416667       0.500000       0.000000
      0.375000       0.500000       0.000000
      0.416667       0.416667       0.000000
      0.437500       0.416667       0.000000
      0.437500       0.437500       0.000000
      0.416667       0.437500       0.000000
      0.437500       0.416667       0.000000
      0.458333       0.416667       0.000000
      0.458333       0.437500       0.000000
      0.437500       0.437500       0.000000
      0.416667       0.437500       0.000000
      0.437500       0.437500       0.000000
      0.437500       0.458333       0.000000
      0.416667       0.458333       0.000000
      0.437500       0.437500       0.000000
      0.458333       0.437500       0.000000
      0.458333       0.458333       0.000000
      0.437500       0.458333       0.000000
      0.458333       0.416667       0.000000
      0.479167       0.416667       0.000000
      0.479167       0.437500       0.000000
      0.458333       0.437500       0.000000
      0.458333       0.437500       0.000000
      0.479167       0.437500       0.000000
      0.479167       0.458333       0.000000
      0.458333       0.458333       0.000000
      0.416667       0.458333       0.000000
      0.437500       0.458333       0.000000
      0.437500       0.479167       0.000000
      0.416667       0.479167       0.000000
      0.437500       0.458333       0.000000
      0.458333       0.458333       0.000000
      0.458333       0.479167       0.000000
      0.437500       0.479167       0.000000
      0.416667       0.479167       0.000000
      0.437500       0.479167       0.000000
      0.437500       0.500000       0.000000
      0.416667       0.500000       0.000000
      0.437500       0.479167       0.000000
      0.458333       0.479167       0.000000
      0.458333       0.500000       0.000000
      0.437500       0.500000       0.000000
      0.458333       0.458333       0.000000
      0.468750       0.458333       0.000000
      0.468750       0.468750       0.000000
      0.458333       0.468750       0.000000
      0.468750       0.458333       0.000000
      0.479167       0.458333       0.000000
      0.479167       0.468750       0.000000
      0.468750       0.468750       0.000000
[...]
POINT_DATA  1344
VECTORS U float 
      0.000000       0.000000       0.000000
      0.000000       0.000000       0.000000
      0.000446       0.000010       0.000000
      0.000438       0.000000       0.000000
      0.000000       0.000000       0.000000
      0.000000       0.000000       0.000000
      0.000468       0.000024       0.000000
      0.000446       0.000010       0.000000
      0.000438       0.000000       0.000000
      0.000446       0.000010       0.000000
      0.000825       0.000010       0.000000
      0.000812       0.000000       0.000000
      0.000446       0.000010       0.000000
      0.000468       0.000024       0.000000
      0.000864       0.000027       0.000000
      0.000825       0.000010       0.000000
      0.000000       0.000000       0.000000
      0.000000       0.000000       0.000000
      0.000501       0.000044       0.000000
      0.000468       0.000024       0.000000
      0.000000       0.000000       0.000000
      0.000000       0.000000       0.000000
      0.000537       0.000075       0.000000
      0.000501       0.000044       0.000000
      0.000468       0.000024       0.000000
      0.000501       0.000044       0.000000
      0.000926       0.000060       0.000000
      0.000864       0.000027       0.000000
      0.000501       0.000044       0.000000
      0.000537       0.000075       0.000000
      0.001004       0.000119       0.000000
      0.000926       0.000060       0.000000
      0.000000       0.000000       0.000000
      0.000000       0.000000       0.000000
      0.000566       0.000114       0.000000
      0.000537       0.000075       0.000000
      0.000000       0.000000       0.000000
      0.000000       0.000000       0.000000
      0.000575       0.000147       0.000000
      0.000566       0.000114       0.000000
      0.000537       0.000075       0.000000
      0.000566       0.000114       0.000000
      0.001082       0.000206       0.000000
      0.001004       0.000119       0.000000
      0.000566       0.000114       0.000000
      0.000575       0.000147       0.000000
      0.001134       0.000291       0.000000
      0.001082       0.000206       0.000000
      0.000812       0.000000       0.000000
      0.000825       0.000010       0.000000
      0.001122       0.000002       0.000000
      0.001105       0.000000       0.000000
      0.000825       0.000010       0.000000
      0.000864       0.000027       0.000000
      0.001172       0.000012       0.000000
      0.001122       0.000002       0.000000
      0.001105       0.000000       0.000000
      0.001122       0.000002       0.000000
      0.001330      -0.000012       0.000000
      0.001313       0.000000       0.000000
      0.001122       0.000002       0.000000
      0.001172       0.000012       0.000000
      0.001381      -0.000015       0.000000
      0.001330      -0.000012       0.000000
      0.000864       0.000027       0.000000
      0.000926       0.000060       0.000000
      0.001258       0.000045       0.000000
      0.001172       0.000012       0.000000
      0.000926       0.000060       0.000000
      0.001004       0.000119       0.000000
      0.001381       0.000117       0.000000
      0.001258       0.000045       0.000000
      0.001172       0.000012       0.000000
      0.001258       0.000045       0.000000
      0.001473       0.000002       0.000000
      0.001381      -0.000015       0.000000
      0.001258       0.000045       0.000000
      0.001381       0.000117       0.000000
      0.001619       0.000061       0.000000
      0.001473       0.000002       0.000000
      0.001004       0.000119       0.000000
      0.001082       0.000206       0.000000
      0.001534       0.000250       0.000000
      0.001381       0.000117       0.000000
      0.001082       0.000206       0.000000
      0.001134       0.000291       0.000000
      0.001676       0.000419       0.000000
      0.001534       0.000250       0.000000
      0.001381       0.000117       0.000000
      0.001534       0.000250       0.000000
      0.001842       0.000202       0.000000
      0.001619       0.000061       0.000000
      0.001534       0.000250       0.000000
      0.001676       0.000419       0.000000
      0.002161       0.000496       0.000000
      0.001842       0.000202       0.000000
      0.001313       0.000000       0.000000
      0.001330      -0.000012       0.000000
      0.001455      -0.000026       0.000000
      0.001441       0.000000       0.000000
      0.001330      -0.000012       0.000000
      0.001381      -0.000015       0.000000
      0.001497      -0.000044       0.000000
      0.001455      -0.000026       0.000000
      0.001441       0.000000       0.000000
      0.001455      -0.000026       0.000000
      0.001514      -0.000036       0.000000
      0.001505       0.000000       0.000000
      0.001455      -0.000026       0.000000
      0.001497      -0.000044       0.000000
      0.001543      -0.000064       0.000000
      0.001514      -0.000036       0.000000
      0.001381      -0.000015       0.000000
      0.001473       0.000002       0.000000
      0.001569      -0.000046       0.000000
      0.001497      -0.000044       0.000000
      0.001473       0.000002       0.000000
      0.001619       0.000061       0.000000
      0.001679      -0.000016       0.000000
      0.001569      -0.000046       0.000000
      0.001497      -0.000044       0.000000
      0.001569      -0.000046       0.000000
      0.001585      -0.000077       0.000000
      0.001543      -0.000064       0.000000
      0.001569      -0.000046       0.000000
      0.001679      -0.000016       0.000000
      0.001632      -0.000056       0.000000
      0.001585      -0.000077       0.000000
      0.001619       0.000061       0.000000
      0.001719       0.000117       0.000000
      0.001764       0.000068       0.000000
      0.001670       0.000021       0.000000
      0.001719       0.000117       0.000000
      0.001842       0.000202       0.000000
      0.001887       0.000143       0.000000
      0.001764       0.000068       0.000000
      0.001670       0.000021       0.000000
      0.001764       0.000068       0.000000
      0.001752       0.000022       0.000000
      0.001679      -0.000016       0.000000
      0.001764       0.000068       0.000000
      0.001887       0.000143       0.000000
      0.001842       0.000084       0.000000
      0.001752       0.000022       0.000000
      0.001842       0.000202       0.000000
      0.001993       0.000329       0.000000
      0.002051       0.000263       0.000000
      0.001887       0.000143       0.000000
      0.001993       0.000329       0.000000
      0.002161       0.000496       0.000000
      0.002291       0.000468       0.000000
      0.002051       0.000263       0.000000
      0.001887       0.000143       0.000000
      0.002051       0.000263       0.000000
      0.001957       0.000186       0.000000
      0.001842       0.000084       0.000000
      0.001679      -0.000016       0.000000
      0.001752       0.000022       0.000000
      0.001703      -0.000008       0.000000
      0.001659      -0.000042       0.000000
      0.001752       0.000022       0.000000
      0.001842       0.000084       0.000000
      0.001749       0.000052       0.000000
      0.001703      -0.000008       0.000000
      0.001659      -0.000042       0.000000
      0.001703      -0.000008       0.000000
      0.001649      -0.000021       0.000000
      0.001632      -0.000056       0.000000
      0.001703      -0.000008       0.000000
      0.001749       0.000052       0.000000
      0.001656       0.000043       0.000000
      0.001649      -0.000021       0.000000
      0.001842       0.000084       0.000000
      0.001896       0.000129       0.000000
      0.001835       0.000108       0.000000
      0.001798       0.000065       0.000000
      0.001896       0.000129       0.000000
      0.001957       0.000186       0.000000
      0.001873       0.000164       0.000000
      0.001835       0.000108       0.000000
      0.001798       0.000065       0.000000
      0.001835       0.000108       0.000000
      0.001770       0.000097       0.000000
      0.001749       0.000052       0.000000
      0.001835       0.000108       0.000000
      0.001873       0.000164       0.000000
      0.001790       0.000155       0.000000
      0.001770       0.000097       0.000000
      0.001957       0.000186       0.000000
      0.002030       0.000260       0.000000
      0.001913       0.000237       0.000000
      0.001873       0.000164       0.000000
      0.001873       0.000164       0.000000
      0.001913       0.000237       0.000000
      0.001808       0.000229       0.000000
      0.001790       0.000155       0.000000
      0.001749       0.000052       0.000000
      0.001770       0.000097       0.000000
      0.001710       0.000091       0.000000
      0.001700       0.000045       0.000000
      0.001770       0.000097       0.000000
      0.001790       0.000155       0.000000
      0.001719       0.000151       0.000000
      0.001710       0.000091       0.000000
      0.001700       0.000045       0.000000
      0.001710       0.000091       0.000000
      0.001655       0.000090       0.000000
      0.001656       0.000043       0.000000
      0.001710       0.000091       0.000000
      0.001719       0.000151       0.000000
      0.001654       0.000150       0.000000
      0.001655       0.000090       0.000000
      0.001790       0.000155       0.000000
      0.001800       0.000189       0.000000
      0.001759       0.000187       0.000000
      0.001753       0.000152       0.000000
      0.001800       0.000189       0.000000
      0.001808       0.000229       0.000000
      0.001765       0.000227       0.000000
      0.001759       0.000187       0.000000
      0.001753       0.000152       0.000000
      0.001759       0.000187       0.000000
      0.001722       0.000186       0.000000
      0.001719       0.000151       0.000000
      0.001759       0.000187       0.000000
      0.001765       0.000227       0.000000
      0.001726       0.000224       0.000000
      0.001722       0.000186       0.000000
      0.001808       0.000229       0.000000
      0.001817       0.000275       0.000000
      0.001772       0.000271       0.000000
      0.001765       0.000227       0.000000
      0.001817       0.000275       0.000000
      0.001828       0.000327       0.000000
      0.001787       0.000329       0.000000
      0.001772       0.000271       0.000000
      0.001765       0.000227       0.000000
      0.001772       0.000271       0.000000
      0.001732       0.000266       0.000000
      0.001726       0.000224       0.000000
      0.001772       0.000271       0.000000
      0.001787       0.000329       0.000000
      0.001737       0.000329       0.000000
      0.001732       0.000266       0.000000
      0.001719       0.000151       0.000000
      0.001722       0.000186       0.000000
      0.001688       0.000185       0.000000
      0.001686       0.000150       0.000000
      0.001722       0.000186       0.000000
      0.001726       0.000224       0.000000
      0.001691       0.000222       0.000000
      0.001688       0.000185       0.000000
      0.001686       0.000150       0.000000
      0.001688       0.000185       0.000000
      0.001654       0.000185       0.000000
      0.001654       0.000150       0.000000
      0.001688       0.000185       0.000000
      0.001691       0.000222       0.000000
      0.001660       0.000224       0.000000
      0.001654       0.000185       0.000000
      0.001726       0.000224       0.000000
      0.001732       0.000266       0.000000
      0.001696       0.000257       0.000000
      0.001691       0.000222       0.000000
      0.001732       0.000266       0.000000
      0.001737       0.000329       0.000000
      0.001467       0.000264       0.000000
      0.001696       0.000257       0.000000
      0.001691       0.000222       0.000000
      0.001696       0.000257       0.000000
      0.001703       0.000270       0.000000
      0.001660       0.000224       0.000000
      0.001696       0.000257       0.000000
      0.001467       0.000264       0.000000
      0.007440       0.000663       0.000000
      0.001703       0.000270       0.000000
      0.001913       0.000237       0.000000
      0.001934       0.000282       0.000000
      0.001871       0.000277       0.000000
      0.001858       0.000232       0.000000
      0.001934       0.000282       0.000000
      0.001956       0.000335       0.000000
      0.001886       0.000332       0.000000
      0.001871       0.000277       0.000000
      0.001858       0.000232       0.000000
      0.001871       0.000277       0.000000
      0.001817       0.000275       0.000000
      0.001808       0.000229       0.000000
      0.001871       0.000277       0.000000
      0.001886       0.000332       0.000000
      0.001828       0.000327       0.000000
      0.001817       0.000275       0.000000
      0.002051       0.000263       0.000000
      0.002159       0.000351       0.000000
      0.002122       0.000302       0.000000
      0.002022       0.000221       0.000000
      0.002159       0.000351       0.000000
      0.002291       0.000468       0.000000
      0.002261       0.000417       0.000000
      0.002122       0.000302       0.000000
      0.002022       0.000221       0.000000
      0.002122       0.000302       0.000000
      0.002030       0.000260       0.000000
      0.001957       0.000186       0.000000
      0.002030       0.000260       0.000000
      0.002074       0.000305       0.000000
      0.002003       0.000290       0.000000
      0.001972       0.000246       0.000000
      0.002074       0.000305       0.000000
      0.002128       0.000360       0.000000
      0.002040       0.000343       0.000000
      0.002003       0.000290       0.000000
      0.001972       0.000246       0.000000
      0.002003       0.000290       0.000000
      0.001934       0.000282       0.000000
      0.001913       0.000237       0.000000
      0.002003       0.000290       0.000000
      0.002040       0.000343       0.000000
      0.001956       0.000335       0.000000
      0.001934       0.000282       0.000000
      0.002122       0.000302       0.000000
      0.002185       0.000354       0.000000
      0.002137       0.000327       0.000000
      0.002082       0.000279       0.000000
      0.002185       0.000354       0.000000
      0.002261       0.000417       0.000000
      0.002206       0.000386       0.000000
      0.002137       0.000327       0.000000
      0.002082       0.000279       0.000000
      0.002137       0.000327       0.000000
      0.002074       0.000305       0.000000
      0.002030       0.000260       0.000000
      0.002137       0.000327       0.000000
      0.002206       0.000386       0.000000
      0.002128       0.000360       0.000000
      0.002074       0.000305       0.000000
      0.000000       0.000000       0.000000
      0.000000       0.000000       0.000000
      0.000570       0.000154       0.000000
      0.000575       0.000147       0.000000
      0.000000       0.000000       0.000000
      0.000000       0.000000       0.000000
      0.000570       0.000126       0.000000
      0.000570       0.000154       0.000000
      0.000575       0.000147       0.000000
      0.000570       0.000154       0.000000
      0.001159       0.000308       0.000000
      0.001134       0.000291       0.000000
      0.000570       0.000154       0.000000
      0.000570       0.000126       0.000000
      0.001195       0.000238       0.000000
      0.001159       0.000308       0.000000
      0.000000       0.000000       0.000000
      0.000000       0.000000       0.000000
      0.000586       0.000084       0.000000
      0.000570       0.000126       0.000000
      0.000000       0.000000       0.000000
      0.000000       0.000000       0.000000
      0.000612       0.000047       0.000000
      0.000586       0.000084       0.000000
      0.000570       0.000126       0.000000
      0.000586       0.000084       0.000000
      0.001255       0.000143       0.000000
      0.001195       0.000238       0.000000
      0.000586       0.000084       0.000000
      0.000612       0.000047       0.000000
      0.001320       0.000071       0.000000
      0.001255       0.000143       0.000000
      0.000000       0.000000       0.000000
      0.000000       0.000000       0.000000
      0.000634       0.000020       0.000000
      0.000612       0.000047       0.000000
      0.000000       0.000000       0.000000
      0.000000       0.000000       0.000000
      0.000642       0.000000       0.000000
      0.000634       0.000020       0.000000
      0.000612       0.000047       0.000000
      0.000634       0.000020       0.000000
      0.001367       0.000028       0.000000
      0.001320       0.000071       0.000000
      0.000634       0.000020       0.000000
      0.000642       0.000000       0.000000
      0.001383       0.000000       0.000000
      0.001367       0.000028       0.000000
      0.001134       0.000291       0.000000
      0.001159       0.000308       0.000000
      0.001771       0.000457       0.000000
      0.001676       0.000419       0.000000
      0.001159       0.000308       0.000000
      0.001195       0.000238       0.000000
      0.001891       0.000310       0.000000
      0.001771       0.000457       0.000000
      0.001676       0.000419       0.000000
      0.001771       0.000457       0.000000
      0.002449       0.000589       0.000000
      0.002161       0.000496       0.000000
      0.001771       0.000457       0.000000
      0.001891       0.000310       0.000000
      0.002772       0.000286       0.000000
      0.002449       0.000589       0.000000
      0.001195       0.000238       0.000000
      0.001255       0.000143       0.000000
      0.002036       0.000155       0.000000
      0.001891       0.000310       0.000000
      0.001255       0.000143       0.000000
      0.001320       0.000071       0.000000
      0.002154       0.000063       0.000000
      0.002036       0.000155       0.000000
      0.001891       0.000310       0.000000
      0.002036       0.000155       0.000000
      0.003018       0.000101       0.000000
      0.002772       0.000286       0.000000
      0.002036       0.000155       0.000000
      0.002154       0.000063       0.000000
      0.003164       0.000022       0.000000
      0.003018       0.000101       0.000000
      0.001320       0.000071       0.000000
      0.001367       0.000028       0.000000
      0.002226       0.000019       0.000000
      0.002154       0.000063       0.000000
      0.001367       0.000028       0.000000
      0.001383       0.000000       0.000000
      0.002250       0.000000       0.000000
      0.002226       0.000019       0.000000
      0.002154       0.000063       0.000000
      0.002226       0.000019       0.000000
      0.003239      -0.000001       0.000000
      0.003164       0.000022       0.000000
      0.002226       0.000019       0.000000
      0.002250       0.000000       0.000000
      0.003263       0.000000       0.000000
      0.003239      -0.000001       0.000000
      0.002772       0.000286       0.000000
      0.003018       0.000101       0.000000
      0.004304       0.000027       0.000000
      0.004171       0.000161       0.000000
      0.003018       0.000101       0.000000
      0.003164       0.000022       0.000000
      0.004367      -0.000017       0.000000
      0.004304       0.000027       0.000000
      0.004171       0.000161       0.000000
      0.004304       0.000027       0.000000
      0.005741       0.000044       0.000000