# vtk DataFile Version 2.0
time_10.vtk
ASCII
DATASET UNSTRUCTURED_GRID
POINTS  1476 float
      0.000000       0.000000       0.000000
      0.083333       0.000000       0.000000
      0.083333       0.083333       0.000000
      0.000000       0.083333       0.000000
      0.083333       0.000000       0.000000
      0.166667       0.000000       0.000000
      0.166667       0.083333       0.000000
      0.083333       0.083333       0.000000
      0.000000       0.083333       0.000000
      0.083333       0.083333       0.000000
      0.083333       0.166667       0.000000
      0.000000       0.166667       0.000000
      0.083333       0.083333       0.000000
      0.166667       0.083333       0.000000
      0.166667       0.166667       0.000000
      0.083333       0.166667       0.000000
      0.166667       0.000000       0.000000
      0.250000       0.000000       0.000000
      0.250000       0.083333       0.000000
      0.166667       0.083333       0.000000
      0.250000       0.000000       0.000000
      0.333333       0.000000       0.000000
      0.333333       0.083333       0.000000
      0.250000       0.083333       0.000000
      0.166667       0.083333       0.000000
      0.250000       0.083333       0.000000
      0.250000       0.166667       0.000000
      0.166667       0.166667       0.000000
      0.250000       0.083333       0.000000
      0.333333       0.083333       0.000000
      0.333333       0.166667       0.000000
      0.250000       0.166667       0.000000
      0.333333       0.000000       0.000000
      0.416667       0.000000       0.000000
      0.416667       0.083333       0.000000
      0.333333       0.083333       0.000000
      0.416667       0.000000       0.000000
      0.500000       0.000000       0.000000
      0.500000       0.083333       0.000000
      0.416667       0.083333       0.000000
      0.333333       0.083333       0.000000
      0.416667       0.083333       0.000000
      0.416667       0.166667       0.000000
      0.333333       0.166667       0.000000
      0.416667       0.083333       0.000000
      0.500000       0.083333       0.000000
      0.500000       0.166667       0.000000
      0.416667       0.166667       0.000000
      0.000000       0.166667       0.000000
      0.083333       0.166667       0.000000
      0.083333       0.250000       0.000000
      0.000000       0.250000       0.000000
      0.083333       0.166667       0.000000
      0.166667       0.166667       0.000000
      0.166667       0.250000       0.000000
      0.083333       0.250000       0.000000
      0.000000       0.250000       0.000000
      0.083333       0.250000       0.000000
      0.083333       0.333333       0.000000
      0.000000       0.333333       0.000000
      0.083333       0.250000       0.000000
      0.166667       0.250000       0.000000
      0.166667       0.333333       0.000000
      0.083333       0.333333       0.000000
      0.166667       0.166667       0.000000
      0.250000       0.166667       0.000000
      0.250000       0.250000       0.000000
      0.166667       0.250000       0.000000
      0.250000       0.166667       0.000000
      0.333333       0.166667       0.000000
      0.333333       0.250000       0.000000
      0.250000       0.250000       0.000000
      0.166667       0.250000       0.000000
      0.250000       0.250000       0.000000
      0.250000       0.333333       0.000000
      0.166667       0.333333       0.000000
      0.250000       0.250000       0.000000
      0.333333       0.250000       0.000000
      0.333333       0.333333       0.000000
      0.250000       0.333333       0.000000
      0.333333       0.166667       0.000000
      0.416667       0.166667       0.000000
      0.416667       0.250000       0.000000
      0.333333       0.250000       0.000000
      0.416667       0.166667       0.000000
      0.500000       0.166667       0.000000
      0.500000       0.250000       0.000000
      0.416667       0.250000       0.000000
      0.333333       0.250000       0.000000
      0.416667       0.250000       0.000000
      0.416667       0.333333       0.000000
      0.333333       0.333333       0.000000
      0.416667       0.250000       0.000000
      0.500000       0.250000       0.000000
      0.500000       0.333333       0.000000
      0.416667       0.333333       0.000000
      0.000000       0.333333       0.000000
      0.083333       0.333333       0.000000
      0.083333       0.416667       0.000000
      0.000000       0.416667       0.000000
      0.083333       0.333333       0.000000
      0.166667       0.333333       0.000000
      0.166667       0.416667       0.000000
      0.083333       0.416667       0.000000
      0.000000       0.416667       0.000000
      0.083333       0.416667       0.000000
      0.083333       0.500000       0.000000
      0.000000       0.500000       0.000000
      0.083333       0.416667       0.000000
      0.166667       0.416667       0.000000
      0.166667       0.500000       0.000000
      0.083333       0.500000       0.000000
      0.166667       0.333333       0.000000
      0.250000       0.333333       0.000000
      0.250000       0.416667       0.000000
      0.166667       0.416667       0.000000
      0.250000       0.333333       0.000000
      0.333333       0.333333       0.000000
      0.333333       0.416667       0.000000
      0.250000       0.416667       0.000000
      0.166667       0.416667       0.000000
      0.250000       0.416667       0.000000
      0.250000       0.500000       0.000000
      0.166667       0.500000       0.000000
      0.250000       0.416667       0.000000
      0.333333       0.416667       0.000000
      0.333333       0.500000       0.000000
      0.250000       0.500000       0.000000
      0.333333       0.333333       0.000000
      0.375000       0.333333       0.000000
      0.375000       0.375000       0.000000
      0.333333       0.375000       0.000000
      0.375000       0.333333       0.000000
      0.416667       0.333333       0.000000
      0.416667       0.375000       0.000000
      0.375000       0.375000       0.000000
      0.333333       0.375000       0.000000
      0.375000       0.375000       0.000000
      0.375000       0.416667       0.000000
      0.333333       0.416667       0.000000
      0.375000       0.375000       0.000000
      0.416667       0.375000       0.000000
      0.416667       0.416667       0.000000
      0.375000       0.416667       0.000000
      0.416667       0.333333       0.000000
      0.458333       0.333333       0.000000
      0.458333       0.375000       0.000000
      0.416667       0.375000       0.000000
      0.458333       0.333333       0.000000
      0.500000       0.333333       0.000000
      0.500000       0.375000       0.000000
      0.458333       0.375000       0.000000
      0.416667       0.375000       0.000000
      0.458333       0.375000       0.000000
      0.458333       0.416667       0.000000
      0.416667       0.416667       0.000000
      0.333333       0.416667       0.000000
      0.375000       0.416667       0.000000
      0.375000       0.458333       0.000000
      0.333333       0.458333       0.000000
      0.375000       0.416667       0.000000
      0.416667       0.416667       0.000000
      0.416667       0.458333       0.000000
      0.375000       0.458333       0.000000
      0.333333       0.458333       0.000000
      0.375000       0.458333       0.000000
      0.375000       0.500000       0.000000
      0.333333       0.500000       0.000000
      0.375000       0.458333       0.000000
      0.416667       0.458333       0.000000
      0.416667       0.500000       0.000000
      0.375000       0.500000       0.000000
      0.416667       0.416667       0.000000
      0.437500       0.416667       0.000000
      0.437500       0.437500       0.000000
      0.416667       0.437500       0.000000
      0.437500       0.416667       0.000000
      0.458333       0.416667       0.000000
      0.458333       0.437500       0.000000
      0.437500       0.437500       0.000000
      0.416667       0.437500       0.000000
      0.437500       0.437500       0.000000
      0.437500       0.458333       0.000000
      0.416667       0.458333       0.000000
      0.437500       0.437500       0.000000
      0.458333       0.437500       0.000000
      0.458333       0.458333       0.000000
      0.437500       0.458333       0.000000
      0.458333       0.416667       0.000000
      0.479167       0.416667       0.000000
      0.479167       0.437500       0.000000
      0.458333       0.437500       0.000000
      0.416667       0.458333       0.000000
      0.437500       0.458333       0.000000
      0.437500       0.479167       0.000000
      0.416667       0.479167       0.000000
      0.437500       0.458333       0.000000
      0.458333       0.458333       0.000000
      0.458333       0.479167       0.000000
      0.437500       0.479167       0.000000
      0.416667       0.479167       0.000000
      0.437500       0.479167       0.000000
      0.437500       0.500000       0.000000
      0.416667       0.500000       0.000000
      0.437500       0.479167       0.000000
      0.458333       0.479167       0.000000
      0.458333       0.500000       0.000000
      0.437500       0.500000       0.000000
      0.458333       0.458333       0.000000
      0.468750       0.458333       0.000000
      0.468750       0.468750       0.000000
      0.458333       0.468750       0.000000
      0.468750       0.458333       0.000000
      0.479167       0.458333       0.000000
      0.479167       0.468750       0.000000
      0.468750       0.468750       0.000000
      0.458333       0.468750       0.000000
      0.468750       0.468750       0.000000
      0.468750       0.479167       0.000000
      0.458333       0.479167       0.000000
[...]
POINT_DATA  1476
VECTORS U float 
      0.000000       0.000000       0.000000
      0.000000       0.000000       0.000000
      0.000489       0.000014       0.000000
      0.000483       0.000000       0.000000
      0.000000       0.000000       0.000000
      0.000000       0.000000       0.000000
      0.000506       0.000031       0.000000
      0.000489       0.000014       0.000000
      0.000483       0.000000       0.000000
      0.000489       0.000014       0.000000
      0.000910       0.000020       0.000000
      0.000899       0.000000       0.000000
      0.000489       0.000014       0.000000
      0.000506       0.000031       0.000000
      0.000943       0.000046       0.000000
      0.000910       0.000020       0.000000
      0.000000       0.000000       0.000000
      0.000000       0.000000       0.000000
      0.000531       0.000054       0.000000
      0.000506       0.000031       0.000000
      0.000000       0.000000       0.000000
      0.000000       0.000000       0.000000
      0.000555       0.000082       0.000000
      0.000531       0.000054       0.000000
      0.000506       0.000031       0.000000
      0.000531       0.000054       0.000000
      0.000994       0.000085       0.000000
      0.000943       0.000046       0.000000
      0.000531       0.000054       0.000000
      0.000555       0.000082       0.000000
      0.001054       0.000144       0.000000
      0.000994       0.000085       0.000000
      0.000000       0.000000       0.000000
      0.000000       0.000000       0.000000
      0.000571       0.000114       0.000000
      0.000555       0.000082       0.000000
      0.000000       0.000000       0.000000
      0.000000       0.000000       0.000000
      0.000572       0.000135       0.000000
      0.000571       0.000114       0.000000
      0.000555       0.000082       0.000000
      0.000571       0.000114       0.000000
      0.001107       0.000216       0.000000
      0.001054       0.000144       0.000000
      0.000571       0.000114       0.000000
      0.000572       0.000135       0.000000
      0.001138       0.000270       0.000000
      0.001107       0.000216       0.000000
      0.000899       0.000000       0.000000
      0.000910       0.000020       0.000000
      0.001248       0.000016       0.000000
      0.001232       0.000000       0.000000
      0.000910       0.000020       0.000000
      0.000943       0.000046       0.000000
      0.001295       0.000042       0.000000
      0.001248       0.000016       0.000000
      0.001232       0.000000       0.000000
      0.001248       0.000016       0.000000
      0.001491       0.000006       0.000000
      0.001473       0.000000       0.000000
      0.001248       0.000016       0.000000
      0.001295       0.000042       0.000000
      0.001547       0.000020       0.000000
      0.001491       0.000006       0.000000
      0.000943       0.000046       0.000000
      0.000994       0.000085       0.000000
      0.001374       0.000087       0.000000
      0.001295       0.000042       0.000000
      0.000994       0.000085       0.000000
      0.001054       0.000144       0.000000
      0.001482       0.000166       0.000000
      0.001374       0.000087       0.000000
      0.001295       0.000042       0.000000
      0.001374       0.000087       0.000000
      0.001645       0.000056       0.000000
      0.001547       0.000020       0.000000
      0.001374       0.000087       0.000000
      0.001482       0.000166       0.000000
      0.001797       0.000132       0.000000
      0.001645       0.000056       0.000000
      0.001054       0.000144       0.000000
      0.001107       0.000216       0.000000
      0.001604       0.000286       0.000000
      0.001482       0.000166       0.000000
      0.001107       0.000216       0.000000
      0.001138       0.000270       0.000000
      0.001700       0.000398       0.000000
      0.001604       0.000286       0.000000
      0.001482       0.000166       0.000000
      0.001604       0.000286       0.000000
      0.002012       0.000284       0.000000
      0.001797       0.000132       0.000000
      0.001604       0.000286       0.000000
      0.001700       0.000398       0.000000
      0.002250       0.000511       0.000000
      0.002012       0.000284       0.000000
      0.001473       0.000000       0.000000
      0.001491       0.000006       0.000000
      0.001638      -0.000009       0.000000
      0.001620       0.000000       0.000000
      0.001491       0.000006       0.000000
      0.001547       0.000020       0.000000
      0.001692      -0.000010       0.000000
      0.001638      -0.000009       0.000000
      0.001620       0.000000       0.000000
      0.001638      -0.000009       0.000000
      0.001697      -0.000023       0.000000
      0.001683       0.000000       0.000000
      0.001638      -0.000009       0.000000
      0.001692      -0.000010       0.000000
      0.001742      -0.000039       0.000000
      0.001697      -0.000023       0.000000
      0.001547       0.000020       0.000000
      0.001645       0.000056       0.000000
      0.001786       0.000005       0.000000
      0.001692      -0.000010       0.000000
      0.001645       0.000056       0.000000
      0.001797       0.000132       0.000000
      0.001933       0.000051       0.000000
      0.001786       0.000005       0.000000
      0.001692      -0.000010       0.000000
      0.001786       0.000005       0.000000
      0.001816      -0.000040       0.000000
      0.001742      -0.000039       0.000000
      0.001786       0.000005       0.000000
      0.001933       0.000051       0.000000
      0.001914      -0.000014       0.000000
      0.001816      -0.000040       0.000000
      0.001797       0.000132       0.000000
      0.001897       0.000196       0.000000
      0.001999       0.000151       0.000000
      0.001889       0.000094       0.000000
      0.001897       0.000196       0.000000
      0.002012       0.000284       0.000000
      0.002138       0.000239       0.000000
      0.001999       0.000151       0.000000
      0.001889       0.000094       0.000000
      0.001999       0.000151       0.000000
      0.002035       0.000095       0.000000
      0.001933       0.000051       0.000000
      0.001999       0.000151       0.000000
      0.002138       0.000239       0.000000
      0.002168       0.000168       0.000000
      0.002035       0.000095       0.000000
      0.002012       0.000284       0.000000
      0.002137       0.000400       0.000000
      0.002311       0.000375       0.000000
      0.002138       0.000239       0.000000
      0.002137       0.000400       0.000000
      0.002250       0.000511       0.000000
      0.002501       0.000550       0.000000
      0.002311       0.000375       0.000000
      0.002138       0.000239       0.000000
      0.002311       0.000375       0.000000
      0.002356       0.000296       0.000000
      0.002168       0.000168       0.000000
      0.001933       0.000051       0.000000
      0.002035       0.000095       0.000000
      0.002012       0.000047       0.000000
      0.001935       0.000013       0.000000
      0.002035       0.000095       0.000000
      0.002168       0.000168       0.000000
      0.002101       0.000105       0.000000
      0.002012       0.000047       0.000000
      0.001935       0.000013       0.000000
      0.002012       0.000047       0.000000
      0.001965       0.000019       0.000000
      0.001914      -0.000014       0.000000
      0.002012       0.000047       0.000000
      0.002101       0.000105       0.000000
      0.002007       0.000077       0.000000
      0.001965       0.000019       0.000000
      0.002168       0.000168       0.000000
      0.002253       0.000222       0.000000
      0.002215       0.000181       0.000000
      0.002144       0.000133       0.000000
      0.002253       0.000222       0.000000
      0.002356       0.000296       0.000000
      0.002302       0.000246       0.000000
      0.002215       0.000181       0.000000
      0.002144       0.000133       0.000000
      0.002215       0.000181       0.000000
      0.002152       0.000149       0.000000
      0.002101       0.000105       0.000000
      0.002215       0.000181       0.000000
      0.002302       0.000246       0.000000
      0.002209       0.000210       0.000000
      0.002152       0.000149       0.000000
      0.002356       0.000296       0.000000
      0.002488       0.000398       0.000000
      0.002419       0.000338       0.000000
      0.002302       0.000246       0.000000
      0.002101       0.000105       0.000000
      0.002152       0.000149       0.000000
      0.002082       0.000131       0.000000
      0.002052       0.000087       0.000000
      0.002152       0.000149       0.000000
      0.002209       0.000210       0.000000
      0.002110       0.000192       0.000000
      0.002082       0.000131       0.000000
      0.002052       0.000087       0.000000
      0.002082       0.000131       0.000000
      0.002021       0.000122       0.000000
      0.002007       0.000077       0.000000
      0.002082       0.000131       0.000000
      0.002110       0.000192       0.000000
      0.002028       0.000186       0.000000
      0.002021       0.000122       0.000000
      0.002209       0.000210       0.000000
      0.002241       0.000248       0.000000
      0.002180       0.000237       0.000000
      0.002158       0.000199       0.000000
      0.002241       0.000248       0.000000
      0.002277       0.000293       0.000000
      0.002202       0.000283       0.000000
      0.002180       0.000237       0.000000
      0.002158       0.000199       0.000000
      0.002180       0.000237       0.000000
      0.002123       0.000231       0.000000
      0.002110       0.000192       0.000000
      0.002180       0.000237       0.000000
      0.002202       0.000283       0.000000
      0.002136       0.000277       0.000000
      0.002123       0.000231       0.000000
      0.002277       0.000293       0.000000
      0.002320       0.000347       0.000000
      0.002227       0.000338       0.000000
      0.002202       0.000283       0.000000
      0.002320       0.000347       0.000000
      0.002379       0.000414       0.000000
      0.002262       0.000411       0.000000
      0.002227       0.000338       0.000000
      0.002202       0.000283       0.000000
      0.002227       0.000338       0.000000
      0.002150       0.000332       0.000000
      0.002136       0.000277       0.000000
      0.002227       0.000338       0.000000
      0.002262       0.000411       0.000000
      0.002169       0.000413       0.000000
      0.002150       0.000332       0.000000
      0.002110       0.000192       0.000000
      0.002123       0.000231       0.000000
      0.002074       0.000228       0.000000
      0.002067       0.000188       0.000000
      0.002123       0.000231       0.000000
      0.002136       0.000277       0.000000
      0.002081       0.000274       0.000000
      0.002074       0.000228       0.000000
      0.002067       0.000188       0.000000
      0.002074       0.000228       0.000000
      0.002031       0.000227       0.000000
      0.002028       0.000186       0.000000
      0.002074       0.000228       0.000000
      0.002081       0.000274       0.000000
      0.002037       0.000275       0.000000
      0.002031       0.000227       0.000000
      0.002136       0.000277       0.000000
      0.002150       0.000332       0.000000
      0.002090       0.000323       0.000000
      0.002081       0.000274       0.000000
      0.002150       0.000332       0.000000
      0.002169       0.000413       0.000000
      0.001928       0.000340       0.000000
      0.002090       0.000323       0.000000
      0.002081       0.000274       0.000000
      0.002090       0.000323       0.000000
      0.002075       0.000333       0.000000
      0.002037       0.000275       0.000000
      0.002090       0.000323       0.000000
      0.001928       0.000340       0.000000
      0.006937       0.000570       0.000000
      0.002075       0.000333       0.000000
      0.002419       0.000338       0.000000
      0.002500       0.000400       0.000000
      0.002418       0.000368       0.000000
      0.002353       0.000311       0.000000
      0.002500       0.000400       0.000000
      0.002615       0.000482       0.000000
      0.002516       0.000440       0.000000
      0.002418       0.000368       0.000000
      0.002353       0.000311       0.000000
      0.002418       0.000368       0.000000
      0.002320       0.000347       0.000000
      0.002277       0.000293       0.000000
      0.002418       0.000368       0.000000
      0.002516       0.000440       0.000000
      0.002379       0.000414       0.000000
      0.002320       0.000347       0.000000
      0.002311       0.000375       0.000000
      0.002406       0.000462       0.000000
      0.002474       0.000441       0.000000
      0.002356       0.000342       0.000000
      0.002406       0.000462       0.000000
      0.002501       0.000550       0.000000
      0.002603       0.000557       0.000000
      0.002474       0.000441       0.000000
      0.002356       0.000342       0.000000
      0.002474       0.000441       0.000000
      0.002488       0.000398       0.000000
      0.002356       0.000296       0.000000
      0.002488       0.000398       0.000000
      0.002570       0.000464       0.000000
      0.002551       0.000435       0.000000
      0.002465       0.000368       0.000000
      0.002570       0.000464       0.000000
      0.002663       0.000541       0.000000
      0.002660       0.000518       0.000000
      0.002551       0.000435       0.000000
      0.002465       0.000368       0.000000
      0.002551       0.000435       0.000000
      0.002500       0.000400       0.000000
      0.002419       0.000338       0.000000
      0.002551       0.000435       0.000000
      0.002660       0.000518       0.000000
      0.002615       0.000482       0.000000
      0.002500       0.000400       0.000000
      0.002302       0.000246       0.000000
      0.002355       0.000288       0.000000
      0.002302       0.000265       0.000000
      0.002259       0.000225       0.000000
      0.002355       0.000288       0.000000
      0.002419       0.000338       0.000000
      0.002353       0.000311       0.000000
      0.002302       0.000265       0.000000
      0.002259       0.000225       0.000000
      0.002302       0.000265       0.000000
      0.002241       0.000248       0.000000
      0.002209       0.000210       0.000000
      0.002302       0.000265       0.000000
      0.002353       0.000311       0.000000
      0.002277       0.000293       0.000000
      0.002241       0.000248       0.000000
      0.002474       0.000441       0.000000
      0.002538       0.000498       0.000000
      0.002563       0.000485       0.000000
      0.002490       0.000422       0.000000
      0.002538       0.000498       0.000000
      0.002603       0.000557       0.000000
      0.002641       0.000553       0.000000
      0.002563       0.000485       0.000000
      0.002490       0.000422       0.000000
      0.002563       0.000485       0.000000
      0.002570       0.000464       0.000000
      0.002488       0.000398       0.000000
      0.002563       0.000485       0.000000
      0.002641       0.000553       0.000000
      0.002663       0.000541       0.000000
      0.002570       0.000464       0.000000
      0.000000       0.000000       0.000000
      0.000000       0.000000       0.000000
      0.000566       0.000132       0.000000
      0.000572       0.000135       0.000000
      0.000000       0.000000       0.000000
      0.000000       0.000000       0.000000
      0.000568       0.000106       0.000000
      0.000566       0.000132       0.000000
      0.000572       0.000135       0.000000
      0.000566       0.000132       0.000000
      0.001155       0.000264       0.000000
      0.001138       0.000270       0.000000
      0.000566       0.000132       0.000000
      0.000568       0.000106       0.000000
      0.001186       0.000198       0.000000
      0.001155       0.000264       0.000000
      0.000000       0.000000       0.000000
      0.000000       0.000000       0.000000
      0.000583       0.000070       0.000000
      0.000568       0.000106       0.000000
      0.000000       0.000000       0.000000
      0.000000       0.000000       0.000000
      0.000605       0.000040       0.000000
      0.000583       0.000070       0.000000
      0.000568       0.000106       0.000000
      0.000583       0.000070       0.000000
      0.001237       0.000120       0.000000
      0.001186       0.000198       0.000000
      0.000583       0.000070       0.000000
      0.000605       0.000040       0.000000
      0.001289       0.000061       0.000000
      0.001237       0.000120       0.000000
      0.000000       0.000000       0.000000
      0.000000       0.000000       0.000000
      0.000623       0.000017       0.000000
      0.000605       0.000040       0.000000
      0.000000       0.000000       0.000000
      0.000000       0.000000       0.000000
      0.000629       0.000000       0.000000
      0.000623       0.000017       0.000000
      0.000605       0.000040       0.000000
      0.000623       0.000017       0.000000
      0.001327       0.000024       0.000000
      0.001289       0.000061       0.000000
      0.000623       0.000017       0.000000
      0.000629       0.000000       0.000000
      0.001341       0.000000       0.000000
      0.001327       0.000024       0.000000
      0.001138       0.000270       0.000000
      0.001155       0.000264       0.000000
      0.001770       0.000386       0.000000
      0.001700       0.000398       0.000000
      0.001155       0.000264       0.000000
      0.001186       0.000198       0.000000
      0.001866       0.000257       0.000000
      0.001770       0.000386       0.000000
      0.001700       0.000398       0.000000
      0.001770       0.000386       0.000000
      0.002440       0.000481       0.000000
      0.002250       0.000511       0.000000
      0.001770       0.000386       0.000000
      0.001866       0.000257       0.000000
      0.002678       0.000245       0.000000
      0.002440       0.000481       0.000000
      0.001186       0.000198       0.000000
      0.001237       0.000120       0.000000
      0.001981       0.000132       0.000000
      0.001866       0.000257       0.000000
      0.001237       0.000120       0.000000
      0.001289       0.000061       0.000000
      0.002077       0.000056       0.000000
      0.001981       0.000132       0.000000
      0.001866       0.000257       0.000000
      0.001981       0.000132       0.000000
      0.002878       0.000091       0.000000
      0.002678       0.000245       0.000000
      0.001981       0.000132       0.000000
      0.002077       0.000056       0.000000
      0.003006       0.000021       0.000000
      0.002878       0.000091       0.000000
      0.001289       0.000061       0.000000
      0.001327       0.000024       0.000000
      0.002137       0.000018       0.000000
      0.002077       0.000056       0.000000
      0.001327       0.000024       0.000000
      0.001341       0.000000       0.000000
      0.002157       0.000000       0.000000
      0.002137       0.000018       0.000000
      0.002077       0.000056       0.000000
      0.002137       0.000018       0.000000
      0.003074       0.000000       0.000000
      0.003006       0.000021       0.000000
      0.002137       0.000018       0.000000
      0.002157       0.000000       0.000000
      0.003096       0.000000       0.000000