# vtk DataFile Version 2.0
time_10.vtk
ASCII
DATASET UNSTRUCTURED_GRID
POINTS  1236 float
      0.000000       0.000000       0.000000
      0.083333       0.000000       0.000000
      0.083333       0.083333       0.000000
      0.000000       0.083333       0.000000
      0.083333       0.000000       0.000000
      0.166667       0.000000       0.000000
      0.166667       0.083333       0.000000
      0.083333       0.083333       0.000000
      0.000000       0.083333       0.000000
      0.083333       0.083333       0.000000
      0.083333       0.166667       0.000000
      0.000000       0.166667       0.000000
      0.083333       0.083333       0.000000
      0.166667       0.083333       0.000000
      0.166667       0.166667       0.000000
      0.083333       0.166667       0.000000
      0.166667       0.000000       0.000000
      0.250000       0.000000       0.000000
      0.250000       0.083333       0.000000
      0.166667       0.083333       0.000000
      0.250000       0.000000       0.000000
      0.333333       0.000000       0.000000
      0.333333       0.083333       0.000000
      0.250000       0.083333       0.000000
      0.166667       0.083333       0.000000
      0.250000       0.083333       0.000000
      0.250000       0.166667       0.000000
      0.166667       0.166667       0.000000
      0.250000       0.083333       0.000000
      0.333333       0.083333       0.000000
      0.333333       0.166667       0.000000
      0.250000       0.166667       0.000000
      0.333333       0.000000       0.000000
      0.416667       0.000000       0.000000
      0.416667       0.083333       0.000000
      0.333333       0.083333       0.000000
      0.416667       0.000000       0.000000
      0.500000       0.000000       0.000000
      0.500000       0.083333       0.000000
      0.416667       0.083333       0.000000
      0.333333       0.083333       0.000000
      0.416667       0.083333       0.000000
      0.416667       0.166667       0.000000
      0.333333       0.166667       0.000000
      0.416667       0.083333       0.000000
      0.500000       0.083333       0.000000
      0.500000       0.166667       0.000000
      0.416667       0.166667       0.000000
      0.000000       0.166667       0.000000
      0.083333       0.166667       0.000000
      0.083333       0.250000       0.000000
      0.000000       0.250000       0.000000
      0.083333       0.166667       0.000000
      0.166667       0.166667       0.000000
      0.166667       0.250000       0.000000
      0.083333       0.250000       0.000000
      0.000000       0.250000       0.000000
      0.083333       0.250000       0.000000
      0.083333       0.333333       0.000000
      0.000000       0.333333       0.000000
      0.083333       0.250000       0.000000
      0.166667       0.250000       0.000000
      0.166667       0.333333       0.000000
      0.083333       0.333333       0.000000
      0.166667       0.166667       0.000000
      0.250000       0.166667       0.000000
      0.250000       0.250000       0.000000
      0.166667       0.250000       0.000000
      0.250000       0.166667       0.000000
      0.333333       0.166667       0.000000
      0.333333       0.250000       0.000000
      0.250000       0.250000       0.000000
      0.166667       0.250000       0.000000
      0.250000       0.250000       0.000000
      0.250000       0.333333       0.000000
      0.166667       0.333333       0.000000
      0.250000       0.250000       0.000000
      0.333333       0.250000       0.000000
      0.333333       0.333333       0.000000
      0.250000       0.333333       0.000000
      0.333333       0.166667       0.000000
      0.416667       0.166667       0.000000
      0.416667       0.250000       0.000000
      0.333333       0.250000       0.000000
      0.416667       0.166667       0.000000
      0.500000       0.166667       0.000000
      0.500000       0.250000       0.000000
      0.416667       0.250000       0.000000
      0.333333       0.250000       0.000000
      0.416667       0.250000       0.000000
      0.416667       0.333333       0.000000
      0.333333       0.333333       0.000000
      0.416667       0.250000       0.000000
      0.500000       0.250000       0.000000
      0.500000       0.333333       0.000000
      0.416667       0.333333       0.000000
      0.000000       0.333333       0.000000
      0.083333       0.333333       0.000000
      0.083333       0.416667       0.000000
      0.000000       0.416667       0.000000
      0.083333       0.333333       0.000000
      0.166667       0.333333       0.000000
      0.166667       0.416667       0.000000
      0.083333       0.416667       0.000000
      0.000000       0.416667       0.000000
      0.083333       0.416667       0.000000
      0.083333       0.500000       0.000000
      0.000000       0.500000       0.000000
      0.083333       0.416667       0.000000
      0.166667       0.416667       0.000000
      0.166667       0.500000       0.000000
      0.083333       0.500000       0.000000
      0.166667       0.333333       0.000000
      0.250000       0.333333       0.000000
      0.250000       0.416667       0.000000
      0.166667       0.416667       0.000000
      0.250000       0.333333       0.000000
      0.333333       0.333333       0.000000
      0.333333       0.416667       0.000000
      0.250000       0.416667       0.000000
      0.166667       0.416667       0.000000
      0.250000       0.416667       0.000000
      0.250000       0.500000       0.000000
      0.166667       0.500000       0.000000
      0.250000       0.416667       0.000000
      0.333333       0.416667       0.000000
      0.333333       0.500000       0.000000
      0.250000       0.500000       0.000000
      0.333333       0.333333       0.000000
      0.375000       0.333333       0.000000
      0.375000       0.375000       0.000000
      0.333333       0.375000       0.000000
      0.375000       0.333333       0.000000
      0.416667       0.333333       0.000000
      0.416667       0.375000       0.000000
      0.375000       0.375000       0.000000
      0.333333       0.375000       0.000000
      0.375000       0.375000       0.000000
      0.375000       0.416667       0.000000
      0.333333       0.416667       0.000000
      0.375000       0.375000       0.000000
      0.416667       0.375000       0.000000
      0.416667       0.416667       0.000000
      0.375000       0.416667       0.000000
      0.416667       0.333333       0.000000
      0.458333       0.333333       0.000000
      0.458333       0.375000       0.000000
      0.416667       0.375000       0.000000
      0.458333       0.333333       0.000000
      0.500000       0.333333       0.000000
      0.500000       0.375000       0.000000
      0.458333       0.375000       0.000000
      0.416667       0.375000       0.000000
      0.458333       0.375000       0.000000
      0.458333       0.416667       0.000000
      0.416667       0.416667       0.000000
      0.458333       0.375000       0.000000
      0.500000       0.375000       0.000000
      0.500000       0.416667       0.000000
      0.458333       0.416667       0.000000
      0.333333       0.416667       0.000000
      0.375000       0.416667       0.000000
      0.375000       0.458333       0.000000
      0.333333       0.458333       0.000000
      0.375000       0.416667       0.000000
      0.416667       0.416667       0.000000
      0.416667       0.458333       0.000000
      0.375000       0.458333       0.000000
      0.333333       0.458333       0.000000
      0.375000       0.458333       0.000000
      0.375000       0.500000       0.000000
      0.333333       0.500000       0.000000
      0.375000       0.458333       0.000000
      0.416667       0.458333       0.000000
      0.416667       0.500000       0.000000
      0.375000       0.500000       0.000000
      0.416667       0.416667       0.000000
      0.437500       0.416667       0.000000
      0.437500       0.437500       0.000000
      0.416667       0.437500       0.000000
      0.437500       0.416667       0.000000
      0.458333       0.416667       0.000000
      0.458333       0.437500       0.000000
      0.437500       0.437500       0.000000
      0.416667       0.437500       0.000000
      0.437500       0.437500       0.000000
      0.437500       0.458333       0.000000
      0.416667       0.458333       0.000000
      0.437500       0.437500       0.000000
      0.458333       0.437500       0.000000
      0.458333       0.458333       0.000000
      0.437500       0.458333       0.000000
      0.458333       0.416667       0.000000
      0.479167       0.416667       0.000000
      0.479167       0.437500       0.000000
      0.458333       0.437500       0.000000
      0.479167       0.416667       0.000000
      0.500000       0.416667       0.000000
      0.500000       0.437500       0.000000
      0.479167       0.437500       0.000000
      0.458333       0.437500       0.000000
      0.479167       0.437500       0.000000
      0.479167       0.458333       0.000000
      0.458333       0.458333       0.000000
      0.416667       0.458333       0.000000
      0.437500       0.458333       0.000000
      0.437500       0.479167       0.000000
      0.416667       0.479167       0.000000
      0.437500       0.458333       0.000000
      0.458333       0.458333       0.000000
      0.458333       0.479167       0.000000
      0.437500       0.479167       0.000000
      0.416667       0.479167       0.000000
      0.437500       0.479167       0.000000
      0.437500       0.500000       0.000000
      0.416667       0.500000       0.000000
      0.437500       0.479167       0.000000
      0.458333       0.479167       0.000000
      0.458333       0.500000       0.000000
      0.437500       0.500000       0.000000
[...]
POINT_DATA  1236
VECTORS U float 
      0.000000       0.000000       0.000000
      0.000000       0.000000       0.000000
      0.000510       0.000018       0.000000
      0.000506       0.000000       0.000000
      0.000000       0.000000       0.000000
      0.000000       0.000000       0.000000
      0.000521       0.000038       0.000000
      0.000510       0.000018       0.000000
      0.000506       0.000000       0.000000
      0.000510       0.000018       0.000000
      0.000954       0.000030       0.000000
      0.000946       0.000000       0.000000
      0.000510       0.000018       0.000000
      0.000521       0.000038       0.000000
      0.000978       0.000064       0.000000
      0.000954       0.000030       0.000000
      0.000000       0.000000       0.000000
      0.000000       0.000000       0.000000
      0.000535       0.000060       0.000000
      0.000521       0.000038       0.000000
      0.000000       0.000000       0.000000
      0.000000       0.000000       0.000000
      0.000547       0.000085       0.000000
      0.000535       0.000060       0.000000
      0.000521       0.000038       0.000000
      0.000535       0.000060       0.000000
      0.001014       0.000107       0.000000
      0.000978       0.000064       0.000000
      0.000535       0.000060       0.000000
      0.000547       0.000085       0.000000
      0.001052       0.000158       0.000000
      0.001014       0.000107       0.000000
      0.000000       0.000000       0.000000
      0.000000       0.000000       0.000000
      0.000552       0.000107       0.000000
      0.000547       0.000085       0.000000
      0.000000       0.000000       0.000000
      0.000000       0.000000       0.000000
      0.000549       0.000116       0.000000
      0.000552       0.000107       0.000000
      0.000547       0.000085       0.000000
      0.000552       0.000107       0.000000
      0.001083       0.000209       0.000000
      0.001052       0.000158       0.000000
      0.000552       0.000107       0.000000
      0.000549       0.000116       0.000000
      0.001099       0.000233       0.000000
      0.001083       0.000209       0.000000
      0.000946       0.000000       0.000000
      0.000954       0.000030       0.000000
      0.001318       0.000033       0.000000
      0.001304       0.000000       0.000000
      0.000954       0.000030       0.000000
      0.000978       0.000064       0.000000
      0.001359       0.000073       0.000000
      0.001318       0.000033       0.000000
      0.001304       0.000000       0.000000
      0.001318       0.000033       0.000000
      0.001587       0.000027       0.000000
      0.001569       0.000000       0.000000
      0.001318       0.000033       0.000000
      0.001359       0.000073       0.000000
      0.001644       0.000062       0.000000
      0.001587       0.000027       0.000000
      0.000978       0.000064       0.000000
      0.001014       0.000107       0.000000
      0.001424       0.000129       0.000000
      0.001359       0.000073       0.000000
      0.001014       0.000107       0.000000
      0.001052       0.000158       0.000000
      0.001507       0.000204       0.000000
      0.001424       0.000129       0.000000
      0.001359       0.000073       0.000000
      0.001424       0.000129       0.000000
      0.001741       0.000117       0.000000
      0.001644       0.000062       0.000000
      0.001424       0.000129       0.000000
      0.001507       0.000204       0.000000
      0.001880       0.000202       0.000000
      0.001741       0.000117       0.000000
      0.001052       0.000158       0.000000
      0.001083       0.000209       0.000000
      0.001591       0.000292       0.000000
      0.001507       0.000204       0.000000
      0.001083       0.000209       0.000000
      0.001099       0.000233       0.000000
      0.001654       0.000345       0.000000
      0.001591       0.000292       0.000000
      0.001507       0.000204       0.000000
      0.001591       0.000292       0.000000
      0.002055       0.000331       0.000000
      0.001880       0.000202       0.000000
      0.001591       0.000292       0.000000
      0.001654       0.000345       0.000000
      0.002215       0.000449       0.000000
      0.002055       0.000331       0.000000
      0.001569       0.000000       0.000000
      0.001587       0.000027       0.000000
      0.001751       0.000012       0.000000
      0.001729       0.000000       0.000000
      0.001587       0.000027       0.000000
      0.001644       0.000062       0.000000
      0.001816       0.000033       0.000000
      0.001751       0.000012       0.000000
      0.001729       0.000000       0.000000
      0.001751       0.000012       0.000000
      0.001805      -0.000005       0.000000
      0.001786       0.000000       0.000000
      0.001751       0.000012       0.000000
      0.001816       0.000033       0.000000
      0.001867      -0.000003       0.000000
      0.001805      -0.000005       0.000000
      0.001644       0.000062       0.000000
      0.001741       0.000117       0.000000
      0.001930       0.000071       0.000000
      0.001816       0.000033       0.000000
      0.001741       0.000117       0.000000
      0.001880       0.000202       0.000000
      0.002106       0.000138       0.000000
      0.001930       0.000071       0.000000
      0.001816       0.000033       0.000000
      0.001930       0.000071       0.000000
      0.001975       0.000012       0.000000
      0.001867      -0.000003       0.000000
      0.001930       0.000071       0.000000
      0.002106       0.000138       0.000000
      0.002139       0.000050       0.000000
      0.001975       0.000012       0.000000
      0.001880       0.000202       0.000000
      0.001965       0.000261       0.000000
      0.002123       0.000237       0.000000
      0.002016       0.000177       0.000000
      0.001965       0.000261       0.000000
      0.002055       0.000331       0.000000
      0.002247       0.000316       0.000000
      0.002123       0.000237       0.000000
      0.002016       0.000177       0.000000
      0.002123       0.000237       0.000000
      0.002226       0.000190       0.000000
      0.002106       0.000138       0.000000
      0.002123       0.000237       0.000000
      0.002247       0.000316       0.000000
      0.002378       0.000266       0.000000
      0.002226       0.000190       0.000000
      0.002055       0.000331       0.000000
      0.002142       0.000403       0.000000
      0.002380       0.000416       0.000000
      0.002247       0.000316       0.000000
      0.002142       0.000403       0.000000
      0.002215       0.000449       0.000000
      0.002499       0.000496       0.000000
      0.002380       0.000416       0.000000
      0.002247       0.000316       0.000000
      0.002380       0.000416       0.000000
      0.002571       0.000388       0.000000
      0.002378       0.000266       0.000000
      0.002380       0.000416       0.000000
      0.002499       0.000496       0.000000
      0.002782       0.000538       0.000000
      0.002571       0.000388       0.000000
      0.002106       0.000138       0.000000
      0.002226       0.000190       0.000000
      0.002263       0.000133       0.000000
      0.002146       0.000093       0.000000
      0.002226       0.000190       0.000000
      0.002378       0.000266       0.000000
      0.002410       0.000190       0.000000
      0.002263       0.000133       0.000000
      0.002146       0.000093       0.000000
      0.002263       0.000133       0.000000
      0.002245       0.000081       0.000000
      0.002139       0.000050       0.000000
      0.002263       0.000133       0.000000
      0.002410       0.000190       0.000000
      0.002363       0.000125       0.000000
      0.002245       0.000081       0.000000
      0.002378       0.000266       0.000000
      0.002469       0.000320       0.000000
      0.002505       0.000279       0.000000
      0.002407       0.000229       0.000000
      0.002469       0.000320       0.000000
      0.002571       0.000388       0.000000
      0.002622       0.000349       0.000000
      0.002505       0.000279       0.000000
      0.002407       0.000229       0.000000
      0.002505       0.000279       0.000000
      0.002502       0.000231       0.000000
      0.002410       0.000190       0.000000
      0.002505       0.000279       0.000000
      0.002622       0.000349       0.000000
      0.002618       0.000291       0.000000
      0.002502       0.000231       0.000000
      0.002571       0.000388       0.000000
      0.002678       0.000469       0.000000
      0.002763       0.000447       0.000000
      0.002622       0.000349       0.000000
      0.002678       0.000469       0.000000
      0.002782       0.000538       0.000000
      0.002916       0.000553       0.000000
      0.002763       0.000447       0.000000
      0.002622       0.000349       0.000000
      0.002763       0.000447       0.000000
      0.002783       0.000393       0.000000
      0.002618       0.000291       0.000000
      0.002410       0.000190       0.000000
      0.002502       0.000231       0.000000
      0.002467       0.000188       0.000000
      0.002391       0.000154       0.000000
      0.002502       0.000231       0.000000
      0.002618       0.000291       0.000000
      0.002555       0.000234       0.000000
      0.002467       0.000188       0.000000
      0.002391       0.000154       0.000000
      0.002467       0.000188       0.000000
      0.002425       0.000157       0.000000
      0.002363       0.000125       0.000000
      0.002467       0.000188       0.000000
      0.002555       0.000234       0.000000
      0.002484       0.000200       0.000000
      0.002425       0.000157       0.000000
      0.002618       0.000291       0.000000
      0.002692       0.000335       0.000000
      0.002661       0.000299       0.000000
      0.002592       0.000261       0.000000
      0.002692       0.000335       0.000000
      0.002783       0.000393       0.000000
      0.002750       0.000352       0.000000
      0.002661       0.000299       0.000000
      0.002592       0.000261       0.000000
      0.002661       0.000299       0.000000
      0.002610       0.000266       0.000000
      0.002555       0.000234       0.000000
      0.002661       0.000299       0.000000
      0.002750       0.000352       0.000000
      0.002682       0.000310       0.000000
      0.002610       0.000266       0.000000
      0.002783       0.000393       0.000000
      0.002897       0.000470       0.000000
      0.002878       0.000431       0.000000
      0.002750       0.000352       0.000000
      0.002897       0.000470       0.000000
      0.003034       0.000555       0.000000
      0.003073       0.000541       0.000000
      0.002878       0.000431       0.000000
      0.002750       0.000352       0.000000
      0.002878       0.000431       0.000000
      0.002797       0.000377       0.000000
      0.002682       0.000310       0.000000
      0.002878       0.000431       0.000000
      0.003073       0.000541       0.000000
      0.003064       0.000497       0.000000
      0.002797       0.000377       0.000000
      0.002555       0.000234       0.000000
      0.002610       0.000266       0.000000
      0.002554       0.000243       0.000000
      0.002516       0.000214       0.000000
      0.002610       0.000266       0.000000
      0.002682       0.000310       0.000000
      0.002599       0.000280       0.000000
      0.002554       0.000243       0.000000
      0.002516       0.000214       0.000000
      0.002554       0.000243       0.000000
      0.002512       0.000229       0.000000
      0.002484       0.000200       0.000000
      0.002554       0.000243       0.000000
      0.002599       0.000280       0.000000
      0.002540       0.000267       0.000000
      0.002512       0.000229       0.000000
      0.002682       0.000310       0.000000
      0.002797       0.000377       0.000000
      0.002663       0.000329       0.000000
      0.002599       0.000280       0.000000
      0.002797       0.000377       0.000000
      0.003064       0.000497       0.000000
      0.002870       0.000348       0.000000
      0.002663       0.000329       0.000000
      0.002599       0.000280       0.000000
      0.002663       0.000329       0.000000
      0.002591       0.000323       0.000000
      0.002540       0.000267       0.000000
      0.002663       0.000329       0.000000
      0.002870       0.000348       0.000000
      0.006061       0.000436       0.000000
      0.002591       0.000323       0.000000
      0.002763       0.000447       0.000000
      0.002839       0.000504       0.000000
      0.002878       0.000492       0.000000
      0.002785       0.000425       0.000000
      0.002839       0.000504       0.000000
      0.002916       0.000553       0.000000
      0.002979       0.000557       0.000000
      0.002878       0.000492       0.000000
      0.002785       0.000425       0.000000
      0.002878       0.000492       0.000000
      0.002897       0.000470       0.000000
      0.002783       0.000393       0.000000
      0.002878       0.000492       0.000000
      0.002979       0.000557       0.000000
      0.003034       0.000555       0.000000
      0.002897       0.000470       0.000000
      0.000000       0.000000       0.000000
      0.000000       0.000000       0.000000
      0.000544       0.000107       0.000000
      0.000549       0.000116       0.000000
      0.000000       0.000000       0.000000
      0.000000       0.000000       0.000000
      0.000548       0.000083       0.000000
      0.000544       0.000107       0.000000
      0.000549       0.000116       0.000000
      0.000544       0.000107       0.000000
      0.001113       0.000211       0.000000
      0.001099       0.000233       0.000000
      0.000544       0.000107       0.000000
      0.000548       0.000083       0.000000
      0.001141       0.000153       0.000000
      0.001113       0.000211       0.000000
      0.000000       0.000000       0.000000
      0.000000       0.000000       0.000000
      0.000562       0.000054       0.000000
      0.000548       0.000083       0.000000
      0.000000       0.000000       0.000000
      0.000000       0.000000       0.000000
      0.000580       0.000031       0.000000
      0.000562       0.000054       0.000000
      0.000548       0.000083       0.000000
      0.000562       0.000054       0.000000
      0.001182       0.000092       0.000000
      0.001141       0.000153       0.000000
      0.000562       0.000054       0.000000
      0.000580       0.000031       0.000000
      0.001225       0.000047       0.000000
      0.001182       0.000092       0.000000
      0.000000       0.000000       0.000000
      0.000000       0.000000       0.000000
      0.000595       0.000013       0.000000
      0.000580       0.000031       0.000000
      0.000000       0.000000       0.000000
      0.000000       0.000000       0.000000
      0.000600       0.000000       0.000000
      0.000595       0.000013       0.000000
      0.000580       0.000031       0.000000
      0.000595       0.000013       0.000000
      0.001255       0.000019       0.000000
      0.001225       0.000047       0.000000
      0.000595       0.000013       0.000000
      0.000600       0.000000       0.000000
      0.001265       0.000000       0.000000
      0.001255       0.000019       0.000000
      0.001099       0.000233       0.000000
      0.001113       0.000211       0.000000
      0.001708       0.000303       0.000000
      0.001654       0.000345       0.000000
      0.001113       0.000211       0.000000
      0.001141       0.000153       0.000000
      0.001786       0.000197       0.000000
      0.001708       0.000303       0.000000
      0.001654       0.000345       0.000000
      0.001708       0.000303       0.000000
      0.002353       0.000367       0.000000
      0.002215       0.000449       0.000000
      0.001708       0.000303       0.000000
      0.001786       0.000197       0.000000
      0.002526       0.000189       0.000000
      0.002353       0.000367       0.000000
      0.001141       0.000153       0.000000
      0.001182       0.000092       0.000000
      0.001874       0.000102       0.000000
      0.001786       0.000197       0.000000
      0.001182       0.000092       0.000000
      0.001225       0.000047       0.000000
      0.001949       0.000043       0.000000
      0.001874       0.000102       0.000000
      0.001786       0.000197       0.000000
      0.001874       0.000102       0.000000
      0.002677       0.000070       0.000000
      0.002526       0.000189       0.000000
      0.001874       0.000102       0.000000
      0.001949       0.000043       0.000000
      0.002779       0.000016       0.000000
      0.002677       0.000070       0.000000
      0.001225       0.000047       0.000000
      0.001255       0.000019       0.000000
      0.001996       0.000014       0.000000
      0.001949       0.000043       0.000000
      0.001255       0.000019       0.000000
      0.001265       0.000000       0.000000
      0.002012       0.000000       0.000000
      0.001996       0.000014       0.000000
      0.001949       0.000043       0.000000
      0.001996       0.000014       0.000000
      0.002835      -0.000000       0.000000
      0.002779       0.000016       0.000000
      0.001996       0.000014       0.000000
      0.002012       0.000000       0.000000
      0.002852       0.000000       0.000000
      0.002835      -0.000000       0.000000
      0.002526       0.000189       0.000000
      0.002677       0.000070       0.000000
      0.003654       0.000008       0.000000
      0.003496       0.000102       0.000000
      0.002677       0.000070       0.000000
      0.002779       0.000016       0.000000
      0.003734      -0.000020       0.000000
      0.003654       0.000008       0.000000
      0.003496       0.000102       0.000000
      0.003654       0.000008       0.000000
      0.004796      -0.000021       0.000000
      0.004825       0.000040       0.000000
      0.003654       0.000008       0.000000
      0.003734      -0.000020       0.000000
      0.004782      -0.000034       0.000000
      0.004796      -0.000021       0.000000
      0.002779       0.000016       0.000000
      0.002835      -0.000000       0.000000
      0.003773      -0.000017       0.000000
      0.003734      -0.000020       0.000000
      0.002835      -0.000000       0.000000
      0.002852       0.000000       0.000000
      0.003785       0.000000       0.000000
      0.003773      -0.000017       0.000000
      0.003734      -0.000020       0.000000
      0.003773      -0.000017       0.000000
      0.004776      -0.000023       0.000000
      0.004782      -0.000034       0.000000
      0.003773      -0.000017       0.000000
      0.003785       0.000000       0.000000
      0.004774       0.000000       0.000000
      0.004776      -0.000023       0.000000
      0.002215       0.000449       0.000000
      0.002281       0.000436       0.000000
      0.002604       0.000480       0.000000
      0.002499       0.000496       0.000000
      0.002281       0.000436       0.000000
      0.002353       0.000367       0.000000
      0.002723       0.000374       0.000000
      0.002604       0.000480       0.000000
      0.002499       0.000496       0.000000
      0.002604       0.000480       0.000000
      0.002976       0.000511       0.000000
      0.002782       0.000538       0.000000
      0.002604       0.000480       0.000000
      0.002723       0.000374       0.000000
      0.003187       0.000340       0.000000