# vtk DataFile Version 2.0
time_10.vtk
ASCII
DATASET UNSTRUCTURED_GRID
POINTS  1680 float
      0.000000       0.000000       0.000000
      0.083333       0.000000       0.000000
      0.083333       0.083333       0.000000
      0.000000       0.083333       0.000000
      0.083333       0.000000       0.000000
      0.166667       0.000000       0.000000
      0.166667       0.083333       0.000000
      0.083333       0.083333       0.000000
      0.000000       0.083333       0.000000
      0.083333       0.083333       0.000000
      0.083333       0.166667       0.000000
      0.000000       0.166667       0.000000
      0.083333       0.083333       0.000000
      0.166667       0.083333       0.000000
      0.166667       0.166667       0.000000
      0.083333       0.166667       0.000000
      0.166667       0.000000       0.000000
      0.250000       0.000000       0.000000
      0.250000       0.083333       0.000000
      0.166667       0.083333       0.000000
      0.250000       0.000000       0.000000
      0.333333       0.000000       0.000000
      0.333333       0.083333       0.000000
      0.250000       0.083333       0.000000
      0.166667       0.083333       0.000000
      0.250000       0.083333       0.000000
      0.250000       0.166667       0.000000
      0.166667       0.166667       0.000000
      0.250000       0.083333       0.000000
      0.333333       0.083333       0.000000
      0.333333       0.166667       0.000000
      0.250000       0.166667       0.000000
      0.333333       0.000000       0.000000
      0.416667       0.000000       0.000000
      0.416667       0.083333       0.000000
      0.333333       0.083333       0.000000
      0.416667       0.000000       0.000000
      0.500000       0.000000       0.000000
      0.500000       0.083333       0.000000
      0.416667       0.083333       0.000000
      0.333333       0.083333       0.000000
      0.416667       0.083333       0.000000
      0.416667       0.166667       0.000000
      0.333333       0.166667       0.000000
      0.416667       0.083333       0.000000
      0.500000       0.083333       0.000000
      0.500000       0.166667       0.000000
      0.416667       0.166667       0.000000
      0.000000       0.166667       0.000000
      0.083333       0.166667       0.000000
      0.083333       0.250000       0.000000
      0.000000       0.250000       0.000000
      0.083333       0.166667       0.000000
      0.166667       0.166667       0.000000
      0.166667       0.250000       0.000000
      0.083333       0.250000       0.000000
      0.000000       0.250000       0.000000
      0.083333       0.250000       0.000000
      0.083333       0.333333       0.000000
      0.000000       0.333333       0.000000
      0.083333       0.250000       0.000000
      0.166667       0.250000       0.000000
      0.166667       0.333333       0.000000
      0.083333       0.333333       0.000000
      0.166667       0.166667       0.000000
      0.250000       0.166667       0.000000
      0.250000       0.250000       0.000000
      0.166667       0.250000       0.000000
      0.250000       0.166667       0.000000
      0.333333       0.166667       0.000000
      0.333333       0.250000       0.000000
      0.250000       0.250000       0.000000
      0.166667       0.250000       0.000000
      0.250000       0.250000       0.000000
      0.250000       0.333333       0.000000
      0.166667       0.333333       0.000000
      0.250000       0.250000       0.000000
      0.333333       0.250000       0.000000
      0.333333       0.333333       0.000000
      0.250000       0.333333       0.000000
      0.333333       0.166667       0.000000
      0.416667       0.166667       0.000000
      0.416667       0.250000       0.000000
      0.333333       0.250000       0.000000
      0.416667       0.166667       0.000000
      0.500000       0.166667       0.000000
      0.500000       0.250000       0.000000
      0.416667       0.250000       0.000000
      0.333333       0.250000       0.000000
      0.416667       0.250000       0.000000
      0.416667       0.333333       0.000000
      0.333333       0.333333       0.000000
      0.000000       0.333333       0.000000
      0.083333       0.333333       0.000000
      0.083333       0.416667       0.000000
      0.000000       0.416667       0.000000
      0.083333       0.333333       0.000000
      0.166667       0.333333       0.000000
      0.166667       0.416667       0.000000
      0.083333       0.416667       0.000000
      0.000000       0.416667       0.000000
      0.083333       0.416667       0.000000
      0.083333       0.500000       0.000000
      0.000000       0.500000       0.000000
      0.083333       0.416667       0.000000
      0.166667       0.416667       0.000000
      0.166667       0.500000       0.000000
      0.083333       0.500000       0.000000
      0.166667       0.333333       0.000000
      0.250000       0.333333       0.000000
      0.250000       0.416667       0.000000
      0.166667       0.416667       0.000000
      0.250000       0.333333       0.000000
      0.333333       0.333333       0.000000
      0.333333       0.416667       0.000000
      0.250000       0.416667       0.000000
      0.166667       0.416667       0.000000
      0.250000       0.416667       0.000000
      0.250000       0.500000       0.000000
      0.166667       0.500000       0.000000
      0.250000       0.416667       0.000000
      0.333333       0.416667       0.000000
      0.333333       0.500000       0.000000
      0.250000       0.500000       0.000000
      0.333333       0.333333       0.000000
      0.375000       0.333333       0.000000
      0.375000       0.375000       0.000000
      0.333333       0.375000       0.000000
      0.375000       0.333333       0.000000
      0.416667       0.333333       0.000000
      0.416667       0.375000       0.000000
      0.375000       0.375000       0.000000
      0.333333       0.375000       0.000000
      0.375000       0.375000       0.000000
      0.375000       0.416667       0.000000
      0.333333       0.416667       0.000000
      0.375000       0.375000       0.000000
      0.416667       0.375000       0.000000
      0.416667       0.416667       0.000000
      0.375000       0.416667       0.000000
      0.416667       0.333333       0.000000
      0.458333       0.333333       0.000000
      0.458333       0.375000       0.000000
      0.416667       0.375000       0.000000
      0.416667       0.375000       0.000000
      0.458333       0.375000       0.000000
      0.458333       0.416667       0.000000
      0.416667       0.416667       0.000000
      0.333333       0.416667       0.000000
      0.375000       0.416667       0.000000
      0.375000       0.458333       0.000000
      0.333333       0.458333       0.000000
      0.375000       0.416667       0.000000
      0.416667       0.416667       0.000000
      0.416667       0.458333       0.000000
      0.375000       0.458333       0.000000
      0.333333       0.458333       0.000000
      0.375000       0.458333       0.000000
      0.375000       0.500000       0.000000
      0.333333       0.500000       0.000000
      0.375000       0.458333       0.000000
      0.416667       0.458333       0.000000
      0.416667       0.500000       0.000000
      0.375000       0.500000       0.000000
      0.416667       0.416667       0.000000
      0.437500       0.416667       0.000000
      0.437500       0.437500       0.000000
      0.416667       0.437500       0.000000
      0.437500       0.416667       0.000000
      0.458333       0.416667       0.000000
      0.458333       0.437500       0.000000
      0.437500       0.437500       0.000000
      0.416667       0.437500       0.000000
      0.437500       0.437500       0.000000
      0.437500       0.458333       0.000000
      0.416667       0.458333       0.000000
      0.437500       0.437500       0.000000
      0.458333       0.437500       0.000000
      0.458333       0.458333       0.000000
      0.437500       0.458333       0.000000
      0.458333       0.416667       0.000000
      0.479167       0.416667       0.000000
      0.479167       0.437500       0.000000
      0.458333       0.437500       0.000000
      0.458333       0.437500       0.000000
      0.479167       0.437500       0.000000
      0.479167       0.458333       0.000000
      0.458333       0.458333       0.000000
      0.416667       0.458333       0.000000
      0.437500       0.458333       0.000000
      0.437500       0.479167       0.000000
      0.416667       0.479167       0.000000
      0.437500       0.458333       0.000000
      0.458333       0.458333       0.000000
      0.458333       0.479167       0.000000
      0.437500       0.479167       0.000000
      0.416667       0.479167       0.000000
      0.437500       0.479167       0.000000
      0.437500       0.500000       0.000000
      0.416667       0.500000       0.000000
      0.437500       0.479167       0.000000
      0.458333       0.479167       0.000000
      0.458333       0.500000       0.000000
      0.437500       0.500000       0.000000
      0.458333       0.458333       0.000000
      0.468750       0.458333       0.000000
      0.468750       0.468750       0.000000
      0.458333       0.468750       0.000000
      0.468750       0.458333       0.000000
      0.479167       0.458333       0.000000
      0.479167       0.468750       0.000000
      0.468750       0.468750       0.000000
      0.458333       0.468750       0.000000
      0.468750       0.468750       0.000000
      0.468750       0.479167       0.000000
      0.458333       0.479167       0.000000
      0.468750       0.468750       0.000000
      0.479167       0.468750       0.000000
      0.479167       0.479167       0.000000
      0.468750       0.479167       0.000000
[...]
POINT_DATA  1680
VECTORS U float 
      0.000000       0.000000       0.000000
      0.000000       0.000000       0.000000
      0.000322       0.000002       0.000000
      0.000313       0.000000       0.000000
      0.000000       0.000000       0.000000
      0.000000       0.000000       0.000000
      0.000348       0.000007       0.000000
      0.000322       0.000002       0.000000
      0.000313       0.000000       0.000000
      0.000322       0.000002       0.000000
      0.000590      -0.000007       0.000000
      0.000576       0.000000       0.000000
      0.000322       0.000002       0.000000
      0.000348       0.000007       0.000000
      0.000631      -0.000008       0.000000
      0.000590      -0.000007       0.000000
      0.000000       0.000000       0.000000
      0.000000       0.000000       0.000000
      0.000393       0.000019       0.000000
      0.000348       0.000007       0.000000
      0.000000       0.000000       0.000000
      0.000000       0.000000       0.000000
      0.000453       0.000044       0.000000
      0.000393       0.000019       0.000000
      0.000348       0.000007       0.000000
      0.000393       0.000019       0.000000
      0.000703       0.000003       0.000000
      0.000631      -0.000008       0.000000
      0.000393       0.000019       0.000000
      0.000453       0.000044       0.000000
      0.000805       0.000041       0.000000
      0.000703       0.000003       0.000000
      0.000000       0.000000       0.000000
      0.000000       0.000000       0.000000
      0.000518       0.000090       0.000000
      0.000453       0.000044       0.000000
      0.000000       0.000000       0.000000
      0.000000       0.000000       0.000000
      0.000566       0.000153       0.000000
      0.000518       0.000090       0.000000
      0.000453       0.000044       0.000000
      0.000518       0.000090       0.000000
      0.000935       0.000126       0.000000
      0.000805       0.000041       0.000000
      0.000518       0.000090       0.000000
      0.000566       0.000153       0.000000
      0.001068       0.000271       0.000000
      0.000935       0.000126       0.000000
      0.000576       0.000000       0.000000
      0.000590      -0.000007       0.000000
      0.000789      -0.000021       0.000000
      0.000775       0.000000       0.000000
      0.000590      -0.000007       0.000000
      0.000631      -0.000008       0.000000
      0.000834      -0.000035       0.000000
      0.000789      -0.000021       0.000000
      0.000775       0.000000       0.000000
      0.000789      -0.000021       0.000000
      0.000923      -0.000035       0.000000
      0.000911       0.000000       0.000000
      0.000789      -0.000021       0.000000
      0.000834      -0.000035       0.000000
      0.000958      -0.000063       0.000000
      0.000923      -0.000035       0.000000
      0.000631      -0.000008       0.000000
      0.000703       0.000003       0.000000
      0.000912      -0.000035       0.000000
      0.000834      -0.000035       0.000000
      0.000703       0.000003       0.000000
      0.000805       0.000041       0.000000
      0.001031      -0.000004       0.000000
      0.000912      -0.000035       0.000000
      0.000834      -0.000035       0.000000
      0.000912      -0.000035       0.000000
      0.001020      -0.000077       0.000000
      0.000958      -0.000063       0.000000
      0.000912      -0.000035       0.000000
      0.001031      -0.000004       0.000000
      0.001114      -0.000062       0.000000
      0.001020      -0.000077       0.000000
      0.000805       0.000041       0.000000
      0.000935       0.000126       0.000000
      0.001204       0.000087       0.000000
      0.001031      -0.000004       0.000000
      0.000935       0.000126       0.000000
      0.001068       0.000271       0.000000
      0.001458       0.000298       0.000000
      0.001204       0.000087       0.000000
      0.001031      -0.000004       0.000000
      0.001204       0.000087       0.000000
      0.001248       0.000005       0.000000
      0.001114      -0.000062       0.000000
      0.000911       0.000000       0.000000
      0.000923      -0.000035       0.000000
      0.001005      -0.000044       0.000000
      0.000998       0.000000       0.000000
      0.000923      -0.000035       0.000000
      0.000958      -0.000063       0.000000
      0.001024      -0.000082       0.000000
      0.001005      -0.000044       0.000000
      0.000998       0.000000       0.000000
      0.001005      -0.000044       0.000000
      0.001057      -0.000048       0.000000
      0.001055       0.000000       0.000000
      0.001005      -0.000044       0.000000
      0.001024      -0.000082       0.000000
      0.001062      -0.000089       0.000000
      0.001057      -0.000048       0.000000
      0.000958      -0.000063       0.000000
      0.001020      -0.000077       0.000000
      0.001056      -0.000106       0.000000
      0.001024      -0.000082       0.000000
      0.001020      -0.000077       0.000000
      0.001114      -0.000062       0.000000
      0.001098      -0.000098       0.000000
      0.001056      -0.000106       0.000000
      0.001024      -0.000082       0.000000
      0.001056      -0.000106       0.000000
      0.001064      -0.000114       0.000000
      0.001062      -0.000089       0.000000
      0.001056      -0.000106       0.000000
      0.001098      -0.000098       0.000000
      0.001056      -0.000104       0.000000
      0.001064      -0.000114       0.000000
      0.001114      -0.000062       0.000000
      0.001175      -0.000037       0.000000
      0.001155      -0.000061       0.000000
      0.001113      -0.000084       0.000000
      0.001175      -0.000037       0.000000
      0.001248       0.000005       0.000000
      0.001201      -0.000022       0.000000
      0.001155      -0.000061       0.000000
      0.001113      -0.000084       0.000000
      0.001155      -0.000061       0.000000
      0.001121      -0.000074       0.000000
      0.001098      -0.000098       0.000000
      0.001155      -0.000061       0.000000
      0.001201      -0.000022       0.000000
      0.001143      -0.000032       0.000000
      0.001121      -0.000074       0.000000
      0.001248       0.000005       0.000000
      0.001339       0.000070       0.000000
      0.001249       0.000041       0.000000
      0.001201      -0.000022       0.000000
      0.001201      -0.000022       0.000000
      0.001249       0.000041       0.000000
      0.001161       0.000033       0.000000
      0.001143      -0.000032       0.000000
      0.001098      -0.000098       0.000000
      0.001121      -0.000074       0.000000
      0.001083      -0.000079       0.000000
      0.001076      -0.000104       0.000000
      0.001121      -0.000074       0.000000
      0.001143      -0.000032       0.000000
      0.001089      -0.000034       0.000000
      0.001083      -0.000079       0.000000
      0.001076      -0.000104       0.000000
      0.001083      -0.000079       0.000000
      0.001047      -0.000078       0.000000
      0.001056      -0.000104       0.000000
      0.001083      -0.000079       0.000000
      0.001089      -0.000034       0.000000
      0.001037      -0.000033       0.000000
      0.001047      -0.000078       0.000000
      0.001143      -0.000032       0.000000
      0.001152      -0.000003       0.000000
      0.001120      -0.000004       0.000000
      0.001115      -0.000034       0.000000
      0.001152      -0.000003       0.000000
      0.001161       0.000033       0.000000
      0.001125       0.000032       0.000000
      0.001120      -0.000004       0.000000
      0.001115      -0.000034       0.000000
      0.001120      -0.000004       0.000000
      0.001091      -0.000004       0.000000
      0.001089      -0.000034       0.000000
      0.001120      -0.000004       0.000000
      0.001125       0.000032       0.000000
      0.001093       0.000032       0.000000
      0.001091      -0.000004       0.000000
      0.001161       0.000033       0.000000
      0.001168       0.000077       0.000000
      0.001129       0.000075       0.000000
      0.001125       0.000032       0.000000
      0.001125       0.000032       0.000000
      0.001129       0.000075       0.000000
      0.001096       0.000072       0.000000
      0.001093       0.000032       0.000000
      0.001089      -0.000034       0.000000
      0.001091      -0.000004       0.000000
      0.001063      -0.000003       0.000000
      0.001063      -0.000034       0.000000
      0.001091      -0.000004       0.000000
      0.001093       0.000032       0.000000
      0.001063       0.000032       0.000000
      0.001063      -0.000003       0.000000
      0.001063      -0.000034       0.000000
      0.001063      -0.000003       0.000000
      0.001033      -0.000003       0.000000
      0.001037      -0.000033       0.000000
      0.001063      -0.000003       0.000000
      0.001063       0.000032       0.000000
      0.001032       0.000031       0.000000
      0.001033      -0.000003       0.000000
      0.001093       0.000032       0.000000
      0.001094       0.000051       0.000000
      0.001079       0.000051       0.000000
      0.001078       0.000032       0.000000
      0.001094       0.000051       0.000000
      0.001096       0.000072       0.000000
      0.001080       0.000071       0.000000
      0.001079       0.000051       0.000000
      0.001078       0.000032       0.000000
      0.001079       0.000051       0.000000
      0.001064       0.000050       0.000000
      0.001063       0.000032       0.000000
      0.001079       0.000051       0.000000
      0.001080       0.000071       0.000000
      0.001066       0.000069       0.000000
      0.001064       0.000050       0.000000
      0.001096       0.000072       0.000000
      0.001098       0.000095       0.000000
      0.001083       0.000093       0.000000
      0.001080       0.000071       0.000000
      0.001098       0.000095       0.000000
      0.001103       0.000120       0.000000
      0.001090       0.000124       0.000000
      0.001083       0.000093       0.000000
      0.001080       0.000071       0.000000
      0.001083       0.000093       0.000000
      0.001069       0.000090       0.000000
      0.001066       0.000069       0.000000
      0.001083       0.000093       0.000000
      0.001090       0.000124       0.000000
      0.001065       0.000127       0.000000
      0.001069       0.000090       0.000000
      0.001063       0.000032       0.000000
      0.001064       0.000050       0.000000
      0.001049       0.000050       0.000000
      0.001048       0.000031       0.000000
      0.001064       0.000050       0.000000
      0.001066       0.000069       0.000000
      0.001051       0.000067       0.000000
      0.001049       0.000050       0.000000
      0.001048       0.000031       0.000000
      0.001049       0.000050       0.000000
      0.001033       0.000050       0.000000
      0.001032       0.000031       0.000000
      0.001049       0.000050       0.000000
      0.001051       0.000067       0.000000
      0.001040       0.000070       0.000000
      0.001033       0.000050       0.000000
      0.001066       0.000069       0.000000
      0.001069       0.000090       0.000000
      0.001054       0.000082       0.000000
      0.001051       0.000067       0.000000
      0.001069       0.000090       0.000000
      0.001065       0.000127       0.000000
      0.000770       0.000104       0.000000
      0.001054       0.000082       0.000000
      0.001051       0.000067       0.000000
      0.001054       0.000082       0.000000
      0.001092       0.000098       0.000000
      0.001040       0.000070       0.000000
      0.001054       0.000082       0.000000
      0.000770       0.000104       0.000000
      0.008362       0.000808       0.000000
      0.001092       0.000098       0.000000
      0.001129       0.000075       0.000000
      0.001131       0.000099       0.000000
      0.001114       0.000097       0.000000
      0.001112       0.000074       0.000000
      0.001131       0.000099       0.000000
      0.001134       0.000125       0.000000
      0.001118       0.000122       0.000000
      0.001114       0.000097       0.000000
      0.001112       0.000074       0.000000
      0.001114       0.000097       0.000000
      0.001098       0.000095       0.000000
      0.001096       0.000072       0.000000
      0.001114       0.000097       0.000000
      0.001118       0.000122       0.000000
      0.001103       0.000120       0.000000
      0.001098       0.000095       0.000000
      0.001249       0.000041       0.000000
      0.001274       0.000084       0.000000
      0.001216       0.000079       0.000000
      0.001203       0.000035       0.000000
      0.001274       0.000084       0.000000
      0.001297       0.000140       0.000000
      0.001228       0.000135       0.000000
      0.001216       0.000079       0.000000
      0.001203       0.000035       0.000000
      0.001216       0.000079       0.000000
      0.001168       0.000077       0.000000
      0.001161       0.000033       0.000000
      0.001168       0.000077       0.000000
      0.001171       0.000102       0.000000
      0.001150       0.000101       0.000000
      0.001147       0.000076       0.000000
      0.001171       0.000102       0.000000
      0.001175       0.000130       0.000000
      0.001153       0.000128       0.000000
      0.001150       0.000101       0.000000
      0.001147       0.000076       0.000000
      0.001150       0.000101       0.000000
      0.001131       0.000099       0.000000
      0.001129       0.000075       0.000000
      0.001150       0.000101       0.000000
      0.001153       0.000128       0.000000
      0.001134       0.000125       0.000000
      0.001131       0.000099       0.000000
      0.001216       0.000079       0.000000
      0.001222       0.000105       0.000000
      0.001195       0.000104       0.000000
      0.001191       0.000078       0.000000
      0.001222       0.000105       0.000000
      0.001228       0.000135       0.000000
      0.001200       0.000133       0.000000
      0.001195       0.000104       0.000000
      0.001191       0.000078       0.000000
      0.001195       0.000104       0.000000
      0.001171       0.000102       0.000000
      0.001168       0.000077       0.000000
      0.001195       0.000104       0.000000
      0.001200       0.000133       0.000000
      0.001175       0.000130       0.000000
      0.001171       0.000102       0.000000
      0.001204       0.000087       0.000000
      0.001320       0.000172       0.000000
      0.001374       0.000123       0.000000
      0.001256       0.000045       0.000000
      0.001320       0.000172       0.000000
      0.001458       0.000298       0.000000
      0.001533       0.000249       0.000000
      0.001374       0.000123       0.000000
      0.001256       0.000045       0.000000
      0.001374       0.000123       0.000000
      0.001339       0.000070       0.000000
      0.001248       0.000005       0.000000
      0.001339       0.000070       0.000000
      0.001394       0.000117       0.000000
      0.001336       0.000096       0.000000
      0.001297       0.000052       0.000000
      0.001394       0.000117       0.000000
      0.001458       0.000176       0.000000
      0.001378       0.000152       0.000000
      0.001336       0.000096       0.000000
      0.001297       0.000052       0.000000
      0.001336       0.000096       0.000000
      0.001274       0.000084       0.000000
      0.001249       0.000041       0.000000
      0.001336       0.000096       0.000000
      0.001378       0.000152       0.000000
      0.001297       0.000140       0.000000
      0.001274       0.000084       0.000000
      0.001374       0.000123       0.000000
      0.001447       0.000178       0.000000
      0.001434       0.000146       0.000000
      0.001367       0.000095       0.000000
      0.001447       0.000178       0.000000
      0.001533       0.000249       0.000000
      0.001515       0.000211       0.000000
      0.001434       0.000146       0.000000
      0.001367       0.000095       0.000000
      0.001434       0.000146       0.000000
      0.001394       0.000117       0.000000
      0.001339       0.000070       0.000000
      0.001434       0.000146       0.000000
      0.001515       0.000211       0.000000
      0.001458       0.000176       0.000000
      0.001394       0.000117       0.000000
      0.000000       0.000000       0.000000
      0.000000       0.000000       0.000000
      0.000578       0.000199       0.000000
      0.000566       0.000153       0.000000
      0.000000       0.000000       0.000000
      0.000000       0.000000       0.000000
      0.000576       0.000184       0.000000
      0.000578       0.000199       0.000000
      0.000566       0.000153       0.000000
      0.000578       0.000199       0.000000
      0.001152       0.000401       0.000000
      0.001068       0.000271       0.000000
      0.000578       0.000199       0.000000
      0.000576       0.000184       0.000000
      0.001209       0.000353       0.000000
      0.001152       0.000401       0.000000
      0.000000       0.000000       0.000000
      0.000000       0.000000       0.000000
      0.000596       0.000123       0.000000
      0.000576       0.000184       0.000000
      0.000000       0.000000       0.000000
      0.000000       0.000000       0.000000
      0.000635       0.000066       0.000000
      0.000596       0.000123       0.000000
      0.000576       0.000184       0.000000
      0.000596       0.000123       0.000000
      0.001308       0.000206       0.000000
      0.001209       0.000353       0.000000
      0.000596       0.000123       0.000000
      0.000635       0.000066       0.000000
      0.001413       0.000094       0.000000
      0.001308       0.000206       0.000000
      0.000000       0.000000       0.000000
      0.000000       0.000000       0.000000
      0.000670       0.000027       0.000000
      0.000635       0.000066       0.000000
      0.000000       0.000000       0.000000
      0.000000       0.000000       0.000000
      0.000683       0.000000       0.000000
      0.000670       0.000027       0.000000
      0.000635       0.000066       0.000000
      0.000670       0.000027       0.000000
      0.001485       0.000033       0.000000
      0.001413       0.000094       0.000000
      0.000670       0.000027       0.000000
      0.000683       0.000000       0.000000
      0.001510       0.000000       0.000000
      0.001485       0.000033       0.000000
      0.001068       0.000271       0.000000
      0.001152       0.000401       0.000000
      0.001728       0.000608       0.000000
      0.001458       0.000298       0.000000
      0.001152       0.000401       0.000000
      0.001209       0.000353       0.000000
      0.001959       0.000461       0.000000
      0.001728       0.000608       0.000000
      0.001209       0.000353       0.000000
      0.001308       0.000206       0.000000
      0.002216       0.000206       0.000000
      0.001959       0.000461       0.000000
      0.001308       0.000206       0.000000
      0.001413       0.000094       0.000000
      0.002394       0.000073       0.000000
      0.002216       0.000206       0.000000
      0.001959       0.000461       0.000000
      0.002216       0.000206       0.000000
      0.003517       0.000132       0.000000
      0.003259       0.000405       0.000000
      0.002216       0.000206       0.000000
      0.002394       0.000073       0.000000
      0.003649       0.000028       0.000000