# vtk DataFile Version 2.0
time_10.vtk
ASCII
DATASET UNSTRUCTURED_GRID
POINTS  2208 float
      0.000000       0.000000       0.000000
      0.083333       0.000000       0.000000
      0.083333       0.083333       0.000000
      0.000000       0.083333       0.000000
      0.083333       0.000000       0.000000
      0.166667       0.000000       0.000000
      0.166667       0.083333       0.000000
      0.083333       0.083333       0.000000
      0.000000       0.083333       0.000000
      0.083333       0.083333       0.000000
      0.083333       0.166667       0.000000
      0.000000       0.166667       0.000000
      0.083333       0.083333       0.000000
      0.166667       0.083333       0.000000
      0.166667       0.166667       0.000000
      0.083333       0.166667       0.000000
      0.166667       0.000000       0.000000
      0.250000       0.000000       0.000000
      0.250000       0.083333       0.000000
      0.166667       0.083333       0.000000
      0.250000       0.000000       0.000000
      0.333333       0.000000       0.000000
      0.333333       0.083333       0.000000
      0.250000       0.083333       0.000000
      0.166667       0.083333       0.000000
      0.250000       0.083333       0.000000
      0.250000       0.166667       0.000000
      0.166667       0.166667       0.000000
      0.250000       0.083333       0.000000
      0.333333       0.083333       0.000000
      0.333333       0.166667       0.000000
      0.250000       0.166667       0.000000
      0.333333       0.000000       0.000000
      0.416667       0.000000       0.000000
      0.416667       0.083333       0.000000
      0.333333       0.083333       0.000000
      0.416667       0.000000       0.000000
      0.500000       0.000000       0.000000
      0.500000       0.083333       0.000000
      0.416667       0.083333       0.000000
      0.333333       0.083333       0.000000
      0.416667       0.083333       0.000000
      0.416667       0.166667       0.000000
      0.333333       0.166667       0.000000
      0.416667       0.083333       0.000000
      0.500000       0.083333       0.000000
      0.500000       0.166667       0.000000
      0.416667       0.166667       0.000000
      0.000000       0.166667       0.000000
      0.083333       0.166667       0.000000
      0.083333       0.250000       0.000000
      0.000000       0.250000       0.000000
      0.083333       0.166667       0.000000
      0.166667       0.166667       0.000000
      0.166667       0.250000       0.000000
      0.083333       0.250000       0.000000
      0.000000       0.250000       0.000000
      0.083333       0.250000       0.000000
      0.083333       0.333333       0.000000
      0.000000       0.333333       0.000000
      0.083333       0.250000       0.000000
      0.166667       0.250000       0.000000
      0.166667       0.333333       0.000000
      0.083333       0.333333       0.000000
      0.166667       0.166667       0.000000
      0.250000       0.166667       0.000000
      0.250000       0.250000       0.000000
      0.166667       0.250000       0.000000
      0.250000       0.166667       0.000000
      0.333333       0.166667       0.000000
      0.333333       0.250000       0.000000
      0.250000       0.250000       0.000000
      0.166667       0.250000       0.000000
      0.250000       0.250000       0.000000
      0.250000       0.333333       0.000000
      0.166667       0.333333       0.000000
      0.250000       0.250000       0.000000
      0.333333       0.250000       0.000000
      0.333333       0.333333       0.000000
      0.250000       0.333333       0.000000
      0.333333       0.166667       0.000000
      0.416667       0.166667       0.000000
      0.416667       0.250000       0.000000
      0.333333       0.250000       0.000000
      0.333333       0.250000       0.000000
      0.416667       0.250000       0.000000
      0.416667       0.333333       0.000000
      0.333333       0.333333       0.000000
      0.000000       0.333333       0.000000
      0.083333       0.333333       0.000000
      0.083333       0.416667       0.000000
      0.000000       0.416667       0.000000
      0.083333       0.333333       0.000000
      0.166667       0.333333       0.000000
      0.166667       0.416667       0.000000
      0.083333       0.416667       0.000000
      0.000000       0.416667       0.000000
      0.083333       0.416667       0.000000
      0.083333       0.500000       0.000000
      0.000000       0.500000       0.000000
      0.083333       0.416667       0.000000
      0.166667       0.416667       0.000000
      0.166667       0.500000       0.000000
      0.083333       0.500000       0.000000
      0.166667       0.333333       0.000000
      0.250000       0.333333       0.000000
      0.250000       0.416667       0.000000
      0.166667       0.416667       0.000000
      0.250000       0.333333       0.000000
      0.333333       0.333333       0.000000
      0.333333       0.416667       0.000000
      0.250000       0.416667       0.000000
      0.166667       0.416667       0.000000
      0.250000       0.416667       0.000000
      0.250000       0.500000       0.000000
      0.166667       0.500000       0.000000
      0.250000       0.416667       0.000000
      0.333333       0.416667       0.000000
      0.333333       0.500000       0.000000
      0.250000       0.500000       0.000000
      0.333333       0.333333       0.000000
      0.375000       0.333333       0.000000
      0.375000       0.375000       0.000000
      0.333333       0.375000       0.000000
      0.375000       0.333333       0.000000
      0.416667       0.333333       0.000000
      0.416667       0.375000       0.000000
      0.375000       0.375000       0.000000
      0.333333       0.375000       0.000000
      0.375000       0.375000       0.000000
      0.375000       0.416667       0.000000
      0.333333       0.416667       0.000000
      0.375000       0.375000       0.000000
      0.416667       0.375000       0.000000
      0.416667       0.416667       0.000000
      0.375000       0.416667       0.000000
      0.416667       0.333333       0.000000
      0.458333       0.333333       0.000000
      0.458333       0.375000       0.000000
      0.416667       0.375000       0.000000
      0.416667       0.375000       0.000000
      0.458333       0.375000       0.000000
      0.458333       0.416667       0.000000
      0.416667       0.416667       0.000000
      0.333333       0.416667       0.000000
      0.375000       0.416667       0.000000
      0.375000       0.458333       0.000000
      0.333333       0.458333       0.000000
      0.375000       0.416667       0.000000
      0.416667       0.416667       0.000000
      0.416667       0.458333       0.000000
      0.375000       0.458333       0.000000
      0.333333       0.458333       0.000000
      0.375000       0.458333       0.000000
      0.375000       0.500000       0.000000
      0.333333       0.500000       0.000000
      0.375000       0.458333       0.000000
      0.416667       0.458333       0.000000
      0.416667       0.500000       0.000000
      0.375000       0.500000       0.000000
      0.416667       0.416667       0.000000
      0.437500       0.416667       0.000000
      0.437500       0.437500       0.000000
      0.416667       0.437500       0.000000
      0.437500       0.416667       0.000000
      0.458333       0.416667       0.000000
      0.458333       0.437500       0.000000
      0.437500       0.437500       0.000000
      0.416667       0.437500       0.000000
      0.437500       0.437500       0.000000
      0.437500       0.458333       0.000000
      0.416667       0.458333       0.000000
      0.437500       0.437500       0.000000
      0.458333       0.437500       0.000000
      0.458333       0.458333       0.000000
      0.437500       0.458333       0.000000
      0.458333       0.416667       0.000000
      0.479167       0.416667       0.000000
      0.479167       0.437500       0.000000
      0.458333       0.437500       0.000000
      0.416667       0.458333       0.000000
      0.437500       0.458333       0.000000
      0.437500       0.479167       0.000000
      0.416667       0.479167       0.000000
      0.437500       0.458333       0.000000
      0.458333       0.458333       0.000000
      0.458333       0.479167       0.000000
      0.437500       0.479167       0.000000
      0.416667       0.479167       0.000000
      0.437500       0.479167       0.000000
      0.437500       0.500000       0.000000
      0.416667       0.500000       0.000000
      0.437500       0.479167       0.000000
      0.458333       0.479167       0.000000
      0.458333       0.500000       0.000000
      0.437500       0.500000       0.000000
      0.458333       0.458333       0.000000
      0.468750       0.458333       0.000000
      0.468750       0.468750       0.000000
      0.458333       0.468750       0.000000
      0.468750       0.458333       0.000000
      0.479167       0.458333       0.000000
      0.479167       0.468750       0.000000
      0.468750       0.468750       0.000000
      0.458333       0.468750       0.000000
      0.468750       0.468750       0.000000
      0.468750       0.479167       0.000000
      0.458333       0.479167       0.000000
      0.468750       0.468750       0.000000
      0.479167       0.468750       0.000000
      0.479167       0.479167       0.000000
      0.468750       0.479167       0.000000
      0.479167       0.458333       0.000000
      0.489583       0.458333       0.000000
      0.489583       0.468750       0.000000
      0.479167       0.468750       0.000000
      0.489583       0.458333       0.000000
      0.500000       0.458333       0.000000
      0.500000       0.468750       0.000000
      0.489583       0.468750       0.000000
[...]
POINT_DATA  2208
VECTORS U float 
      0.000000       0.000000       0.000000
      0.000000       0.000000       0.000000
      0.000259      -0.000001       0.000000
      0.000251       0.000000       0.000000
      0.000000       0.000000       0.000000
      0.000000       0.000000       0.000000
      0.000284       0.000001       0.000000
      0.000259      -0.000001       0.000000
      0.000251       0.000000       0.000000
      0.000259      -0.000001       0.000000
      0.000474      -0.000011       0.000000
      0.000462       0.000000       0.000000
      0.000259      -0.000001       0.000000
      0.000284       0.000001       0.000000
      0.000512      -0.000018       0.000000
      0.000474      -0.000011       0.000000
      0.000000       0.000000       0.000000
      0.000000       0.000000       0.000000
      0.000328       0.000007       0.000000
      0.000284       0.000001       0.000000
      0.000000       0.000000       0.000000
      0.000000       0.000000       0.000000
      0.000392       0.000025       0.000000
      0.000328       0.000007       0.000000
      0.000284       0.000001       0.000000
      0.000328       0.000007       0.000000
      0.000578      -0.000018       0.000000
      0.000512      -0.000018       0.000000
      0.000328       0.000007       0.000000
      0.000392       0.000025       0.000000
      0.000678       0.000003       0.000000
      0.000578      -0.000018       0.000000
      0.000000       0.000000       0.000000
      0.000000       0.000000       0.000000
      0.000472       0.000064       0.000000
      0.000392       0.000025       0.000000
      0.000000       0.000000       0.000000
      0.000000       0.000000       0.000000
      0.000549       0.000135       0.000000
      0.000472       0.000064       0.000000
      0.000392       0.000025       0.000000
      0.000472       0.000064       0.000000
      0.000815       0.000064       0.000000
      0.000678       0.000003       0.000000
      0.000472       0.000064       0.000000
      0.000549       0.000135       0.000000
      0.000989       0.000205       0.000000
      0.000815       0.000064       0.000000
      0.000462       0.000000       0.000000
      0.000474      -0.000011       0.000000
      0.000633      -0.000025       0.000000
      0.000621       0.000000       0.000000
      0.000474      -0.000011       0.000000
      0.000512      -0.000018       0.000000
      0.000671      -0.000045       0.000000
      0.000633      -0.000025       0.000000
      0.000621       0.000000       0.000000
      0.000633      -0.000025       0.000000
      0.000739      -0.000037       0.000000
      0.000730       0.000000       0.000000
      0.000633      -0.000025       0.000000
      0.000671      -0.000045       0.000000
      0.000767      -0.000070       0.000000
      0.000739      -0.000037       0.000000
      0.000512      -0.000018       0.000000
      0.000578      -0.000018       0.000000
      0.000737      -0.000057       0.000000
      0.000671      -0.000045       0.000000
      0.000578      -0.000018       0.000000
      0.000678       0.000003       0.000000
      0.000836      -0.000048       0.000000
      0.000737      -0.000057       0.000000
      0.000671      -0.000045       0.000000
      0.000737      -0.000057       0.000000
      0.000813      -0.000092       0.000000
      0.000767      -0.000070       0.000000
      0.000737      -0.000057       0.000000
      0.000836      -0.000048       0.000000
      0.000879      -0.000093       0.000000
      0.000813      -0.000092       0.000000
      0.000678       0.000003       0.000000
      0.000815       0.000064       0.000000
      0.000982       0.000004       0.000000
      0.000836      -0.000048       0.000000
      0.000836      -0.000048       0.000000
      0.000982       0.000004       0.000000
      0.000964      -0.000055       0.000000
      0.000879      -0.000093       0.000000
      0.000730       0.000000       0.000000
      0.000739      -0.000037       0.000000
      0.000806      -0.000044       0.000000
      0.000802       0.000000       0.000000
      0.000739      -0.000037       0.000000
      0.000767      -0.000070       0.000000
      0.000819      -0.000084       0.000000
      0.000806      -0.000044       0.000000
      0.000802       0.000000       0.000000
      0.000806      -0.000044       0.000000
      0.000854      -0.000047       0.000000
      0.000854       0.000000       0.000000
      0.000806      -0.000044       0.000000
      0.000819      -0.000084       0.000000
      0.000855      -0.000088       0.000000
      0.000854      -0.000047       0.000000
      0.000767      -0.000070       0.000000
      0.000813      -0.000092       0.000000
      0.000840      -0.000111       0.000000
      0.000819      -0.000084       0.000000
      0.000813      -0.000092       0.000000
      0.000879      -0.000093       0.000000
      0.000864      -0.000113       0.000000
      0.000840      -0.000111       0.000000
      0.000819      -0.000084       0.000000
      0.000840      -0.000111       0.000000
      0.000851      -0.000115       0.000000
      0.000855      -0.000088       0.000000
      0.000840      -0.000111       0.000000
      0.000864      -0.000113       0.000000
      0.000839      -0.000114       0.000000
      0.000851      -0.000115       0.000000
      0.000879      -0.000093       0.000000
      0.000920      -0.000080       0.000000
      0.000900      -0.000092       0.000000
      0.000875      -0.000106       0.000000
      0.000920      -0.000080       0.000000
      0.000964      -0.000055       0.000000
      0.000924      -0.000065       0.000000
      0.000900      -0.000092       0.000000
      0.000875      -0.000106       0.000000
      0.000900      -0.000092       0.000000
      0.000876      -0.000097       0.000000
      0.000864      -0.000113       0.000000
      0.000900      -0.000092       0.000000
      0.000924      -0.000065       0.000000
      0.000887      -0.000068       0.000000
      0.000876      -0.000097       0.000000
      0.000964      -0.000055       0.000000
      0.001012      -0.000011       0.000000
      0.000946      -0.000021       0.000000
      0.000924      -0.000065       0.000000
      0.000924      -0.000065       0.000000
      0.000946      -0.000021       0.000000
      0.000894      -0.000022       0.000000
      0.000887      -0.000068       0.000000
      0.000864      -0.000113       0.000000
      0.000876      -0.000097       0.000000
      0.000853      -0.000098       0.000000
      0.000851      -0.000115       0.000000
      0.000876      -0.000097       0.000000
      0.000887      -0.000068       0.000000
      0.000854      -0.000067       0.000000
      0.000853      -0.000098       0.000000
      0.000851      -0.000115       0.000000
      0.000853      -0.000098       0.000000
      0.000830      -0.000096       0.000000
      0.000839      -0.000114       0.000000
      0.000853      -0.000098       0.000000
      0.000854      -0.000067       0.000000
      0.000821      -0.000066       0.000000
      0.000830      -0.000096       0.000000
      0.000887      -0.000068       0.000000
      0.000891      -0.000047       0.000000
      0.000872      -0.000047       0.000000
      0.000870      -0.000068       0.000000
      0.000891      -0.000047       0.000000
      0.000894      -0.000022       0.000000
      0.000874      -0.000022       0.000000
      0.000872      -0.000047       0.000000
      0.000870      -0.000068       0.000000
      0.000872      -0.000047       0.000000
      0.000855      -0.000046       0.000000
      0.000854      -0.000067       0.000000
      0.000872      -0.000047       0.000000
      0.000874      -0.000022       0.000000
      0.000856      -0.000022       0.000000
      0.000855      -0.000046       0.000000
      0.000894      -0.000022       0.000000
      0.000897       0.000008       0.000000
      0.000876       0.000007       0.000000
      0.000874      -0.000022       0.000000
      0.000854      -0.000067       0.000000
      0.000855      -0.000046       0.000000
      0.000838      -0.000046       0.000000
      0.000839      -0.000067       0.000000
      0.000855      -0.000046       0.000000
      0.000856      -0.000022       0.000000
      0.000838      -0.000023       0.000000
      0.000838      -0.000046       0.000000
      0.000839      -0.000067       0.000000
      0.000838      -0.000046       0.000000
      0.000819      -0.000045       0.000000
      0.000821      -0.000066       0.000000
      0.000838      -0.000046       0.000000
      0.000838      -0.000023       0.000000
      0.000819      -0.000023       0.000000
      0.000819      -0.000045       0.000000
      0.000856      -0.000022       0.000000
      0.000857      -0.000009       0.000000
      0.000848      -0.000010       0.000000
      0.000847      -0.000022       0.000000
      0.000857      -0.000009       0.000000
      0.000858       0.000005       0.000000
      0.000849       0.000003       0.000000
      0.000848      -0.000010       0.000000
      0.000847      -0.000022       0.000000
      0.000848      -0.000010       0.000000
      0.000839      -0.000010       0.000000
      0.000838      -0.000023       0.000000
      0.000848      -0.000010       0.000000
      0.000849       0.000003       0.000000
      0.000841       0.000002       0.000000
      0.000839      -0.000010       0.000000
      0.000858       0.000005       0.000000
      0.000860       0.000019       0.000000
      0.000852       0.000017       0.000000
      0.000849       0.000003       0.000000
      0.000860       0.000019       0.000000
      0.000865       0.000036       0.000000
      0.000858       0.000040       0.000000
      0.000852       0.000017       0.000000
      0.000849       0.000003       0.000000
      0.000852       0.000017       0.000000
      0.000844       0.000015       0.000000
      0.000841       0.000002       0.000000
      0.000852       0.000017       0.000000
      0.000858       0.000040       0.000000
      0.000840       0.000045       0.000000
      0.000844       0.000015       0.000000
      0.000838      -0.000023       0.000000
      0.000839      -0.000010       0.000000
      0.000830      -0.000011       0.000000
      0.000829      -0.000023       0.000000
      0.000839      -0.000010       0.000000
      0.000841       0.000002       0.000000
      0.000832      -0.000000       0.000000
      0.000830      -0.000011       0.000000
      0.000829      -0.000023       0.000000
      0.000830      -0.000011       0.000000
      0.000820      -0.000011       0.000000
      0.000819      -0.000023       0.000000
      0.000830      -0.000011       0.000000
      0.000832      -0.000000       0.000000
      0.000827       0.000003       0.000000
      0.000820      -0.000011       0.000000
      0.000841       0.000002       0.000000
      0.000844       0.000015       0.000000
      0.000834       0.000008       0.000000
      0.000832      -0.000000       0.000000
      0.000844       0.000015       0.000000
      0.000840       0.000045       0.000000
      0.000557       0.000052       0.000000
      0.000834       0.000008       0.000000
      0.000832      -0.000000       0.000000
      0.000834       0.000008       0.000000
      0.000884       0.000025       0.000000
      0.000827       0.000003       0.000000
      0.000834       0.000008       0.000000
      0.000557       0.000052       0.000000
      0.008791       0.000867       0.000000
      0.000884       0.000025       0.000000
      0.000876       0.000007       0.000000
      0.000878       0.000023       0.000000
      0.000869       0.000021       0.000000
      0.000867       0.000006       0.000000
      0.000878       0.000023       0.000000
      0.000880       0.000039       0.000000
      0.000872       0.000037       0.000000
      0.000869       0.000021       0.000000
      0.000867       0.000006       0.000000
      0.000869       0.000021       0.000000
      0.000860       0.000019       0.000000
      0.000858       0.000005       0.000000
      0.000869       0.000021       0.000000
      0.000872       0.000037       0.000000
      0.000865       0.000036       0.000000
      0.000860       0.000019       0.000000
      0.000946      -0.000021       0.000000
      0.000955       0.000011       0.000000
      0.000923       0.000010       0.000000
      0.000918      -0.000021       0.000000
      0.000918      -0.000021       0.000000
      0.000923       0.000010       0.000000
      0.000897       0.000008       0.000000
      0.000894      -0.000022       0.000000
      0.000897       0.000008       0.000000
      0.000899       0.000025       0.000000
      0.000888       0.000024       0.000000
      0.000886       0.000008       0.000000
      0.000899       0.000025       0.000000
      0.000901       0.000044       0.000000
      0.000890       0.000042       0.000000
      0.000888       0.000024       0.000000
      0.000886       0.000008       0.000000
      0.000888       0.000024       0.000000
      0.000878       0.000023       0.000000
      0.000876       0.000007       0.000000
      0.000888       0.000024       0.000000
      0.000890       0.000042       0.000000
      0.000880       0.000039       0.000000
      0.000878       0.000023       0.000000
      0.000874      -0.000022       0.000000
      0.000875      -0.000008       0.000000
      0.000866      -0.000009       0.000000
      0.000865      -0.000022       0.000000
      0.000875      -0.000008       0.000000
      0.000876       0.000007       0.000000
      0.000867       0.000006       0.000000
      0.000866      -0.000009       0.000000
      0.000865      -0.000022       0.000000
      0.000866      -0.000009       0.000000
      0.000857      -0.000009       0.000000
      0.000856      -0.000022       0.000000
      0.000866      -0.000009       0.000000
      0.000867       0.000006       0.000000
      0.000858       0.000005       0.000000
      0.000857      -0.000009       0.000000
      0.000923       0.000010       0.000000
      0.000926       0.000028       0.000000
      0.000912       0.000027       0.000000
      0.000910       0.000009       0.000000
      0.000926       0.000028       0.000000
      0.000928       0.000048       0.000000
      0.000914       0.000046       0.000000
      0.000912       0.000027       0.000000
      0.000910       0.000009       0.000000
      0.000912       0.000027       0.000000
      0.000899       0.000025       0.000000
      0.000897       0.000008       0.000000
      0.000912       0.000027       0.000000
      0.000914       0.000046       0.000000
      0.000901       0.000044       0.000000
      0.000899       0.000025       0.000000
      0.000982       0.000004       0.000000
      0.001082       0.000060       0.000000
      0.001070       0.000016       0.000000
      0.000990      -0.000030       0.000000
      0.001082       0.000060       0.000000
      0.001213       0.000152       0.000000
      0.001173       0.000094       0.000000
      0.001070       0.000016       0.000000
      0.000990      -0.000030       0.000000
      0.001070       0.000016       0.000000
      0.001012      -0.000011       0.000000
      0.000964      -0.000055       0.000000
      0.001012      -0.000011       0.000000
      0.001037       0.000020       0.000000
      0.000994       0.000014       0.000000
      0.000978      -0.000018       0.000000
      0.001037       0.000020       0.000000
      0.001063       0.000060       0.000000
      0.001008       0.000054       0.000000
      0.000994       0.000014       0.000000
      0.000978      -0.000018       0.000000
      0.000994       0.000014       0.000000
      0.000955       0.000011       0.000000
      0.000946      -0.000021       0.000000
      0.000955       0.000011       0.000000
      0.000959       0.000030       0.000000
      0.000941       0.000029       0.000000
      0.000938       0.000010       0.000000
      0.000959       0.000030       0.000000
      0.000963       0.000051       0.000000
      0.000944       0.000049       0.000000
      0.000941       0.000029       0.000000
      0.000938       0.000010       0.000000
      0.000941       0.000029       0.000000
      0.000926       0.000028       0.000000
      0.000923       0.000010       0.000000
      0.000941       0.000029       0.000000
      0.000944       0.000049       0.000000
      0.000928       0.000048       0.000000
      0.000926       0.000028       0.000000
      0.000994       0.000014       0.000000
      0.001001       0.000033       0.000000
      0.000979       0.000031       0.000000
      0.000974       0.000012       0.000000
      0.001001       0.000033       0.000000
      0.001008       0.000054       0.000000
      0.000984       0.000052       0.000000
      0.000979       0.000031       0.000000
      0.000974       0.000012       0.000000
      0.000979       0.000031       0.000000
      0.000959       0.000030       0.000000
      0.000955       0.000011       0.000000
      0.000979       0.000031       0.000000
      0.000984       0.000052       0.000000
      0.000963       0.000051       0.000000
      0.000959       0.000030       0.000000
      0.001070       0.000016       0.000000
      0.001118       0.000050       0.000000
      0.001081       0.000032       0.000000
      0.001045      -0.000000       0.000000
      0.001118       0.000050       0.000000
      0.001173       0.000094       0.000000
      0.001121       0.000073       0.000000
      0.001081       0.000032       0.000000
      0.001045      -0.000000       0.000000
      0.001081       0.000032       0.000000
      0.001037       0.000020       0.000000
      0.001012      -0.000011       0.000000
      0.001081       0.000032       0.000000
      0.001121       0.000073       0.000000
      0.001063       0.000060       0.000000
      0.001037       0.000020       0.000000
      0.000815       0.000064       0.000000
      0.000899       0.000122       0.000000
      0.001023       0.000100       0.000000
      0.000924       0.000039       0.000000
      0.000899       0.000122       0.000000
      0.000989       0.000205       0.000000
      0.001143       0.000196       0.000000
      0.001023       0.000100       0.000000
      0.000924       0.000039       0.000000
      0.001023       0.000100       0.000000
      0.001082       0.000060       0.000000
      0.000982       0.000004       0.000000
      0.001023       0.000100       0.000000
      0.001143       0.000196       0.000000
      0.001213       0.000152       0.000000
      0.001082       0.000060       0.000000
      0.000000       0.000000       0.000000
      0.000000       0.000000       0.000000
      0.000587       0.000212       0.000000
      0.000549       0.000135       0.000000
      0.000000       0.000000       0.000000
      0.000000       0.000000       0.000000
      0.000588       0.000220       0.000000
      0.000587       0.000212       0.000000
      0.000549       0.000135       0.000000
      0.000587       0.000212       0.000000
      0.001142       0.000415       0.000000
      0.000989       0.000205       0.000000
      0.000587       0.000212       0.000000
      0.000588       0.000220       0.000000
      0.001229       0.000430       0.000000
      0.001142       0.000415       0.000000
      0.000000       0.000000       0.000000
      0.000000       0.000000       0.000000
      0.000609       0.000150       0.000000
      0.000588       0.000220       0.000000
      0.000000       0.000000       0.000000
      0.000000       0.000000       0.000000
      0.000658       0.000077       0.000000