# vtk DataFile Version 2.0
time_10.vtk
ASCII
DATASET UNSTRUCTURED_GRID
POINTS  1188 float
      0.000000       0.000000       0.000000
      0.083333       0.000000       0.000000
      0.083333       0.083333       0.000000
      0.000000       0.083333       0.000000
      0.083333       0.000000       0.000000
      0.166667       0.000000       0.000000
      0.166667       0.083333       0.000000
      0.083333       0.083333       0.000000
      0.000000       0.083333       0.000000
      0.083333       0.083333       0.000000
      0.083333       0.166667       0.000000
      0.000000       0.166667       0.000000
      0.083333       0.083333       0.000000
      0.166667       0.083333       0.000000
      0.166667       0.166667       0.000000
      0.083333       0.166667       0.000000
      0.166667       0.000000       0.000000
      0.250000       0.000000       0.000000
      0.250000       0.083333       0.000000
      0.166667       0.083333       0.000000
      0.250000       0.000000       0.000000
      0.333333       0.000000       0.000000
      0.333333       0.083333       0.000000
      0.250000       0.083333       0.000000
      0.166667       0.083333       0.000000
      0.250000       0.083333       0.000000
      0.250000       0.166667       0.000000
      0.166667       0.166667       0.000000
      0.250000       0.083333       0.000000
      0.333333       0.083333       0.000000
      0.333333       0.166667       0.000000
      0.250000       0.166667       0.000000
      0.333333       0.000000       0.000000
      0.416667       0.000000       0.000000
      0.416667       0.083333       0.000000
      0.333333       0.083333       0.000000
      0.416667       0.000000       0.000000
      0.500000       0.000000       0.000000
      0.500000       0.083333       0.000000
      0.416667       0.083333       0.000000
      0.333333       0.083333       0.000000
      0.416667       0.083333       0.000000
      0.416667       0.166667       0.000000
      0.333333       0.166667       0.000000
      0.416667       0.083333       0.000000
      0.500000       0.083333       0.000000
      0.500000       0.166667       0.000000
      0.416667       0.166667       0.000000
      0.000000       0.166667       0.000000
      0.083333       0.166667       0.000000
      0.083333       0.250000       0.000000
      0.000000       0.250000       0.000000
      0.083333       0.166667       0.000000
      0.166667       0.166667       0.000000
      0.166667       0.250000       0.000000
      0.083333       0.250000       0.000000
      0.000000       0.250000       0.000000
      0.083333       0.250000       0.000000
      0.083333       0.333333       0.000000
      0.000000       0.333333       0.000000
      0.083333       0.250000       0.000000
      0.166667       0.250000       0.000000
      0.166667       0.333333       0.000000
      0.083333       0.333333       0.000000
      0.166667       0.166667       0.000000
      0.250000       0.166667       0.000000
      0.250000       0.250000       0.000000
      0.166667       0.250000       0.000000
      0.250000       0.166667       0.000000
      0.333333       0.166667       0.000000
      0.333333       0.250000       0.000000
      0.250000       0.250000       0.000000
      0.166667       0.250000       0.000000
      0.250000       0.250000       0.000000
      0.250000       0.333333       0.000000
      0.166667       0.333333       0.000000
      0.250000       0.250000       0.000000
      0.333333       0.250000       0.000000
      0.333333       0.333333       0.000000
      0.250000       0.333333       0.000000
      0.333333       0.166667       0.000000
      0.416667       0.166667       0.000000
      0.416667       0.250000       0.000000
      0.333333       0.250000       0.000000
      0.416667       0.166667       0.000000
      0.500000       0.166667       0.000000
      0.500000       0.250000       0.000000
      0.416667       0.250000       0.000000
      0.333333       0.250000       0.000000
      0.416667       0.250000       0.000000
      0.416667       0.333333       0.000000
      0.333333       0.333333       0.000000
      0.416667       0.250000       0.000000
      0.500000       0.250000       0.000000
      0.500000       0.333333       0.000000
      0.416667       0.333333       0.000000
      0.000000       0.333333       0.000000
      0.083333       0.333333       0.000000
      0.083333       0.416667       0.000000
      0.000000       0.416667       0.000000
      0.083333       0.333333       0.000000
      0.166667       0.333333       0.000000
      0.166667       0.416667       0.000000
      0.083333       0.416667       0.000000
      0.000000       0.416667       0.000000
      0.083333       0.416667       0.000000
      0.083333       0.500000       0.000000
      0.000000       0.500000       0.000000
      0.083333       0.416667       0.000000
      0.166667       0.416667       0.000000
      0.166667       0.500000       0.000000
      0.083333       0.500000       0.000000
      0.166667       0.333333       0.000000
      0.250000       0.333333       0.000000
      0.250000       0.416667       0.000000
      0.166667       0.416667       0.000000
      0.250000       0.333333       0.000000
      0.333333       0.333333       0.000000
      0.333333       0.416667       0.000000
      0.250000       0.416667       0.000000
      0.166667       0.416667       0.000000
      0.250000       0.416667       0.000000
      0.250000       0.500000       0.000000
      0.166667       0.500000       0.000000
      0.250000       0.416667       0.000000
      0.333333       0.416667       0.000000
      0.333333       0.500000       0.000000
      0.250000       0.500000       0.000000
      0.333333       0.333333       0.000000
      0.375000       0.333333       0.000000
      0.375000       0.375000       0.000000
      0.333333       0.375000       0.000000
      0.375000       0.333333       0.000000
      0.416667       0.333333       0.000000
      0.416667       0.375000       0.000000
      0.375000       0.375000       0.000000
      0.333333       0.375000       0.000000
      0.375000       0.375000       0.000000
      0.375000       0.416667       0.000000
      0.333333       0.416667       0.000000
      0.375000       0.375000       0.000000
      0.416667       0.375000       0.000000
      0.416667       0.416667       0.000000
      0.375000       0.416667       0.000000
      0.416667       0.333333       0.000000
      0.458333       0.333333       0.000000
      0.458333       0.375000       0.000000
      0.416667       0.375000       0.000000
      0.458333       0.333333       0.000000
      0.500000       0.333333       0.000000
      0.500000       0.375000       0.000000
      0.458333       0.375000       0.000000
      0.416667       0.375000       0.000000
      0.458333       0.375000       0.000000
      0.458333       0.416667       0.000000
      0.416667       0.416667       0.000000
      0.458333       0.375000       0.000000
      0.500000       0.375000       0.000000
      0.500000       0.416667       0.000000
      0.458333       0.416667       0.000000
      0.333333       0.416667       0.000000
      0.375000       0.416667       0.000000
      0.375000       0.458333       0.000000
      0.333333       0.458333       0.000000
      0.375000       0.416667       0.000000
      0.416667       0.416667       0.000000
      0.416667       0.458333       0.000000
      0.375000       0.458333       0.000000
      0.333333       0.458333       0.000000
      0.375000       0.458333       0.000000
      0.375000       0.500000       0.000000
      0.333333       0.500000       0.000000
      0.375000       0.458333       0.000000
      0.416667       0.458333       0.000000
      0.416667       0.500000       0.000000
      0.375000       0.500000       0.000000
      0.416667       0.416667       0.000000
      0.437500       0.416667       0.000000
      0.437500       0.437500       0.000000
      0.416667       0.437500       0.000000
      0.437500       0.416667       0.000000
      0.458333       0.416667       0.000000
      0.458333       0.437500       0.000000
      0.437500       0.437500       0.000000
      0.416667       0.437500       0.000000
      0.437500       0.437500       0.000000
      0.437500       0.458333       0.000000
      0.416667       0.458333       0.000000
      0.437500       0.437500       0.000000
      0.458333       0.437500       0.000000
      0.458333       0.458333       0.000000
      0.437500       0.458333       0.000000
      0.458333       0.416667       0.000000
      0.479167       0.416667       0.000000
      0.479167       0.437500       0.000000
      0.458333       0.437500       0.000000
      0.479167       0.416667       0.000000
      0.500000       0.416667       0.000000
      0.500000       0.437500       0.000000
      0.479167       0.437500       0.000000
      0.458333       0.437500       0.000000
      0.479167       0.437500       0.000000
      0.479167       0.458333       0.000000
      0.458333       0.458333       0.000000
      0.416667       0.458333       0.000000
      0.437500       0.458333       0.000000
      0.437500       0.479167       0.000000
      0.416667       0.479167       0.000000
      0.437500       0.458333       0.000000
      0.458333       0.458333       0.000000
      0.458333       0.479167       0.000000
      0.437500       0.479167       0.000000
      0.416667       0.479167       0.000000
      0.437500       0.479167       0.000000
      0.437500       0.500000       0.000000
      0.416667       0.500000       0.000000
      0.437500       0.479167       0.000000
      0.458333       0.479167       0.000000
      0.458333       0.500000       0.000000
      0.437500       0.500000       0.000000
[...]
POINT_DATA  1188
VECTORS U float 
      0.000000       0.000000       0.000000
      0.000000       0.000000       0.000000
      0.000508       0.000017       0.000000
      0.000503       0.000000       0.000000
      0.000000       0.000000       0.000000
      0.000000       0.000000       0.000000
      0.000521       0.000036       0.000000
      0.000508       0.000017       0.000000
      0.000503       0.000000       0.000000
      0.000508       0.000017       0.000000
      0.000948       0.000027       0.000000
      0.000939       0.000000       0.000000
      0.000508       0.000017       0.000000
      0.000521       0.000036       0.000000
      0.000976       0.000059       0.000000
      0.000948       0.000027       0.000000
      0.000000       0.000000       0.000000
      0.000000       0.000000       0.000000
      0.000538       0.000059       0.000000
      0.000521       0.000036       0.000000
      0.000000       0.000000       0.000000
      0.000000       0.000000       0.000000
      0.000555       0.000085       0.000000
      0.000538       0.000059       0.000000
      0.000521       0.000036       0.000000
      0.000538       0.000059       0.000000
      0.001016       0.000101       0.000000
      0.000976       0.000059       0.000000
      0.000538       0.000059       0.000000
      0.000555       0.000085       0.000000
      0.001062       0.000156       0.000000
      0.001016       0.000101       0.000000
      0.000000       0.000000       0.000000
      0.000000       0.000000       0.000000
      0.000563       0.000110       0.000000
      0.000555       0.000085       0.000000
      0.000000       0.000000       0.000000
      0.000000       0.000000       0.000000
      0.000560       0.000123       0.000000
      0.000563       0.000110       0.000000
      0.000555       0.000085       0.000000
      0.000563       0.000110       0.000000
      0.001099       0.000214       0.000000
      0.001062       0.000156       0.000000
      0.000563       0.000110       0.000000
      0.000560       0.000123       0.000000
      0.001120       0.000248       0.000000
      0.001099       0.000214       0.000000
      0.000939       0.000000       0.000000
      0.000948       0.000027       0.000000
      0.001307       0.000028       0.000000
      0.001292       0.000000       0.000000
      0.000948       0.000027       0.000000
      0.000976       0.000059       0.000000
      0.001350       0.000064       0.000000
      0.001307       0.000028       0.000000
      0.001292       0.000000       0.000000
      0.001307       0.000028       0.000000
      0.001570       0.000020       0.000000
      0.001551       0.000000       0.000000
      0.001307       0.000028       0.000000
      0.001350       0.000064       0.000000
      0.001627       0.000049       0.000000
      0.001570       0.000020       0.000000
      0.000976       0.000059       0.000000
      0.001016       0.000101       0.000000
      0.001421       0.000116       0.000000
      0.001350       0.000064       0.000000
      0.001016       0.000101       0.000000
      0.001062       0.000156       0.000000
      0.001513       0.000195       0.000000
      0.001421       0.000116       0.000000
      0.001350       0.000064       0.000000
      0.001421       0.000116       0.000000
      0.001725       0.000097       0.000000
      0.001627       0.000049       0.000000
      0.001421       0.000116       0.000000
      0.001513       0.000195       0.000000
      0.001871       0.000181       0.000000
      0.001725       0.000097       0.000000
      0.001062       0.000156       0.000000
      0.001099       0.000214       0.000000
      0.001609       0.000295       0.000000
      0.001513       0.000195       0.000000
      0.001099       0.000214       0.000000
      0.001120       0.000248       0.000000
      0.001681       0.000367       0.000000
      0.001609       0.000295       0.000000
      0.001513       0.000195       0.000000
      0.001609       0.000295       0.000000
      0.002062       0.000323       0.000000
      0.001871       0.000181       0.000000
      0.001609       0.000295       0.000000
      0.001681       0.000367       0.000000
      0.002245       0.000477       0.000000
      0.002062       0.000323       0.000000
      0.001551       0.000000       0.000000
      0.001570       0.000020       0.000000
      0.001729       0.000005       0.000000
      0.001709       0.000000       0.000000
      0.001570       0.000020       0.000000
      0.001627       0.000049       0.000000
      0.001791       0.000019       0.000000
      0.001729       0.000005       0.000000
      0.001709       0.000000       0.000000
      0.001729       0.000005       0.000000
      0.001786      -0.000011       0.000000
      0.001768       0.000000       0.000000
      0.001729       0.000005       0.000000
      0.001791       0.000019       0.000000
      0.001842      -0.000016       0.000000
      0.001786      -0.000011       0.000000
      0.001627       0.000049       0.000000
      0.001725       0.000097       0.000000
      0.001900       0.000049       0.000000
      0.001791       0.000019       0.000000
      0.001725       0.000097       0.000000
      0.001871       0.000181       0.000000
      0.002068       0.000109       0.000000
      0.001900       0.000049       0.000000
      0.001791       0.000019       0.000000
      0.001900       0.000049       0.000000
      0.001940      -0.000006       0.000000
      0.001842      -0.000016       0.000000
      0.001900       0.000049       0.000000
      0.002068       0.000109       0.000000
      0.002082       0.000027       0.000000
      0.001940      -0.000006       0.000000
      0.001871       0.000181       0.000000
      0.001962       0.000244       0.000000
      0.002104       0.000211       0.000000
      0.001994       0.000150       0.000000
      0.001962       0.000244       0.000000
      0.002062       0.000323       0.000000
      0.002237       0.000298       0.000000
      0.002104       0.000211       0.000000
      0.001994       0.000150       0.000000
      0.002104       0.000211       0.000000
      0.002185       0.000159       0.000000
      0.002068       0.000109       0.000000
      0.002104       0.000211       0.000000
      0.002237       0.000298       0.000000
      0.002336       0.000237       0.000000
      0.002185       0.000159       0.000000
      0.002062       0.000323       0.000000
      0.002161       0.000411       0.000000
      0.002386       0.000416       0.000000
      0.002237       0.000298       0.000000
      0.002161       0.000411       0.000000
      0.002245       0.000477       0.000000
      0.002525       0.000528       0.000000
      0.002386       0.000416       0.000000
      0.002237       0.000298       0.000000
      0.002386       0.000416       0.000000
      0.002539       0.000371       0.000000
      0.002336       0.000237       0.000000
      0.002386       0.000416       0.000000
      0.002525       0.000528       0.000000
      0.002788       0.000568       0.000000
      0.002539       0.000371       0.000000
      0.002068       0.000109       0.000000
      0.002185       0.000159       0.000000
      0.002198       0.000102       0.000000
      0.002094       0.000065       0.000000
      0.002185       0.000159       0.000000
      0.002336       0.000237       0.000000
      0.002327       0.000159       0.000000
      0.002198       0.000102       0.000000
      0.002094       0.000065       0.000000
      0.002198       0.000102       0.000000
      0.002168       0.000058       0.000000
      0.002082       0.000027       0.000000
      0.002198       0.000102       0.000000
      0.002327       0.000159       0.000000
      0.002255       0.000108       0.000000
      0.002168       0.000058       0.000000
      0.002336       0.000237       0.000000
      0.002430       0.000294       0.000000
      0.002438       0.000248       0.000000
      0.002344       0.000197       0.000000
      0.002430       0.000294       0.000000
      0.002539       0.000371       0.000000
      0.002554       0.000322       0.000000
      0.002438       0.000248       0.000000
      0.002344       0.000197       0.000000
      0.002438       0.000248       0.000000
      0.002406       0.000202       0.000000
      0.002327       0.000159       0.000000
      0.002438       0.000248       0.000000
      0.002554       0.000322       0.000000
      0.002507       0.000264       0.000000
      0.002406       0.000202       0.000000
      0.002539       0.000371       0.000000
      0.002662       0.000469       0.000000
      0.002705       0.000432       0.000000
      0.002554       0.000322       0.000000
      0.002662       0.000469       0.000000
      0.002788       0.000568       0.000000
      0.002897       0.000576       0.000000
      0.002705       0.000432       0.000000
      0.002554       0.000322       0.000000
      0.002705       0.000432       0.000000
      0.002653       0.000364       0.000000
      0.002507       0.000264       0.000000
      0.002327       0.000159       0.000000
      0.002406       0.000202       0.000000
      0.002349       0.000166       0.000000
      0.002292       0.000129       0.000000
      0.002406       0.000202       0.000000
      0.002507       0.000264       0.000000
      0.002412       0.000220       0.000000
      0.002349       0.000166       0.000000
      0.002292       0.000129       0.000000
      0.002349       0.000166       0.000000
      0.002294       0.000146       0.000000
      0.002255       0.000108       0.000000
      0.002349       0.000166       0.000000
      0.002412       0.000220       0.000000
      0.002326       0.000200       0.000000
      0.002294       0.000146       0.000000
      0.002507       0.000264       0.000000
      0.002571       0.000307       0.000000
      0.002513       0.000277       0.000000
      0.002462       0.000238       0.000000
      0.002571       0.000307       0.000000
      0.002653       0.000364       0.000000
      0.002579       0.000327       0.000000
      0.002513       0.000277       0.000000
      0.002462       0.000238       0.000000
      0.002513       0.000277       0.000000
      0.002447       0.000256       0.000000
      0.002412       0.000220       0.000000
      0.002513       0.000277       0.000000
      0.002579       0.000327       0.000000
      0.002489       0.000302       0.000000
      0.002447       0.000256       0.000000
      0.002653       0.000364       0.000000
      0.002768       0.000441       0.000000
      0.002678       0.000395       0.000000
      0.002579       0.000327       0.000000
      0.002768       0.000441       0.000000
      0.002943       0.000549       0.000000
      0.002883       0.000502       0.000000
      0.002678       0.000395       0.000000
      0.002579       0.000327       0.000000
      0.002678       0.000395       0.000000
      0.002546       0.000361       0.000000
      0.002489       0.000302       0.000000
      0.002678       0.000395       0.000000
      0.002883       0.000502       0.000000
      0.002681       0.000451       0.000000
      0.002546       0.000361       0.000000
      0.002412       0.000220       0.000000
      0.002447       0.000256       0.000000
      0.002386       0.000244       0.000000
      0.002365       0.000207       0.000000
      0.002447       0.000256       0.000000
      0.002489       0.000302       0.000000
      0.002407       0.000289       0.000000
      0.002386       0.000244       0.000000
      0.002365       0.000207       0.000000
      0.002386       0.000244       0.000000
      0.002338       0.000238       0.000000
      0.002326       0.000200       0.000000
      0.002386       0.000244       0.000000
      0.002407       0.000289       0.000000
      0.002350       0.000286       0.000000
      0.002338       0.000238       0.000000
      0.002489       0.000302       0.000000
      0.002546       0.000361       0.000000
      0.002431       0.000346       0.000000
      0.002407       0.000289       0.000000
      0.002546       0.000361       0.000000
      0.002681       0.000451       0.000000
      0.002381       0.000386       0.000000
      0.002431       0.000346       0.000000
      0.002407       0.000289       0.000000
      0.002431       0.000346       0.000000
      0.002387       0.000352       0.000000
      0.002350       0.000286       0.000000
      0.002431       0.000346       0.000000
      0.002381       0.000386       0.000000
      0.006403       0.000490       0.000000
      0.002387       0.000352       0.000000
      0.002705       0.000432       0.000000
      0.002797       0.000503       0.000000
      0.002802       0.000479       0.000000
      0.002695       0.000401       0.000000
      0.002797       0.000503       0.000000
      0.002897       0.000576       0.000000
      0.002934       0.000570       0.000000
      0.002802       0.000479       0.000000
      0.002695       0.000401       0.000000
      0.002802       0.000479       0.000000
      0.002768       0.000441       0.000000
      0.002653       0.000364       0.000000
      0.002802       0.000479       0.000000
      0.002934       0.000570       0.000000
      0.002943       0.000549       0.000000
      0.002768       0.000441       0.000000
      0.000000       0.000000       0.000000
      0.000000       0.000000       0.000000
      0.000555       0.000116       0.000000
      0.000560       0.000123       0.000000
      0.000000       0.000000       0.000000
      0.000000       0.000000       0.000000
      0.000558       0.000090       0.000000
      0.000555       0.000116       0.000000
      0.000560       0.000123       0.000000
      0.000555       0.000116       0.000000
      0.001134       0.000229       0.000000
      0.001120       0.000248       0.000000
      0.000555       0.000116       0.000000
      0.000558       0.000090       0.000000
      0.001163       0.000168       0.000000
      0.001134       0.000229       0.000000
      0.000000       0.000000       0.000000
      0.000000       0.000000       0.000000
      0.000572       0.000060       0.000000
      0.000558       0.000090       0.000000
      0.000000       0.000000       0.000000
      0.000000       0.000000       0.000000
      0.000592       0.000034       0.000000
      0.000572       0.000060       0.000000
      0.000558       0.000090       0.000000
      0.000572       0.000060       0.000000
      0.001207       0.000102       0.000000
      0.001163       0.000168       0.000000
      0.000572       0.000060       0.000000
      0.000592       0.000034       0.000000
      0.001253       0.000052       0.000000
      0.001207       0.000102       0.000000
      0.000000       0.000000       0.000000
      0.000000       0.000000       0.000000
      0.000608       0.000015       0.000000
      0.000592       0.000034       0.000000
      0.000000       0.000000       0.000000
      0.000000       0.000000       0.000000
      0.000613       0.000000       0.000000
      0.000608       0.000015       0.000000
      0.000592       0.000034       0.000000
      0.000608       0.000015       0.000000
      0.001286       0.000021       0.000000
      0.001253       0.000052       0.000000
      0.000608       0.000015       0.000000
      0.000613       0.000000       0.000000
      0.001297       0.000000       0.000000
      0.001286       0.000021       0.000000
      0.001120       0.000248       0.000000
      0.001134       0.000229       0.000000
      0.001740       0.000331       0.000000
      0.001681       0.000367       0.000000
      0.001134       0.000229       0.000000
      0.001163       0.000168       0.000000
      0.001823       0.000217       0.000000
      0.001740       0.000331       0.000000
      0.001681       0.000367       0.000000
      0.001740       0.000331       0.000000
      0.002397       0.000405       0.000000
      0.002245       0.000477       0.000000
      0.001740       0.000331       0.000000
      0.001823       0.000217       0.000000
      0.002590       0.000208       0.000000
      0.002397       0.000405       0.000000
      0.001163       0.000168       0.000000
      0.001207       0.000102       0.000000
      0.001921       0.000112       0.000000
      0.001823       0.000217       0.000000
      0.001207       0.000102       0.000000
      0.001253       0.000052       0.000000
      0.002002       0.000047       0.000000
      0.001921       0.000112       0.000000
      0.001823       0.000217       0.000000
      0.001921       0.000112       0.000000
      0.002757       0.000078       0.000000
      0.002590       0.000208       0.000000
      0.001921       0.000112       0.000000
      0.002002       0.000047       0.000000
      0.002868       0.000018       0.000000
      0.002757       0.000078       0.000000
      0.001253       0.000052       0.000000
      0.001286       0.000021       0.000000
      0.002053       0.000015       0.000000
      0.002002       0.000047       0.000000
      0.001286       0.000021       0.000000
      0.001297       0.000000       0.000000
      0.002070       0.000000       0.000000
      0.002053       0.000015       0.000000
      0.002002       0.000047       0.000000
      0.002053       0.000015       0.000000
      0.002928      -0.000000       0.000000
      0.002868       0.000018       0.000000
      0.002053       0.000015       0.000000
      0.002070       0.000000       0.000000
      0.002948       0.000000       0.000000
      0.002928      -0.000000       0.000000
      0.002590       0.000208       0.000000
      0.002757       0.000078       0.000000
      0.003790       0.000011       0.000000
      0.003624       0.000112       0.000000
      0.002757       0.000078       0.000000
      0.002868       0.000018       0.000000
      0.003873      -0.000020       0.000000
      0.003790       0.000011       0.000000
      0.003624       0.000112       0.000000
      0.003790       0.000011       0.000000
      0.004999      -0.000015       0.000000
      0.005048       0.000057       0.000000
      0.003790       0.000011       0.000000
      0.003873      -0.000020       0.000000
      0.004976      -0.000033       0.000000
      0.004999      -0.000015       0.000000
      0.002868       0.000018       0.000000
      0.002928      -0.000000       0.000000
      0.003913      -0.000017       0.000000
      0.003873      -0.000020       0.000000
      0.002928      -0.000000       0.000000
      0.002948       0.000000       0.000000
      0.003925       0.000000       0.000000
      0.003913      -0.000017       0.000000
      0.003873      -0.000020       0.000000
      0.003913      -0.000017       0.000000
      0.004965      -0.000023       0.000000
      0.004976      -0.000033       0.000000
      0.003913      -0.000017       0.000000
      0.003925       0.000000       0.000000
      0.004962       0.000000       0.000000
      0.004965      -0.000023       0.000000
      0.002245       0.000477       0.000000
      0.002317       0.000476       0.000000
      0.002644       0.000529       0.000000
      0.002525       0.000528       0.000000
      0.002317       0.000476       0.000000
      0.002397       0.000405       0.000000
      0.002780       0.000413       0.000000
      0.002644       0.000529       0.000000
      0.002525       0.000528       0.000000
      0.002644       0.000529       0.000000
      0.003031       0.000569       0.000000
      0.002788       0.000568       0.000000
      0.002644       0.000529       0.000000
      0.002780       0.000413       0.000000
      0.003281       0.000373       0.000000