# vtk DataFile Version 2.0
time_10.vtk
ASCII
DATASET UNSTRUCTURED_GRID
POINTS  1812 float
      0.000000       0.000000       0.000000
      0.083333       0.000000       0.000000
      0.083333       0.083333       0.000000
      0.000000       0.083333       0.000000
      0.083333       0.000000       0.000000
      0.166667       0.000000       0.000000
      0.166667       0.083333       0.000000
      0.083333       0.083333       0.000000
      0.000000       0.083333       0.000000
      0.083333       0.083333       0.000000
      0.083333       0.166667       0.000000
      0.000000       0.166667       0.000000
      0.083333       0.083333       0.000000
      0.166667       0.083333       0.000000
      0.166667       0.166667       0.000000
      0.083333       0.166667       0.000000
      0.166667       0.000000       0.000000
      0.250000       0.000000       0.000000
      0.250000       0.083333       0.000000
      0.166667       0.083333       0.000000
      0.250000       0.000000       0.000000
      0.333333       0.000000       0.000000
      0.333333       0.083333       0.000000
      0.250000       0.083333       0.000000
      0.166667       0.083333       0.000000
      0.250000       0.083333       0.000000
      0.250000       0.166667       0.000000
      0.166667       0.166667       0.000000
      0.250000       0.083333       0.000000
      0.333333       0.083333       0.000000
      0.333333       0.166667       0.000000
      0.250000       0.166667       0.000000
      0.333333       0.000000       0.000000
      0.416667       0.000000       0.000000
      0.416667       0.083333       0.000000
      0.333333       0.083333       0.000000
      0.416667       0.000000       0.000000
      0.500000       0.000000       0.000000
      0.500000       0.083333       0.000000
      0.416667       0.083333       0.000000
      0.333333       0.083333       0.000000
      0.416667       0.083333       0.000000
      0.416667       0.166667       0.000000
      0.333333       0.166667       0.000000
      0.416667       0.083333       0.000000
      0.500000       0.083333       0.000000
      0.500000       0.166667       0.000000
      0.416667       0.166667       0.000000
      0.000000       0.166667       0.000000
      0.083333       0.166667       0.000000
      0.083333       0.250000       0.000000
      0.000000       0.250000       0.000000
      0.083333       0.166667       0.000000
      0.166667       0.166667       0.000000
      0.166667       0.250000       0.000000
      0.083333       0.250000       0.000000
      0.000000       0.250000       0.000000
      0.083333       0.250000       0.000000
      0.083333       0.333333       0.000000
      0.000000       0.333333       0.000000
      0.083333       0.250000       0.000000
      0.166667       0.250000       0.000000
      0.166667       0.333333       0.000000
      0.083333       0.333333       0.000000
      0.166667       0.166667       0.000000
      0.250000       0.166667       0.000000
      0.250000       0.250000       0.000000
      0.166667       0.250000       0.000000
      0.250000       0.166667       0.000000
      0.333333       0.166667       0.000000
      0.333333       0.250000       0.000000
      0.250000       0.250000       0.000000
      0.166667       0.250000       0.000000
      0.250000       0.250000       0.000000
      0.250000       0.333333       0.000000
      0.166667       0.333333       0.000000
      0.250000       0.250000       0.000000
      0.333333       0.250000       0.000000
      0.333333       0.333333       0.000000
      0.250000       0.333333       0.000000
      0.333333       0.166667       0.000000
      0.416667       0.166667       0.000000
      0.416667       0.250000       0.000000
      0.333333       0.250000       0.000000
      0.333333       0.250000       0.000000
      0.416667       0.250000       0.000000
      0.416667       0.333333       0.000000
      0.333333       0.333333       0.000000
      0.000000       0.333333       0.000000
      0.083333       0.333333       0.000000
      0.083333       0.416667       0.000000
      0.000000       0.416667       0.000000
      0.083333       0.333333       0.000000
      0.166667       0.333333       0.000000
      0.166667       0.416667       0.000000
      0.083333       0.416667       0.000000
      0.000000       0.416667       0.000000
      0.083333       0.416667       0.000000
      0.083333       0.500000       0.000000
      0.000000       0.500000       0.000000
      0.083333       0.416667       0.000000
      0.166667       0.416667       0.000000
      0.166667       0.500000       0.000000
      0.083333       0.500000       0.000000
      0.166667       0.333333       0.000000
      0.250000       0.333333       0.000000
      0.250000       0.416667       0.000000
      0.166667       0.416667       0.000000
      0.250000       0.333333       0.000000
      0.333333       0.333333       0.000000
      0.333333       0.416667       0.000000
      0.250000       0.416667       0.000000
      0.166667       0.416667       0.000000
      0.250000       0.416667       0.000000
      0.250000       0.500000       0.000000
      0.166667       0.500000       0.000000
      0.250000       0.416667       0.000000
      0.333333       0.416667       0.000000
      0.333333       0.500000       0.000000
      0.250000       0.500000       0.000000
      0.333333       0.333333       0.000000
      0.375000       0.333333       0.000000
      0.375000       0.375000       0.000000
      0.333333       0.375000       0.000000
      0.375000       0.333333       0.000000
      0.416667       0.333333       0.000000
      0.416667       0.375000       0.000000
      0.375000       0.375000       0.000000
      0.333333       0.375000       0.000000
      0.375000       0.375000       0.000000
      0.375000       0.416667       0.000000
      0.333333       0.416667       0.000000
      0.375000       0.375000       0.000000
      0.416667       0.375000       0.000000
      0.416667       0.416667       0.000000
      0.375000       0.416667       0.000000
      0.416667       0.333333       0.000000
      0.458333       0.333333       0.000000
      0.458333       0.375000       0.000000
      0.416667       0.375000       0.000000
      0.416667       0.375000       0.000000
      0.458333       0.375000       0.000000
      0.458333       0.416667       0.000000
      0.416667       0.416667       0.000000
      0.333333       0.416667       0.000000
      0.375000       0.416667       0.000000
      0.375000       0.458333       0.000000
      0.333333       0.458333       0.000000
      0.375000       0.416667       0.000000
      0.416667       0.416667       0.000000
      0.416667       0.458333       0.000000
      0.375000       0.458333       0.000000
      0.333333       0.458333       0.000000
      0.375000       0.458333       0.000000
      0.375000       0.500000       0.000000
      0.333333       0.500000       0.000000
      0.375000       0.458333       0.000000
      0.416667       0.458333       0.000000
      0.416667       0.500000       0.000000
      0.375000       0.500000       0.000000
      0.416667       0.416667       0.000000
      0.437500       0.416667       0.000000
      0.437500       0.437500       0.000000
      0.416667       0.437500       0.000000
      0.437500       0.416667       0.000000
      0.458333       0.416667       0.000000
      0.458333       0.437500       0.000000
      0.437500       0.437500       0.000000
      0.416667       0.437500       0.000000
      0.437500       0.437500       0.000000
      0.437500       0.458333       0.000000
      0.416667       0.458333       0.000000
      0.437500       0.437500       0.000000
      0.458333       0.437500       0.000000
      0.458333       0.458333       0.000000
      0.437500       0.458333       0.000000
      0.458333       0.416667       0.000000
      0.479167       0.416667       0.000000
      0.479167       0.437500       0.000000
      0.458333       0.437500       0.000000
      0.458333       0.437500       0.000000
      0.479167       0.437500       0.000000
      0.479167       0.458333       0.000000
      0.458333       0.458333       0.000000
      0.416667       0.458333       0.000000
      0.437500       0.458333       0.000000
      0.437500       0.479167       0.000000
      0.416667       0.479167       0.000000
      0.437500       0.458333       0.000000
      0.458333       0.458333       0.000000
      0.458333       0.479167       0.000000
      0.437500       0.479167       0.000000
      0.416667       0.479167       0.000000
      0.437500       0.479167       0.000000
      0.437500       0.500000       0.000000
      0.416667       0.500000       0.000000
      0.437500       0.479167       0.000000
      0.458333       0.479167       0.000000
      0.458333       0.500000       0.000000
      0.437500       0.500000       0.000000
      0.458333       0.458333       0.000000
      0.468750       0.458333       0.000000
      0.468750       0.468750       0.000000
      0.458333       0.468750       0.000000
      0.468750       0.458333       0.000000
      0.479167       0.458333       0.000000
      0.479167       0.468750       0.000000
      0.468750       0.468750       0.000000
      0.458333       0.468750       0.000000
      0.468750       0.468750       0.000000
      0.468750       0.479167       0.000000
      0.458333       0.479167       0.000000
      0.468750       0.468750       0.000000
      0.479167       0.468750       0.000000
      0.479167       0.479167       0.000000
      0.468750       0.479167       0.000000
      0.479167       0.458333       0.000000
      0.489583       0.458333       0.000000
      0.489583       0.468750       0.000000
      0.479167       0.468750       0.000000
[...]
POINT_DATA  1812
VECTORS U float 
      0.000000       0.000000       0.000000
      0.000000       0.000000       0.000000
      0.000286       0.000000       0.000000
      0.000278       0.000000       0.000000
      0.000000       0.000000       0.000000
      0.000000       0.000000       0.000000
      0.000313       0.000003       0.000000
      0.000286       0.000000       0.000000
      0.000278       0.000000       0.000000
      0.000286       0.000000       0.000000
      0.000524      -0.000009       0.000000
      0.000511       0.000000       0.000000
      0.000286       0.000000       0.000000
      0.000313       0.000003       0.000000
      0.000564      -0.000015       0.000000
      0.000524      -0.000009       0.000000
      0.000000       0.000000       0.000000
      0.000000       0.000000       0.000000
      0.000358       0.000012       0.000000
      0.000313       0.000003       0.000000
      0.000000       0.000000       0.000000
      0.000000       0.000000       0.000000
      0.000421       0.000033       0.000000
      0.000358       0.000012       0.000000
      0.000313       0.000003       0.000000
      0.000358       0.000012       0.000000
      0.000633      -0.000009       0.000000
      0.000564      -0.000015       0.000000
      0.000358       0.000012       0.000000
      0.000421       0.000033       0.000000
      0.000736       0.000019       0.000000
      0.000633      -0.000009       0.000000
      0.000000       0.000000       0.000000
      0.000000       0.000000       0.000000
      0.000496       0.000077       0.000000
      0.000421       0.000033       0.000000
      0.000000       0.000000       0.000000
      0.000000       0.000000       0.000000
      0.000560       0.000146       0.000000
      0.000496       0.000077       0.000000
      0.000421       0.000033       0.000000
      0.000496       0.000077       0.000000
      0.000873       0.000092       0.000000
      0.000736       0.000019       0.000000
      0.000496       0.000077       0.000000
      0.000560       0.000146       0.000000
      0.001032       0.000240       0.000000
      0.000873       0.000092       0.000000
      0.000511       0.000000       0.000000
      0.000524      -0.000009       0.000000
      0.000700      -0.000024       0.000000
      0.000686       0.000000       0.000000
      0.000524      -0.000009       0.000000
      0.000564      -0.000015       0.000000
      0.000741      -0.000042       0.000000
      0.000700      -0.000024       0.000000
      0.000686       0.000000       0.000000
      0.000700      -0.000024       0.000000
      0.000817      -0.000037       0.000000
      0.000806       0.000000       0.000000
      0.000700      -0.000024       0.000000
      0.000741      -0.000042       0.000000
      0.000847      -0.000068       0.000000
      0.000817      -0.000037       0.000000
      0.000564      -0.000015       0.000000
      0.000633      -0.000009       0.000000
      0.000812      -0.000049       0.000000
      0.000741      -0.000042       0.000000
      0.000633      -0.000009       0.000000
      0.000736       0.000019       0.000000
      0.000921      -0.000031       0.000000
      0.000812      -0.000049       0.000000
      0.000741      -0.000042       0.000000
      0.000812      -0.000049       0.000000
      0.000900      -0.000088       0.000000
      0.000847      -0.000068       0.000000
      0.000812      -0.000049       0.000000
      0.000921      -0.000031       0.000000
      0.000978      -0.000082       0.000000
      0.000900      -0.000088       0.000000
      0.000736       0.000019       0.000000
      0.000873       0.000092       0.000000
      0.001082       0.000038       0.000000
      0.000921      -0.000031       0.000000
      0.000921      -0.000031       0.000000
      0.001082       0.000038       0.000000
      0.001082      -0.000032       0.000000
      0.000978      -0.000082       0.000000
      0.000806       0.000000       0.000000
      0.000817      -0.000037       0.000000
      0.000889      -0.000045       0.000000
      0.000884       0.000000       0.000000
      0.000817      -0.000037       0.000000
      0.000847      -0.000068       0.000000
      0.000905      -0.000085       0.000000
      0.000889      -0.000045       0.000000
      0.000884       0.000000       0.000000
      0.000889      -0.000045       0.000000
      0.000939      -0.000048       0.000000
      0.000938       0.000000       0.000000
      0.000889      -0.000045       0.000000
      0.000905      -0.000085       0.000000
      0.000941      -0.000089       0.000000
      0.000939      -0.000048       0.000000
      0.000847      -0.000068       0.000000
      0.000900      -0.000088       0.000000
      0.000929      -0.000111       0.000000
      0.000905      -0.000085       0.000000
      0.000900      -0.000088       0.000000
      0.000978      -0.000082       0.000000
      0.000959      -0.000108       0.000000
      0.000929      -0.000111       0.000000
      0.000905      -0.000085       0.000000
      0.000929      -0.000111       0.000000
      0.000938      -0.000116       0.000000
      0.000941      -0.000089       0.000000
      0.000929      -0.000111       0.000000
      0.000959      -0.000108       0.000000
      0.000926      -0.000110       0.000000
      0.000938      -0.000116       0.000000
      0.000978      -0.000082       0.000000
      0.001026      -0.000064       0.000000
      0.001004      -0.000081       0.000000
      0.000973      -0.000098       0.000000
      0.001026      -0.000064       0.000000
      0.001082      -0.000032       0.000000
      0.001036      -0.000048       0.000000
      0.001004      -0.000081       0.000000
      0.000973      -0.000098       0.000000
      0.001004      -0.000081       0.000000
      0.000975      -0.000088       0.000000
      0.000959      -0.000108       0.000000
      0.001004      -0.000081       0.000000
      0.001036      -0.000048       0.000000
      0.000989      -0.000053       0.000000
      0.000975      -0.000088       0.000000
      0.001082      -0.000032       0.000000
      0.001145       0.000020       0.000000
      0.001066       0.000005       0.000000
      0.001036      -0.000048       0.000000
      0.001036      -0.000048       0.000000
      0.001066       0.000005       0.000000
      0.001000       0.000002       0.000000
      0.000989      -0.000053       0.000000
      0.000959      -0.000108       0.000000
      0.000975      -0.000088       0.000000
      0.000946      -0.000090       0.000000
      0.000942      -0.000111       0.000000
      0.000975      -0.000088       0.000000
      0.000989      -0.000053       0.000000
      0.000948      -0.000053       0.000000
      0.000946      -0.000090       0.000000
      0.000942      -0.000111       0.000000
      0.000946      -0.000090       0.000000
      0.000916      -0.000089       0.000000
      0.000926      -0.000110       0.000000
      0.000946      -0.000090       0.000000
      0.000948      -0.000053       0.000000
      0.000907      -0.000051       0.000000
      0.000916      -0.000089       0.000000
      0.000989      -0.000053       0.000000
      0.000995      -0.000028       0.000000
      0.000971      -0.000028       0.000000
      0.000968      -0.000053       0.000000
      0.000995      -0.000028       0.000000
      0.001000       0.000002       0.000000
      0.000973       0.000002       0.000000
      0.000971      -0.000028       0.000000
      0.000968      -0.000053       0.000000
      0.000971      -0.000028       0.000000
      0.000949      -0.000028       0.000000
      0.000948      -0.000053       0.000000
      0.000971      -0.000028       0.000000
      0.000973       0.000002       0.000000
      0.000950       0.000001       0.000000
      0.000949      -0.000028       0.000000
      0.001000       0.000002       0.000000
      0.001004       0.000038       0.000000
      0.000976       0.000036       0.000000
      0.000973       0.000002       0.000000
      0.000973       0.000002       0.000000
      0.000976       0.000036       0.000000
      0.000952       0.000034       0.000000
      0.000950       0.000001       0.000000
      0.000948      -0.000053       0.000000
      0.000949      -0.000028       0.000000
      0.000928      -0.000027       0.000000
      0.000928      -0.000052       0.000000
      0.000949      -0.000028       0.000000
      0.000950       0.000001       0.000000
      0.000928       0.000001       0.000000
      0.000928      -0.000027       0.000000
      0.000928      -0.000052       0.000000
      0.000928      -0.000027       0.000000
      0.000904      -0.000027       0.000000
      0.000907      -0.000051       0.000000
      0.000928      -0.000027       0.000000
      0.000928       0.000001       0.000000
      0.000903       0.000001       0.000000
      0.000904      -0.000027       0.000000
      0.000950       0.000001       0.000000
      0.000951       0.000017       0.000000
      0.000940       0.000016       0.000000
      0.000939       0.000001       0.000000
      0.000951       0.000017       0.000000
      0.000952       0.000034       0.000000
      0.000941       0.000032       0.000000
      0.000940       0.000016       0.000000
      0.000939       0.000001       0.000000
      0.000940       0.000016       0.000000
      0.000929       0.000016       0.000000
      0.000928       0.000001       0.000000
      0.000940       0.000016       0.000000
      0.000941       0.000032       0.000000
      0.000930       0.000031       0.000000
      0.000929       0.000016       0.000000
      0.000952       0.000034       0.000000
      0.000955       0.000052       0.000000
      0.000944       0.000050       0.000000
      0.000941       0.000032       0.000000
      0.000955       0.000052       0.000000
      0.000960       0.000072       0.000000
      0.000950       0.000076       0.000000
      0.000944       0.000050       0.000000
      0.000941       0.000032       0.000000
      0.000944       0.000050       0.000000
      0.000933       0.000047       0.000000
      0.000930       0.000031       0.000000
      0.000944       0.000050       0.000000
      0.000950       0.000076       0.000000
      0.000929       0.000080       0.000000
      0.000933       0.000047       0.000000
      0.000928       0.000001       0.000000
      0.000929       0.000016       0.000000
      0.000917       0.000015       0.000000
      0.000916       0.000001       0.000000
      0.000929       0.000016       0.000000
      0.000930       0.000031       0.000000
      0.000919       0.000029       0.000000
      0.000917       0.000015       0.000000
      0.000916       0.000001       0.000000
      0.000917       0.000015       0.000000
      0.000905       0.000016       0.000000
      0.000903       0.000001       0.000000
      0.000917       0.000015       0.000000
      0.000919       0.000029       0.000000
      0.000911       0.000032       0.000000
      0.000905       0.000016       0.000000
      0.000930       0.000031       0.000000
      0.000933       0.000047       0.000000
      0.000921       0.000039       0.000000
      0.000919       0.000029       0.000000
      0.000933       0.000047       0.000000
      0.000929       0.000080       0.000000
      0.000637       0.000073       0.000000
      0.000921       0.000039       0.000000
      0.000919       0.000029       0.000000
      0.000921       0.000039       0.000000
      0.000966       0.000057       0.000000
      0.000911       0.000032       0.000000
      0.000921       0.000039       0.000000
      0.000637       0.000073       0.000000
      0.008635       0.000846       0.000000
      0.000966       0.000057       0.000000
      0.000976       0.000036       0.000000
      0.000978       0.000055       0.000000
      0.000966       0.000053       0.000000
      0.000964       0.000035       0.000000
      0.000978       0.000055       0.000000
      0.000981       0.000076       0.000000
      0.000969       0.000073       0.000000
      0.000966       0.000053       0.000000
      0.000964       0.000035       0.000000
      0.000966       0.000053       0.000000
      0.000955       0.000052       0.000000
      0.000952       0.000034       0.000000
      0.000966       0.000053       0.000000
      0.000969       0.000073       0.000000
      0.000960       0.000072       0.000000
      0.000955       0.000052       0.000000
      0.001066       0.000005       0.000000
      0.001080       0.000042       0.000000
      0.001038       0.000040       0.000000
      0.001030       0.000003       0.000000
      0.001080       0.000042       0.000000
      0.001092       0.000089       0.000000
      0.001045       0.000085       0.000000
      0.001038       0.000040       0.000000
      0.001030       0.000003       0.000000
      0.001038       0.000040       0.000000
      0.001004       0.000038       0.000000
      0.001000       0.000002       0.000000
      0.001004       0.000038       0.000000
      0.001006       0.000059       0.000000
      0.000991       0.000057       0.000000
      0.000989       0.000037       0.000000
      0.001006       0.000059       0.000000
      0.001009       0.000081       0.000000
      0.000994       0.000078       0.000000
      0.000991       0.000057       0.000000
      0.000989       0.000037       0.000000
      0.000991       0.000057       0.000000
      0.000978       0.000055       0.000000
      0.000976       0.000036       0.000000
      0.000991       0.000057       0.000000
      0.000994       0.000078       0.000000
      0.000981       0.000076       0.000000
      0.000978       0.000055       0.000000
      0.001038       0.000040       0.000000
      0.001041       0.000061       0.000000
      0.001023       0.000060       0.000000
      0.001020       0.000039       0.000000
      0.001041       0.000061       0.000000
      0.001045       0.000085       0.000000
      0.001025       0.000083       0.000000
      0.001023       0.000060       0.000000
      0.001020       0.000039       0.000000
      0.001023       0.000060       0.000000
      0.001006       0.000059       0.000000
      0.001004       0.000038       0.000000
      0.001023       0.000060       0.000000
      0.001025       0.000083       0.000000
      0.001009       0.000081       0.000000
      0.001006       0.000059       0.000000
      0.001082       0.000038       0.000000
      0.001192       0.000108       0.000000
      0.001202       0.000059       0.000000
      0.001104      -0.000001       0.000000
      0.001192       0.000108       0.000000
      0.001334       0.000219       0.000000
      0.001333       0.000156       0.000000
      0.001202       0.000059       0.000000
      0.001104      -0.000001       0.000000
      0.001202       0.000059       0.000000
      0.001145       0.000020       0.000000
      0.001082      -0.000032       0.000000
      0.001145       0.000020       0.000000
      0.001181       0.000057       0.000000
      0.001129       0.000047       0.000000
      0.001106       0.000010       0.000000
      0.001181       0.000057       0.000000
      0.001219       0.000105       0.000000
      0.001151       0.000094       0.000000
      0.001129       0.000047       0.000000
      0.001106       0.000010       0.000000
      0.001129       0.000047       0.000000
      0.001080       0.000042       0.000000
      0.001066       0.000005       0.000000
      0.001129       0.000047       0.000000
      0.001151       0.000094       0.000000
      0.001092       0.000089       0.000000
      0.001080       0.000042       0.000000
      0.001202       0.000059       0.000000
      0.001262       0.000101       0.000000
      0.001229       0.000076       0.000000
      0.001180       0.000037       0.000000
      0.001262       0.000101       0.000000
      0.001333       0.000156       0.000000
      0.001285       0.000126       0.000000
      0.001229       0.000076       0.000000
      0.001180       0.000037       0.000000
      0.001229       0.000076       0.000000
      0.001181       0.000057       0.000000
      0.001145       0.000020       0.000000
      0.001229       0.000076       0.000000
      0.001285       0.000126       0.000000
      0.001219       0.000105       0.000000
      0.001181       0.000057       0.000000
      0.000873       0.000092       0.000000
      0.000952       0.000156       0.000000
      0.001104       0.000144       0.000000
      0.001003       0.000072       0.000000
      0.000952       0.000156       0.000000
      0.001032       0.000240       0.000000
      0.001218       0.000249       0.000000
      0.001104       0.000144       0.000000
      0.001003       0.000072       0.000000
      0.001104       0.000144       0.000000
      0.001192       0.000108       0.000000
      0.001082       0.000038       0.000000
      0.001104       0.000144       0.000000
      0.001218       0.000249       0.000000
      0.001334       0.000219       0.000000
      0.001192       0.000108       0.000000
      0.000000       0.000000       0.000000
      0.000000       0.000000       0.000000
      0.000584       0.000210       0.000000
      0.000560       0.000146       0.000000
      0.000000       0.000000       0.000000
      0.000000       0.000000       0.000000
      0.000583       0.000204       0.000000
      0.000584       0.000210       0.000000
      0.000560       0.000146       0.000000
      0.000584       0.000210       0.000000
      0.001152       0.000418       0.000000
      0.001032       0.000240       0.000000
      0.000584       0.000210       0.000000
      0.000583       0.000204       0.000000
      0.001223       0.000396       0.000000
      0.001152       0.000418       0.000000
      0.000000       0.000000       0.000000
      0.000000       0.000000       0.000000
      0.000604       0.000138       0.000000
      0.000583       0.000204       0.000000
      0.000000       0.000000       0.000000
      0.000000       0.000000       0.000000
      0.000649       0.000072       0.000000
      0.000604       0.000138       0.000000
      0.000583       0.000204       0.000000
      0.000604       0.000138       0.000000
      0.001339       0.000227       0.000000
      0.001223       0.000396       0.000000
      0.000604       0.000138       0.000000
      0.000649       0.000072       0.000000
      0.001461       0.000100       0.000000
      0.001339       0.000227       0.000000
      0.000000       0.000000       0.000000
      0.000000       0.000000       0.000000
      0.000690       0.000028       0.000000
      0.000649       0.000072       0.000000
      0.000000       0.000000       0.000000
      0.000000       0.000000       0.000000
      0.000705       0.000000       0.000000
      0.000690       0.000028       0.000000
      0.000649       0.000072       0.000000
      0.000690       0.000028       0.000000
      0.001543       0.000034       0.000000
      0.001461       0.000100       0.000000
      0.000690       0.000028       0.000000
      0.000705       0.000000       0.000000
      0.001571       0.000000       0.000000
      0.001543       0.000034       0.000000
      0.001223       0.000396       0.000000
      0.001339       0.000227       0.000000
      0.002315       0.000221       0.000000
      0.002011       0.000516       0.000000
      0.001339       0.000227       0.000000
      0.001461       0.000100       0.000000
      0.002508       0.000075       0.000000
      0.002315       0.000221       0.000000
      0.002315       0.000221       0.000000
      0.002508       0.000075       0.000000
      0.003858       0.000036       0.000000