# vtk DataFile Version 2.0
time_10.vtk
ASCII
DATASET UNSTRUCTURED_GRID
POINTS  1284 float
      0.000000       0.000000       0.000000
      0.083333       0.000000       0.000000
      0.083333       0.083333       0.000000
      0.000000       0.083333       0.000000
      0.083333       0.000000       0.000000
      0.166667       0.000000       0.000000
      0.166667       0.083333       0.000000
      0.083333       0.083333       0.000000
      0.000000       0.083333       0.000000
      0.083333       0.083333       0.000000
      0.083333       0.166667       0.000000
      0.000000       0.166667       0.000000
      0.083333       0.083333       0.000000
      0.166667       0.083333       0.000000
      0.166667       0.166667       0.000000
      0.083333       0.166667       0.000000
      0.166667       0.000000       0.000000
      0.250000       0.000000       0.000000
      0.250000       0.083333       0.000000
      0.166667       0.083333       0.000000
      0.250000       0.000000       0.000000
      0.333333       0.000000       0.000000
      0.333333       0.083333       0.000000
      0.250000       0.083333       0.000000
      0.166667       0.083333       0.000000
      0.250000       0.083333       0.000000
      0.250000       0.166667       0.000000
      0.166667       0.166667       0.000000
      0.250000       0.083333       0.000000
      0.333333       0.083333       0.000000
      0.333333       0.166667       0.000000
      0.250000       0.166667       0.000000
      0.333333       0.000000       0.000000
      0.416667       0.000000       0.000000
      0.416667       0.083333       0.000000
      0.333333       0.083333       0.000000
      0.416667       0.000000       0.000000
      0.500000       0.000000       0.000000
      0.500000       0.083333       0.000000
      0.416667       0.083333       0.000000
      0.333333       0.083333       0.000000
      0.416667       0.083333       0.000000
      0.416667       0.166667       0.000000
      0.333333       0.166667       0.000000
      0.416667       0.083333       0.000000
      0.500000       0.083333       0.000000
      0.500000       0.166667       0.000000
      0.416667       0.166667       0.000000
      0.000000       0.166667       0.000000
      0.083333       0.166667       0.000000
      0.083333       0.250000       0.000000
      0.000000       0.250000       0.000000
      0.083333       0.166667       0.000000
      0.166667       0.166667       0.000000
      0.166667       0.250000       0.000000
      0.083333       0.250000       0.000000
      0.000000       0.250000       0.000000
      0.083333       0.250000       0.000000
      0.083333       0.333333       0.000000
      0.000000       0.333333       0.000000
      0.083333       0.250000       0.000000
      0.166667       0.250000       0.000000
      0.166667       0.333333       0.000000
      0.083333       0.333333       0.000000
      0.166667       0.166667       0.000000
      0.250000       0.166667       0.000000
      0.250000       0.250000       0.000000
      0.166667       0.250000       0.000000
      0.250000       0.166667       0.000000
      0.333333       0.166667       0.000000
      0.333333       0.250000       0.000000
      0.250000       0.250000       0.000000
      0.166667       0.250000       0.000000
      0.250000       0.250000       0.000000
      0.250000       0.333333       0.000000
      0.166667       0.333333       0.000000
      0.250000       0.250000       0.000000
      0.333333       0.250000       0.000000
      0.333333       0.333333       0.000000
      0.250000       0.333333       0.000000
      0.333333       0.166667       0.000000
      0.416667       0.166667       0.000000
      0.416667       0.250000       0.000000
      0.333333       0.250000       0.000000
      0.416667       0.166667       0.000000
      0.500000       0.166667       0.000000
      0.500000       0.250000       0.000000
      0.416667       0.250000       0.000000
      0.333333       0.250000       0.000000
      0.416667       0.250000       0.000000
      0.416667       0.333333       0.000000
      0.333333       0.333333       0.000000
      0.416667       0.250000       0.000000
      0.500000       0.250000       0.000000
      0.500000       0.333333       0.000000
      0.416667       0.333333       0.000000
      0.000000       0.333333       0.000000
      0.083333       0.333333       0.000000
      0.083333       0.416667       0.000000
      0.000000       0.416667       0.000000
      0.083333       0.333333       0.000000
      0.166667       0.333333       0.000000
      0.166667       0.416667       0.000000
      0.083333       0.416667       0.000000
      0.000000       0.416667       0.000000
      0.083333       0.416667       0.000000
      0.083333       0.500000       0.000000
      0.000000       0.500000       0.000000
      0.083333       0.416667       0.000000
      0.166667       0.416667       0.000000
      0.166667       0.500000       0.000000
      0.083333       0.500000       0.000000
      0.166667       0.333333       0.000000
      0.250000       0.333333       0.000000
      0.250000       0.416667       0.000000
      0.166667       0.416667       0.000000
      0.250000       0.333333       0.000000
      0.333333       0.333333       0.000000
      0.333333       0.416667       0.000000
      0.250000       0.416667       0.000000
      0.166667       0.416667       0.000000
      0.250000       0.416667       0.000000
      0.250000       0.500000       0.000000
      0.166667       0.500000       0.000000
      0.250000       0.416667       0.000000
      0.333333       0.416667       0.000000
      0.333333       0.500000       0.000000
      0.250000       0.500000       0.000000
      0.333333       0.333333       0.000000
      0.375000       0.333333       0.000000
      0.375000       0.375000       0.000000
      0.333333       0.375000       0.000000
      0.375000       0.333333       0.000000
      0.416667       0.333333       0.000000
      0.416667       0.375000       0.000000
      0.375000       0.375000       0.000000
      0.333333       0.375000       0.000000
      0.375000       0.375000       0.000000
      0.375000       0.416667       0.000000
      0.333333       0.416667       0.000000
      0.375000       0.375000       0.000000
      0.416667       0.375000       0.000000
      0.416667       0.416667       0.000000
      0.375000       0.416667       0.000000
      0.416667       0.333333       0.000000
      0.458333       0.333333       0.000000
      0.458333       0.375000       0.000000
      0.416667       0.375000       0.000000
      0.458333       0.333333       0.000000
      0.500000       0.333333       0.000000
      0.500000       0.375000       0.000000
      0.458333       0.375000       0.000000
      0.416667       0.375000       0.000000
      0.458333       0.375000       0.000000
      0.458333       0.416667       0.000000
      0.416667       0.416667       0.000000
      0.333333       0.416667       0.000000
      0.375000       0.416667       0.000000
      0.375000       0.458333       0.000000
      0.333333       0.458333       0.000000
      0.375000       0.416667       0.000000
      0.416667       0.416667       0.000000
      0.416667       0.458333       0.000000
      0.375000       0.458333       0.000000
      0.333333       0.458333       0.000000
      0.375000       0.458333       0.000000
      0.375000       0.500000       0.000000
      0.333333       0.500000       0.000000
      0.375000       0.458333       0.000000
      0.416667       0.458333       0.000000
      0.416667       0.500000       0.000000
      0.375000       0.500000       0.000000
      0.416667       0.416667       0.000000
      0.437500       0.416667       0.000000
      0.437500       0.437500       0.000000
      0.416667       0.437500       0.000000
      0.437500       0.416667       0.000000
      0.458333       0.416667       0.000000
      0.458333       0.437500       0.000000
      0.437500       0.437500       0.000000
      0.416667       0.437500       0.000000
      0.437500       0.437500       0.000000
      0.437500       0.458333       0.000000
      0.416667       0.458333       0.000000
      0.437500       0.437500       0.000000
      0.458333       0.437500       0.000000
      0.458333       0.458333       0.000000
      0.437500       0.458333       0.000000
      0.458333       0.416667       0.000000
      0.479167       0.416667       0.000000
      0.479167       0.437500       0.000000
      0.458333       0.437500       0.000000
      0.458333       0.437500       0.000000
      0.479167       0.437500       0.000000
      0.479167       0.458333       0.000000
      0.458333       0.458333       0.000000
      0.416667       0.458333       0.000000
      0.437500       0.458333       0.000000
      0.437500       0.479167       0.000000
      0.416667       0.479167       0.000000
      0.437500       0.458333       0.000000
      0.458333       0.458333       0.000000
      0.458333       0.479167       0.000000
      0.437500       0.479167       0.000000
      0.416667       0.479167       0.000000
      0.437500       0.479167       0.000000
      0.437500       0.500000       0.000000
      0.416667       0.500000       0.000000
      0.437500       0.479167       0.000000
      0.458333       0.479167       0.000000
      0.458333       0.500000       0.000000
      0.437500       0.500000       0.000000
      0.458333       0.458333       0.000000
      0.468750       0.458333       0.000000
      0.468750       0.468750       0.000000
      0.458333       0.468750       0.000000
      0.468750       0.458333       0.000000
      0.479167       0.458333       0.000000
      0.479167       0.468750       0.000000
      0.468750       0.468750       0.000000
[...]
POINT_DATA  1284
VECTORS U float 
      0.000000       0.000000       0.000000
      0.000000       0.000000       0.000000
      0.000476       0.000013       0.000000
      0.000469       0.000000       0.000000
      0.000000       0.000000       0.000000
      0.000000       0.000000       0.000000
      0.000494       0.000029       0.000000
      0.000476       0.000013       0.000000
      0.000469       0.000000       0.000000
      0.000476       0.000013       0.000000
      0.000883       0.000016       0.000000
      0.000871       0.000000       0.000000
      0.000476       0.000013       0.000000
      0.000494       0.000029       0.000000
      0.000918       0.000040       0.000000
      0.000883       0.000016       0.000000
      0.000000       0.000000       0.000000
      0.000000       0.000000       0.000000
      0.000521       0.000051       0.000000
      0.000494       0.000029       0.000000
      0.000000       0.000000       0.000000
      0.000000       0.000000       0.000000
      0.000550       0.000080       0.000000
      0.000521       0.000051       0.000000
      0.000494       0.000029       0.000000
      0.000521       0.000051       0.000000
      0.000973       0.000077       0.000000
      0.000918       0.000040       0.000000
      0.000521       0.000051       0.000000
      0.000550       0.000080       0.000000
      0.001039       0.000136       0.000000
      0.000973       0.000077       0.000000
      0.000000       0.000000       0.000000
      0.000000       0.000000       0.000000
      0.000569       0.000114       0.000000
      0.000550       0.000080       0.000000
      0.000000       0.000000       0.000000
      0.000000       0.000000       0.000000
      0.000573       0.000139       0.000000
      0.000569       0.000114       0.000000
      0.000550       0.000080       0.000000
      0.000569       0.000114       0.000000
      0.001100       0.000214       0.000000
      0.001039       0.000136       0.000000
      0.000569       0.000114       0.000000
      0.000573       0.000139       0.000000
      0.001136       0.000278       0.000000
      0.001100       0.000214       0.000000
      0.000871       0.000000       0.000000
      0.000883       0.000016       0.000000
      0.001207       0.000011       0.000000
      0.001191       0.000000       0.000000
      0.000883       0.000016       0.000000
      0.000918       0.000040       0.000000
      0.001256       0.000032       0.000000
      0.001207       0.000011       0.000000
      0.001191       0.000000       0.000000
      0.001207       0.000011       0.000000
      0.001439      -0.000000       0.000000
      0.001421       0.000000       0.000000
      0.001207       0.000011       0.000000
      0.001256       0.000032       0.000000
      0.001493       0.000008       0.000000
      0.001439      -0.000000       0.000000
      0.000918       0.000040       0.000000
      0.000973       0.000077       0.000000
      0.001338       0.000073       0.000000
      0.001256       0.000032       0.000000
      0.000973       0.000077       0.000000
      0.001039       0.000136       0.000000
      0.001452       0.000151       0.000000
      0.001338       0.000073       0.000000
      0.001256       0.000032       0.000000
      0.001338       0.000073       0.000000
      0.001590       0.000037       0.000000
      0.001493       0.000008       0.000000
      0.001338       0.000073       0.000000
      0.001452       0.000151       0.000000
      0.001741       0.000108       0.000000
      0.001590       0.000037       0.000000
      0.001039       0.000136       0.000000
      0.001100       0.000214       0.000000
      0.001584       0.000277       0.000000
      0.001452       0.000151       0.000000
      0.001100       0.000214       0.000000
      0.001136       0.000278       0.000000
      0.001693       0.000407       0.000000
      0.001584       0.000277       0.000000
      0.001452       0.000151       0.000000
      0.001584       0.000277       0.000000
      0.001963       0.000260       0.000000
      0.001741       0.000108       0.000000
      0.001584       0.000277       0.000000
      0.001693       0.000407       0.000000
      0.002227       0.000515       0.000000
      0.001963       0.000260       0.000000
      0.001421       0.000000       0.000000
      0.001439      -0.000000       0.000000
      0.001579      -0.000015       0.000000
      0.001562       0.000000       0.000000
      0.001439      -0.000000       0.000000
      0.001493       0.000008       0.000000
      0.001628      -0.000022       0.000000
      0.001579      -0.000015       0.000000
      0.001562       0.000000       0.000000
      0.001579      -0.000015       0.000000
      0.001638      -0.000027       0.000000
      0.001625       0.000000       0.000000
      0.001579      -0.000015       0.000000
      0.001628      -0.000022       0.000000
      0.001677      -0.000048       0.000000
      0.001638      -0.000027       0.000000
      0.001493       0.000008       0.000000
      0.001590       0.000037       0.000000
      0.001715      -0.000014       0.000000
      0.001628      -0.000022       0.000000
      0.001590       0.000037       0.000000
      0.001741       0.000108       0.000000
      0.001850       0.000027       0.000000
      0.001715      -0.000014       0.000000
      0.001628      -0.000022       0.000000
      0.001715      -0.000014       0.000000
      0.001740      -0.000053       0.000000
      0.001677      -0.000048       0.000000
      0.001715      -0.000014       0.000000
      0.001850       0.000027       0.000000
      0.001819      -0.000029       0.000000
      0.001740      -0.000053       0.000000
      0.001741       0.000108       0.000000
      0.001843       0.000171       0.000000
      0.001926       0.000123       0.000000
      0.001819       0.000068       0.000000
      0.001843       0.000171       0.000000
      0.001963       0.000260       0.000000
      0.002062       0.000208       0.000000
      0.001926       0.000123       0.000000
      0.001819       0.000068       0.000000
      0.001926       0.000123       0.000000
      0.001943       0.000069       0.000000
      0.001850       0.000027       0.000000
      0.001926       0.000123       0.000000
      0.002062       0.000208       0.000000
      0.002063       0.000138       0.000000
      0.001943       0.000069       0.000000
      0.001963       0.000260       0.000000
      0.002098       0.000383       0.000000
      0.002238       0.000343       0.000000
      0.002062       0.000208       0.000000
      0.002098       0.000383       0.000000
      0.002227       0.000515       0.000000
      0.002452       0.000540       0.000000
      0.002238       0.000343       0.000000
      0.002062       0.000208       0.000000
      0.002238       0.000343       0.000000
      0.002230       0.000256       0.000000
      0.002063       0.000138       0.000000
      0.001850       0.000027       0.000000
      0.001943       0.000069       0.000000
      0.001908       0.000027       0.000000
      0.001843      -0.000007       0.000000
      0.001943       0.000069       0.000000
      0.002063       0.000138       0.000000
      0.001981       0.000086       0.000000
      0.001908       0.000027       0.000000
      0.001843      -0.000007       0.000000
      0.001908       0.000027       0.000000
      0.001857       0.000004       0.000000
      0.001819      -0.000029       0.000000
      0.001908       0.000027       0.000000
      0.001981       0.000086       0.000000
      0.001884       0.000065       0.000000
      0.001857       0.000004       0.000000
      0.002063       0.000138       0.000000
      0.002138       0.000189       0.000000
      0.002087       0.000154       0.000000
      0.002028       0.000108       0.000000
      0.002138       0.000189       0.000000
      0.002230       0.000256       0.000000
      0.002156       0.000215       0.000000
      0.002087       0.000154       0.000000
      0.002028       0.000108       0.000000
      0.002087       0.000154       0.000000
      0.002020       0.000130       0.000000
      0.001981       0.000086       0.000000
      0.002087       0.000154       0.000000
      0.002156       0.000215       0.000000
      0.002061       0.000190       0.000000
      0.002020       0.000130       0.000000
      0.002230       0.000256       0.000000
      0.002349       0.000349       0.000000
      0.002243       0.000298       0.000000
      0.002156       0.000215       0.000000
      0.002156       0.000215       0.000000
      0.002243       0.000298       0.000000
      0.002103       0.000271       0.000000
      0.002061       0.000190       0.000000
      0.001981       0.000086       0.000000
      0.002020       0.000130       0.000000
      0.001951       0.000118       0.000000
      0.001930       0.000072       0.000000
      0.002020       0.000130       0.000000
      0.002061       0.000190       0.000000
      0.001970       0.000180       0.000000
      0.001951       0.000118       0.000000
      0.001930       0.000072       0.000000
      0.001951       0.000118       0.000000
      0.001891       0.000113       0.000000
      0.001884       0.000065       0.000000
      0.001951       0.000118       0.000000
      0.001970       0.000180       0.000000
      0.001893       0.000177       0.000000
      0.001891       0.000113       0.000000
      0.002061       0.000190       0.000000
      0.002082       0.000228       0.000000
      0.002027       0.000222       0.000000
      0.002014       0.000184       0.000000
      0.002082       0.000228       0.000000
      0.002103       0.000271       0.000000
      0.002041       0.000266       0.000000
      0.002027       0.000222       0.000000
      0.002014       0.000184       0.000000
      0.002027       0.000222       0.000000
      0.001978       0.000219       0.000000
      0.001970       0.000180       0.000000
      0.002027       0.000222       0.000000
      0.002041       0.000266       0.000000
      0.001986       0.000263       0.000000
      0.001978       0.000219       0.000000
      0.002103       0.000271       0.000000
      0.002127       0.000323       0.000000
      0.002055       0.000318       0.000000
      0.002041       0.000266       0.000000
      0.002127       0.000323       0.000000
      0.002154       0.000386       0.000000
      0.002077       0.000388       0.000000
      0.002055       0.000318       0.000000
      0.002041       0.000266       0.000000
      0.002055       0.000318       0.000000
      0.001996       0.000314       0.000000
      0.001986       0.000263       0.000000
      0.002055       0.000318       0.000000
      0.002077       0.000388       0.000000
      0.002007       0.000388       0.000000
      0.001996       0.000314       0.000000
      0.001970       0.000180       0.000000
      0.001978       0.000219       0.000000
      0.001935       0.000217       0.000000
      0.001930       0.000178       0.000000
      0.001978       0.000219       0.000000
      0.001986       0.000263       0.000000
      0.001940       0.000260       0.000000
      0.001935       0.000217       0.000000
      0.001930       0.000178       0.000000
      0.001935       0.000217       0.000000
      0.001895       0.000216       0.000000
      0.001893       0.000177       0.000000
      0.001935       0.000217       0.000000
      0.001940       0.000260       0.000000
      0.001900       0.000261       0.000000
      0.001895       0.000216       0.000000
      0.001986       0.000263       0.000000
      0.001996       0.000314       0.000000
      0.001946       0.000304       0.000000
      0.001940       0.000260       0.000000
      0.001996       0.000314       0.000000
      0.002007       0.000388       0.000000
      0.001758       0.000317       0.000000
      0.001946       0.000304       0.000000
      0.001940       0.000260       0.000000
      0.001946       0.000304       0.000000
      0.001940       0.000315       0.000000
      0.001900       0.000261       0.000000
      0.001946       0.000304       0.000000
      0.001758       0.000317       0.000000
      0.007099       0.000602       0.000000
      0.001940       0.000315       0.000000
      0.002243       0.000298       0.000000
      0.002300       0.000351       0.000000
      0.002212       0.000332       0.000000
      0.002173       0.000281       0.000000
      0.002300       0.000351       0.000000
      0.002377       0.000416       0.000000
      0.002261       0.000394       0.000000
      0.002212       0.000332       0.000000
      0.002173       0.000281       0.000000
      0.002212       0.000332       0.000000
      0.002127       0.000323       0.000000
      0.002103       0.000271       0.000000
      0.002212       0.000332       0.000000
      0.002261       0.000394       0.000000
      0.002154       0.000386       0.000000
      0.002127       0.000323       0.000000
      0.002238       0.000343       0.000000
      0.002343       0.000436       0.000000
      0.002378       0.000401       0.000000
      0.002258       0.000303       0.000000
      0.002343       0.000436       0.000000
      0.002452       0.000540       0.000000
      0.002524       0.000529       0.000000
      0.002378       0.000401       0.000000
      0.002258       0.000303       0.000000
      0.002378       0.000401       0.000000
      0.002349       0.000349       0.000000
      0.002230       0.000256       0.000000
      0.002378       0.000401       0.000000
      0.002524       0.000529       0.000000
      0.002522       0.000486       0.000000
      0.002349       0.000349       0.000000
      0.002349       0.000349       0.000000
      0.002426       0.000410       0.000000
      0.002375       0.000379       0.000000
      0.002304       0.000321       0.000000
      0.002426       0.000410       0.000000
      0.002522       0.000486       0.000000
      0.002471       0.000451       0.000000
      0.002375       0.000379       0.000000
      0.002304       0.000321       0.000000
      0.002375       0.000379       0.000000
      0.002300       0.000351       0.000000
      0.002243       0.000298       0.000000
      0.002375       0.000379       0.000000
      0.002471       0.000451       0.000000
      0.002377       0.000416       0.000000
      0.002300       0.000351       0.000000
      0.000000       0.000000       0.000000
      0.000000       0.000000       0.000000
      0.000567       0.000139       0.000000
      0.000573       0.000139       0.000000
      0.000000       0.000000       0.000000
      0.000000       0.000000       0.000000
      0.000568       0.000112       0.000000
      0.000567       0.000139       0.000000
      0.000573       0.000139       0.000000
      0.000567       0.000139       0.000000
      0.001156       0.000278       0.000000
      0.001136       0.000278       0.000000
      0.000567       0.000139       0.000000
      0.000568       0.000112       0.000000
      0.001188       0.000211       0.000000
      0.001156       0.000278       0.000000
      0.000000       0.000000       0.000000
      0.000000       0.000000       0.000000
      0.000583       0.000075       0.000000
      0.000568       0.000112       0.000000
      0.000000       0.000000       0.000000
      0.000000       0.000000       0.000000
      0.000606       0.000042       0.000000
      0.000583       0.000075       0.000000
      0.000568       0.000112       0.000000
      0.000583       0.000075       0.000000
      0.001241       0.000127       0.000000
      0.001188       0.000211       0.000000
      0.000583       0.000075       0.000000
      0.000606       0.000042       0.000000
      0.001298       0.000064       0.000000
      0.001241       0.000127       0.000000
      0.000000       0.000000       0.000000
      0.000000       0.000000       0.000000
      0.000625       0.000018       0.000000
      0.000606       0.000042       0.000000
      0.000000       0.000000       0.000000
      0.000000       0.000000       0.000000
      0.000633       0.000000       0.000000
      0.000625       0.000018       0.000000
      0.000606       0.000042       0.000000
      0.000625       0.000018       0.000000
      0.001338       0.000025       0.000000
      0.001298       0.000064       0.000000
      0.000625       0.000018       0.000000
      0.000633       0.000000       0.000000
      0.001353       0.000000       0.000000
      0.001338       0.000025       0.000000
      0.001136       0.000278       0.000000
      0.001156       0.000278       0.000000
      0.001769       0.000408       0.000000
      0.001693       0.000407       0.000000
      0.001156       0.000278       0.000000
      0.001188       0.000211       0.000000
      0.001872       0.000273       0.000000
      0.001769       0.000408       0.000000
      0.001693       0.000407       0.000000
      0.001769       0.000408       0.000000
      0.002440       0.000514       0.000000
      0.002227       0.000515       0.000000
      0.001769       0.000408       0.000000
      0.001872       0.000273       0.000000
      0.002702       0.000258       0.000000
      0.002440       0.000514       0.000000
      0.001188       0.000211       0.000000
      0.001241       0.000127       0.000000
      0.001996       0.000140       0.000000
      0.001872       0.000273       0.000000
      0.001241       0.000127       0.000000
      0.001298       0.000064       0.000000
      0.002099       0.000058       0.000000
      0.001996       0.000140       0.000000
      0.001872       0.000273       0.000000
      0.001996       0.000140       0.000000
      0.002917       0.000094       0.000000
      0.002702       0.000258       0.000000
      0.001996       0.000140       0.000000
      0.002099       0.000058       0.000000
      0.003051       0.000022       0.000000
      0.002917       0.000094       0.000000
      0.001298       0.000064       0.000000
      0.001338       0.000025       0.000000
      0.002162       0.000019       0.000000
      0.002099       0.000058       0.000000
      0.001338       0.000025       0.000000
      0.001353       0.000000       0.000000
      0.002184       0.000000       0.000000
      0.002162       0.000019       0.000000
      0.002099       0.000058       0.000000
      0.002162       0.000019       0.000000
      0.003122      -0.000000       0.000000
      0.003051       0.000022       0.000000
      0.002162       0.000019       0.000000
      0.002184       0.000000       0.000000
      0.003144       0.000000       0.000000
      0.003122      -0.000000       0.000000
      0.002702       0.000258       0.000000
      0.002917       0.000094       0.000000
      0.004100       0.000019       0.000000
      0.003936       0.000139       0.000000
      0.002917       0.000094       0.000000
      0.003051       0.000022       0.000000
      0.004178      -0.000019       0.000000
      0.004100       0.000019       0.000000
      0.003936       0.000139       0.000000
      0.004100       0.000019       0.000000
      0.005461       0.000015       0.000000
      0.005585       0.000127       0.000000
      0.004100       0.000019       0.000000
      0.004178      -0.000019       0.000000
      0.005403      -0.000021       0.000000
      0.005461       0.000015       0.000000
      0.003051       0.000022       0.000000
      0.003122      -0.000000       0.000000
      0.004215      -0.000018       0.000000
      0.004178      -0.000019       0.000000
      0.003122      -0.000000       0.000000
      0.003144       0.000000       0.000000
      0.004226       0.000000       0.000000