# vtk DataFile Version 2.0
time_10.vtk
ASCII
DATASET UNSTRUCTURED_GRID
POINTS  2688 float
      0.000000       0.000000       0.000000
      0.083333       0.000000       0.000000
      0.083333       0.083333       0.000000
      0.000000       0.083333       0.000000
      0.083333       0.000000       0.000000
      0.166667       0.000000       0.000000
      0.166667       0.083333       0.000000
      0.083333       0.083333       0.000000
      0.000000       0.083333       0.000000
      0.083333       0.083333       0.000000
      0.083333       0.166667       0.000000
      0.000000       0.166667       0.000000
      0.083333       0.083333       0.000000
      0.166667       0.083333       0.000000
      0.166667       0.166667       0.000000
      0.083333       0.166667       0.000000
      0.166667       0.000000       0.000000
      0.250000       0.000000       0.000000
      0.250000       0.083333       0.000000
      0.166667       0.083333       0.000000
      0.250000       0.000000       0.000000
      0.333333       0.000000       0.000000
      0.333333       0.083333       0.000000
      0.250000       0.083333       0.000000
      0.166667       0.083333       0.000000
      0.250000       0.083333       0.000000
      0.250000       0.166667       0.000000
      0.166667       0.166667       0.000000
      0.250000       0.083333       0.000000
      0.333333       0.083333       0.000000
      0.333333       0.166667       0.000000
      0.250000       0.166667       0.000000
      0.333333       0.000000       0.000000
      0.416667       0.000000       0.000000
      0.416667       0.083333       0.000000
      0.333333       0.083333       0.000000
      0.416667       0.000000       0.000000
      0.500000       0.000000       0.000000
      0.500000       0.083333       0.000000
      0.416667       0.083333       0.000000
      0.333333       0.083333       0.000000
      0.416667       0.083333       0.000000
      0.416667       0.166667       0.000000
      0.333333       0.166667       0.000000
      0.416667       0.083333       0.000000
      0.500000       0.083333       0.000000
      0.500000       0.166667       0.000000
      0.416667       0.166667       0.000000
      0.000000       0.166667       0.000000
      0.083333       0.166667       0.000000
      0.083333       0.250000       0.000000
      0.000000       0.250000       0.000000
      0.083333       0.166667       0.000000
      0.166667       0.166667       0.000000
      0.166667       0.250000       0.000000
      0.083333       0.250000       0.000000
      0.000000       0.250000       0.000000
      0.083333       0.250000       0.000000
      0.083333       0.333333       0.000000
      0.000000       0.333333       0.000000
      0.083333       0.250000       0.000000
      0.166667       0.250000       0.000000
      0.166667       0.333333       0.000000
      0.083333       0.333333       0.000000
      0.166667       0.166667       0.000000
      0.250000       0.166667       0.000000
      0.250000       0.250000       0.000000
      0.166667       0.250000       0.000000
      0.250000       0.166667       0.000000
      0.333333       0.166667       0.000000
      0.333333       0.250000       0.000000
      0.250000       0.250000       0.000000
      0.166667       0.250000       0.000000
      0.250000       0.250000       0.000000
      0.250000       0.333333       0.000000
      0.166667       0.333333       0.000000
      0.250000       0.250000       0.000000
      0.333333       0.250000       0.000000
      0.333333       0.333333       0.000000
      0.250000       0.333333       0.000000
      0.333333       0.166667       0.000000
      0.416667       0.166667       0.000000
      0.416667       0.250000       0.000000
      0.333333       0.250000       0.000000
      0.333333       0.250000       0.000000
      0.416667       0.250000       0.000000
      0.416667       0.333333       0.000000
      0.333333       0.333333       0.000000
      0.000000       0.333333       0.000000
      0.083333       0.333333       0.000000
      0.083333       0.416667       0.000000
      0.000000       0.416667       0.000000
      0.083333       0.333333       0.000000
      0.166667       0.333333       0.000000
      0.166667       0.416667       0.000000
      0.083333       0.416667       0.000000
      0.000000       0.416667       0.000000
      0.083333       0.416667       0.000000
      0.083333       0.500000       0.000000
      0.000000       0.500000       0.000000
      0.083333       0.416667       0.000000
      0.166667       0.416667       0.000000
      0.166667       0.500000       0.000000
      0.083333       0.500000       0.000000
      0.166667       0.333333       0.000000
      0.250000       0.333333       0.000000
      0.250000       0.416667       0.000000
      0.166667       0.416667       0.000000
      0.250000       0.333333       0.000000
      0.333333       0.333333       0.000000
      0.333333       0.416667       0.000000
      0.250000       0.416667       0.000000
      0.166667       0.416667       0.000000
      0.250000       0.416667       0.000000
      0.250000       0.500000       0.000000
      0.166667       0.500000       0.000000
      0.250000       0.416667       0.000000
      0.333333       0.416667       0.000000
      0.333333       0.500000       0.000000
      0.250000       0.500000       0.000000
      0.333333       0.333333       0.000000
      0.375000       0.333333       0.000000
      0.375000       0.375000       0.000000
      0.333333       0.375000       0.000000
      0.375000       0.333333       0.000000
      0.416667       0.333333       0.000000
      0.416667       0.375000       0.000000
      0.375000       0.375000       0.000000
      0.333333       0.375000       0.000000
      0.375000       0.375000       0.000000
      0.375000       0.416667       0.000000
      0.333333       0.416667       0.000000
      0.375000       0.375000       0.000000
      0.416667       0.375000       0.000000
      0.416667       0.416667       0.000000
      0.375000       0.416667       0.000000
      0.416667       0.333333       0.000000
      0.458333       0.333333       0.000000
      0.458333       0.375000       0.000000
      0.416667       0.375000       0.000000
      0.416667       0.375000       0.000000
      0.458333       0.375000       0.000000
      0.458333       0.416667       0.000000
      0.416667       0.416667       0.000000
      0.333333       0.416667       0.000000
      0.375000       0.416667       0.000000
      0.375000       0.458333       0.000000
      0.333333       0.458333       0.000000
      0.375000       0.416667       0.000000
      0.416667       0.416667       0.000000
      0.416667       0.458333       0.000000
      0.375000       0.458333       0.000000
      0.333333       0.458333       0.000000
      0.375000       0.458333       0.000000
      0.375000       0.500000       0.000000
      0.333333       0.500000       0.000000
      0.375000       0.458333       0.000000
      0.416667       0.458333       0.000000
      0.416667       0.500000       0.000000
      0.375000       0.500000       0.000000
      0.416667       0.416667       0.000000
      0.437500       0.416667       0.000000
      0.437500       0.437500       0.000000
      0.416667       0.437500       0.000000
      0.437500       0.416667       0.000000
      0.458333       0.416667       0.000000
      0.458333       0.437500       0.000000
      0.437500       0.437500       0.000000
      0.416667       0.437500       0.000000
      0.437500       0.437500       0.000000
      0.437500       0.458333       0.000000
      0.416667       0.458333       0.000000
      0.437500       0.437500       0.000000
      0.458333       0.437500       0.000000
      0.458333       0.458333       0.000000
      0.437500       0.458333       0.000000
      0.458333       0.416667       0.000000
      0.479167       0.416667       0.000000
      0.479167       0.437500       0.000000
      0.458333       0.437500       0.000000
      0.416667       0.458333       0.000000
      0.437500       0.458333       0.000000
      0.437500       0.479167       0.000000
      0.416667       0.479167       0.000000
      0.437500       0.458333       0.000000
      0.458333       0.458333       0.000000
      0.458333       0.479167       0.000000
      0.437500       0.479167       0.000000
      0.416667       0.479167       0.000000
      0.437500       0.479167       0.000000
      0.437500       0.500000       0.000000
      0.416667       0.500000       0.000000
      0.437500       0.479167       0.000000
      0.458333       0.479167       0.000000
      0.458333       0.500000       0.000000
      0.437500       0.500000       0.000000
      0.458333       0.458333       0.000000
      0.468750       0.458333       0.000000
      0.468750       0.468750       0.000000
      0.458333       0.468750       0.000000
      0.468750       0.458333       0.000000
      0.479167       0.458333       0.000000
      0.479167       0.468750       0.000000
      0.468750       0.468750       0.000000
      0.458333       0.468750       0.000000
      0.468750       0.468750       0.000000
      0.468750       0.479167       0.000000
      0.458333       0.479167       0.000000
      0.468750       0.468750       0.000000
      0.479167       0.468750       0.000000
      0.479167       0.479167       0.000000
      0.468750       0.479167       0.000000
      0.479167       0.458333       0.000000
      0.489583       0.458333       0.000000
      0.489583       0.468750       0.000000
      0.479167       0.468750       0.000000
      0.489583       0.458333       0.000000
      0.500000       0.458333       0.000000
      0.500000       0.468750       0.000000
      0.489583       0.468750       0.000000
[...]
POINT_DATA  2688
VECTORS U float 
      0.000000       0.000000       0.000000
      0.000000       0.000000       0.000000
      0.000162      -0.000003       0.000000
      0.000156       0.000000       0.000000
      0.000000       0.000000       0.000000
      0.000000       0.000000       0.000000
      0.000179      -0.000005       0.000000
      0.000162      -0.000003       0.000000
      0.000156       0.000000       0.000000
      0.000162      -0.000003       0.000000
      0.000299      -0.000011       0.000000
      0.000291       0.000000       0.000000
      0.000162      -0.000003       0.000000
      0.000179      -0.000005       0.000000
      0.000324      -0.000022       0.000000
      0.000299      -0.000011       0.000000
      0.000000       0.000000       0.000000
      0.000000       0.000000       0.000000
      0.000212      -0.000005       0.000000
      0.000179      -0.000005       0.000000
      0.000000       0.000000       0.000000
      0.000000       0.000000       0.000000
      0.000265      -0.000001       0.000000
      0.000212      -0.000005       0.000000
      0.000179      -0.000005       0.000000
      0.000212      -0.000005       0.000000
      0.000370      -0.000032       0.000000
      0.000324      -0.000022       0.000000
      0.000212      -0.000005       0.000000
      0.000265      -0.000001       0.000000
      0.000442      -0.000037       0.000000
      0.000370      -0.000032       0.000000
      0.000000       0.000000       0.000000
      0.000000       0.000000       0.000000
      0.000344       0.000015       0.000000
      0.000265      -0.000001       0.000000
      0.000000       0.000000       0.000000
      0.000000       0.000000       0.000000
      0.000453       0.000061       0.000000
      0.000344       0.000015       0.000000
      0.000265      -0.000001       0.000000
      0.000344       0.000015       0.000000
      0.000549      -0.000025       0.000000
      0.000442      -0.000037       0.000000
      0.000344       0.000015       0.000000
      0.000453       0.000061       0.000000
      0.000710       0.000033       0.000000
      0.000549      -0.000025       0.000000
      0.000291       0.000000       0.000000
      0.000299      -0.000011       0.000000
      0.000403      -0.000022       0.000000
      0.000395       0.000000       0.000000
      0.000299      -0.000011       0.000000
      0.000324      -0.000022       0.000000
      0.000427      -0.000043       0.000000
      0.000403      -0.000022       0.000000
      0.000395       0.000000       0.000000
      0.000403      -0.000022       0.000000
      0.000476      -0.000030       0.000000
      0.000470       0.000000       0.000000
      0.000403      -0.000022       0.000000
      0.000427      -0.000043       0.000000
      0.000492      -0.000059       0.000000
      0.000476      -0.000030       0.000000
      0.000324      -0.000022       0.000000
      0.000370      -0.000032       0.000000
      0.000468      -0.000063       0.000000
      0.000427      -0.000043       0.000000
      0.000370      -0.000032       0.000000
      0.000442      -0.000037       0.000000
      0.000529      -0.000077       0.000000
      0.000468      -0.000063       0.000000
      0.000427      -0.000043       0.000000
      0.000468      -0.000063       0.000000
      0.000520      -0.000085       0.000000
      0.000492      -0.000059       0.000000
      0.000468      -0.000063       0.000000
      0.000529      -0.000077       0.000000
      0.000555      -0.000102       0.000000
      0.000520      -0.000085       0.000000
      0.000442      -0.000037       0.000000
      0.000549      -0.000025       0.000000
      0.000611      -0.000076       0.000000
      0.000529      -0.000077       0.000000
      0.000529      -0.000077       0.000000
      0.000611      -0.000076       0.000000
      0.000593      -0.000099       0.000000
      0.000555      -0.000102       0.000000
      0.000470       0.000000       0.000000
      0.000476      -0.000030       0.000000
      0.000526      -0.000035       0.000000
      0.000523       0.000000       0.000000
      0.000476      -0.000030       0.000000
      0.000492      -0.000059       0.000000
      0.000534      -0.000068       0.000000
      0.000526      -0.000035       0.000000
      0.000523       0.000000       0.000000
      0.000526      -0.000035       0.000000
      0.000564      -0.000037       0.000000
      0.000563       0.000000       0.000000
      0.000526      -0.000035       0.000000
      0.000534      -0.000068       0.000000
      0.000566      -0.000071       0.000000
      0.000564      -0.000037       0.000000
      0.000492      -0.000059       0.000000
      0.000520      -0.000085       0.000000
      0.000546      -0.000096       0.000000
      0.000534      -0.000068       0.000000
      0.000520      -0.000085       0.000000
      0.000555      -0.000102       0.000000
      0.000559      -0.000111       0.000000
      0.000546      -0.000096       0.000000
      0.000534      -0.000068       0.000000
      0.000546      -0.000096       0.000000
      0.000565      -0.000099       0.000000
      0.000566      -0.000071       0.000000
      0.000546      -0.000096       0.000000
      0.000559      -0.000111       0.000000
      0.000560      -0.000112       0.000000
      0.000565      -0.000099       0.000000
      0.000555      -0.000102       0.000000
      0.000574      -0.000104       0.000000
      0.000570      -0.000109       0.000000
      0.000558      -0.000108       0.000000
      0.000574      -0.000104       0.000000
      0.000593      -0.000099       0.000000
      0.000580      -0.000102       0.000000
      0.000570      -0.000109       0.000000
      0.000558      -0.000108       0.000000
      0.000570      -0.000109       0.000000
      0.000565      -0.000110       0.000000
      0.000559      -0.000111       0.000000
      0.000570      -0.000109       0.000000
      0.000580      -0.000102       0.000000
      0.000570      -0.000102       0.000000
      0.000565      -0.000110       0.000000
      0.000593      -0.000099       0.000000
      0.000610      -0.000085       0.000000
      0.000588      -0.000086       0.000000
      0.000580      -0.000102       0.000000
      0.000580      -0.000102       0.000000
      0.000588      -0.000086       0.000000
      0.000574      -0.000086       0.000000
      0.000570      -0.000102       0.000000
      0.000559      -0.000111       0.000000
      0.000565      -0.000110       0.000000
      0.000561      -0.000111       0.000000
      0.000560      -0.000112       0.000000
      0.000565      -0.000110       0.000000
      0.000570      -0.000102       0.000000
      0.000563      -0.000102       0.000000
      0.000561      -0.000111       0.000000
      0.000560      -0.000112       0.000000
      0.000561      -0.000111       0.000000
      0.000557      -0.000110       0.000000
      0.000560      -0.000112       0.000000
      0.000561      -0.000111       0.000000
      0.000563      -0.000102       0.000000
      0.000554      -0.000102       0.000000
      0.000557      -0.000110       0.000000
      0.000570      -0.000102       0.000000
      0.000572      -0.000095       0.000000
      0.000568      -0.000095       0.000000
      0.000566      -0.000102       0.000000
      0.000572      -0.000095       0.000000
      0.000574      -0.000086       0.000000
      0.000569      -0.000086       0.000000
      0.000568      -0.000095       0.000000
      0.000566      -0.000102       0.000000
      0.000568      -0.000095       0.000000
      0.000564      -0.000095       0.000000
      0.000563      -0.000102       0.000000
      0.000568      -0.000095       0.000000
      0.000569      -0.000086       0.000000
      0.000565      -0.000086       0.000000
      0.000564      -0.000095       0.000000
      0.000574      -0.000086       0.000000
      0.000576      -0.000074       0.000000
      0.000571      -0.000075       0.000000
      0.000569      -0.000086       0.000000
      0.000563      -0.000102       0.000000
      0.000564      -0.000095       0.000000
      0.000559      -0.000095       0.000000
      0.000559      -0.000102       0.000000
      0.000564      -0.000095       0.000000
      0.000565      -0.000086       0.000000
      0.000561      -0.000087       0.000000
      0.000559      -0.000095       0.000000
      0.000559      -0.000102       0.000000
      0.000559      -0.000095       0.000000
      0.000554      -0.000095       0.000000
      0.000554      -0.000102       0.000000
      0.000559      -0.000095       0.000000
      0.000561      -0.000087       0.000000
      0.000555      -0.000087       0.000000
      0.000554      -0.000095       0.000000
      0.000565      -0.000086       0.000000
      0.000566      -0.000082       0.000000
      0.000564      -0.000082       0.000000
      0.000563      -0.000087       0.000000
      0.000566      -0.000082       0.000000
      0.000567      -0.000077       0.000000
      0.000565      -0.000077       0.000000
      0.000564      -0.000082       0.000000
      0.000563      -0.000087       0.000000
      0.000564      -0.000082       0.000000
      0.000562      -0.000083       0.000000
      0.000561      -0.000087       0.000000
      0.000564      -0.000082       0.000000
      0.000565      -0.000077       0.000000
      0.000563      -0.000079       0.000000
      0.000562      -0.000083       0.000000
      0.000567      -0.000077       0.000000
      0.000569      -0.000071       0.000000
      0.000568      -0.000072       0.000000
      0.000565      -0.000077       0.000000
      0.000569      -0.000071       0.000000
      0.000573      -0.000064       0.000000
      0.000573      -0.000058       0.000000
      0.000568      -0.000072       0.000000
      0.000565      -0.000077       0.000000
      0.000568      -0.000072       0.000000
      0.000566      -0.000074       0.000000
      0.000563      -0.000079       0.000000
      0.000568      -0.000072       0.000000
      0.000573      -0.000058       0.000000
      0.000567      -0.000051       0.000000
      0.000566      -0.000074       0.000000
      0.000561      -0.000087       0.000000
      0.000562      -0.000083       0.000000
      0.000559      -0.000084       0.000000
      0.000558      -0.000087       0.000000
      0.000562      -0.000083       0.000000
      0.000563      -0.000079       0.000000
      0.000561      -0.000081       0.000000
      0.000559      -0.000084       0.000000
      0.000558      -0.000087       0.000000
      0.000559      -0.000084       0.000000
      0.000557      -0.000083       0.000000
      0.000555      -0.000087       0.000000
      0.000559      -0.000084       0.000000
      0.000561      -0.000081       0.000000
      0.000564      -0.000077       0.000000
      0.000557      -0.000083       0.000000
      0.000563      -0.000079       0.000000
      0.000566      -0.000074       0.000000
      0.000564      -0.000081       0.000000
      0.000561      -0.000081       0.000000
      0.000566      -0.000074       0.000000
      0.000567      -0.000051       0.000000
      0.000349       0.000012       0.000000
      0.000564      -0.000081       0.000000
      0.000561      -0.000081       0.000000
      0.000564      -0.000081       0.000000
      0.000627      -0.000062       0.000000
      0.000564      -0.000077       0.000000
      0.000564      -0.000081       0.000000
      0.000349       0.000012       0.000000
      0.009363       0.000925       0.000000
      0.000627      -0.000062       0.000000
      0.000571      -0.000075       0.000000
      0.000573      -0.000069       0.000000
      0.000571      -0.000070       0.000000
      0.000569      -0.000076       0.000000
      0.000573      -0.000069       0.000000
      0.000574      -0.000062       0.000000
      0.000573      -0.000064       0.000000
      0.000571      -0.000070       0.000000
      0.000569      -0.000076       0.000000
      0.000571      -0.000070       0.000000
      0.000569      -0.000071       0.000000
      0.000567      -0.000077       0.000000
      0.000571      -0.000070       0.000000
      0.000573      -0.000064       0.000000
      0.000573      -0.000064       0.000000
      0.000569      -0.000071       0.000000
      0.000588      -0.000086       0.000000
      0.000591      -0.000073       0.000000
      0.000583      -0.000073       0.000000
      0.000580      -0.000086       0.000000
      0.000580      -0.000086       0.000000
      0.000583      -0.000073       0.000000
      0.000576      -0.000074       0.000000
      0.000574      -0.000086       0.000000
      0.000576      -0.000074       0.000000
      0.000577      -0.000067       0.000000
      0.000575      -0.000068       0.000000
      0.000573      -0.000074       0.000000
      0.000577      -0.000067       0.000000
      0.000579      -0.000060       0.000000
      0.000576      -0.000061       0.000000
      0.000575      -0.000068       0.000000
      0.000573      -0.000074       0.000000
      0.000575      -0.000068       0.000000
      0.000573      -0.000069       0.000000
      0.000571      -0.000075       0.000000
      0.000575      -0.000068       0.000000
      0.000576      -0.000061       0.000000
      0.000574      -0.000062       0.000000
      0.000573      -0.000069       0.000000
      0.000569      -0.000086       0.000000
      0.000570      -0.000081       0.000000
      0.000568      -0.000081       0.000000
      0.000567      -0.000086       0.000000
      0.000570      -0.000081       0.000000
      0.000571      -0.000075       0.000000
      0.000569      -0.000076       0.000000
      0.000568      -0.000081       0.000000
      0.000567      -0.000086       0.000000
      0.000568      -0.000081       0.000000
      0.000566      -0.000082       0.000000
      0.000565      -0.000086       0.000000
      0.000568      -0.000081       0.000000
      0.000569      -0.000076       0.000000
      0.000567      -0.000077       0.000000
      0.000566      -0.000082       0.000000
      0.000583      -0.000073       0.000000
      0.000584      -0.000066       0.000000
      0.000580      -0.000067       0.000000
      0.000579      -0.000074       0.000000
      0.000584      -0.000066       0.000000
      0.000585      -0.000058       0.000000
      0.000582      -0.000059       0.000000
      0.000580      -0.000067       0.000000
      0.000579      -0.000074       0.000000
      0.000580      -0.000067       0.000000
      0.000577      -0.000067       0.000000
      0.000576      -0.000074       0.000000
      0.000580      -0.000067       0.000000
      0.000582      -0.000059       0.000000
      0.000579      -0.000060       0.000000
      0.000577      -0.000067       0.000000
      0.000611      -0.000076       0.000000
      0.000662      -0.000063       0.000000
      0.000638      -0.000079       0.000000
      0.000606      -0.000092       0.000000
      0.000662      -0.000063       0.000000
      0.000721      -0.000036       0.000000
      0.000671      -0.000052       0.000000
      0.000638      -0.000079       0.000000
      0.000606      -0.000092       0.000000
      0.000638      -0.000079       0.000000
      0.000610      -0.000085       0.000000
      0.000593      -0.000099       0.000000
      0.000610      -0.000085       0.000000
      0.000618      -0.000073       0.000000
      0.000603      -0.000073       0.000000
      0.000598      -0.000086       0.000000
      0.000618      -0.000073       0.000000
      0.000624      -0.000056       0.000000
      0.000607      -0.000056       0.000000
      0.000603      -0.000073       0.000000
      0.000598      -0.000086       0.000000
      0.000603      -0.000073       0.000000
      0.000591      -0.000073       0.000000
      0.000588      -0.000086       0.000000
      0.000591      -0.000073       0.000000
      0.000593      -0.000066       0.000000
      0.000588      -0.000066       0.000000
      0.000587      -0.000073       0.000000
      0.000593      -0.000066       0.000000
      0.000594      -0.000057       0.000000
      0.000589      -0.000058       0.000000
      0.000588      -0.000066       0.000000
      0.000587      -0.000073       0.000000
      0.000588      -0.000066       0.000000
      0.000584      -0.000066       0.000000
      0.000583      -0.000073       0.000000
      0.000588      -0.000066       0.000000
      0.000589      -0.000058       0.000000
      0.000585      -0.000058       0.000000
      0.000584      -0.000066       0.000000
      0.000603      -0.000073       0.000000
      0.000605      -0.000065       0.000000
      0.000599      -0.000065       0.000000
      0.000597      -0.000073       0.000000
      0.000605      -0.000065       0.000000
      0.000607      -0.000056       0.000000
      0.000600      -0.000057       0.000000
      0.000599      -0.000065       0.000000
      0.000597      -0.000073       0.000000
      0.000599      -0.000065       0.000000
      0.000593      -0.000066       0.000000
      0.000591      -0.000073       0.000000
      0.000599      -0.000065       0.000000
      0.000600      -0.000057       0.000000
      0.000594      -0.000057       0.000000
      0.000593      -0.000066       0.000000
      0.000638      -0.000079       0.000000
      0.000655      -0.000068       0.000000
      0.000635      -0.000071       0.000000
      0.000624      -0.000083       0.000000
      0.000655      -0.000068       0.000000
      0.000671      -0.000052       0.000000
      0.000646      -0.000055       0.000000
      0.000635      -0.000071       0.000000
      0.000624      -0.000083       0.000000
      0.000635      -0.000071       0.000000
      0.000618      -0.000073       0.000000
      0.000610      -0.000085       0.000000
      0.000635      -0.000071       0.000000
      0.000646      -0.000055       0.000000
      0.000624      -0.000056       0.000000
      0.000618      -0.000073       0.000000
      0.000549      -0.000025       0.000000
      0.000621      -0.000006       0.000000
      0.000662      -0.000037       0.000000
      0.000595      -0.000053       0.000000
      0.000621      -0.000006       0.000000
      0.000710       0.000033       0.000000
      0.000744      -0.000004       0.000000
      0.000662      -0.000037       0.000000
      0.000595      -0.000053       0.000000
      0.000662      -0.000037       0.000000
      0.000662      -0.000063       0.000000
      0.000611      -0.000076       0.000000
      0.000662      -0.000037       0.000000
      0.000744      -0.000004       0.000000
      0.000721      -0.000036       0.000000
      0.000662      -0.000063       0.000000
      0.000000       0.000000       0.000000
      0.000000       0.000000       0.000000
      0.000566       0.000167       0.000000
      0.000453       0.000061       0.000000
      0.000000       0.000000       0.000000
      0.000000       0.000000       0.000000
      0.000615       0.000275       0.000000
      0.000566       0.000167       0.000000
      0.000453       0.000061       0.000000
      0.000566       0.000167       0.000000
      0.000959       0.000225       0.000000
      0.000710       0.000033       0.000000
      0.000000       0.000000       0.000000
      0.000000       0.000000       0.000000
      0.000636       0.000222       0.000000
      0.000615       0.000275       0.000000
      0.000000       0.000000       0.000000
      0.000000       0.000000       0.000000
      0.000704       0.000108       0.000000
      0.000636       0.000222       0.000000
      0.000636       0.000222       0.000000
      0.000704       0.000108       0.000000
      0.001679       0.000141       0.000000