# vtk DataFile Version 2.0
time_10.vtk
ASCII
DATASET UNSTRUCTURED_GRID
POINTS  1524 float
      0.000000       0.000000       0.000000
      0.083333       0.000000       0.000000
      0.083333       0.083333       0.000000
      0.000000       0.083333       0.000000
      0.083333       0.000000       0.000000
      0.166667       0.000000       0.000000
      0.166667       0.083333       0.000000
      0.083333       0.083333       0.000000
      0.000000       0.083333       0.000000
      0.083333       0.083333       0.000000
      0.083333       0.166667       0.000000
      0.000000       0.166667       0.000000
      0.083333       0.083333       0.000000
      0.166667       0.083333       0.000000
      0.166667       0.166667       0.000000
      0.083333       0.166667       0.000000
      0.166667       0.000000       0.000000
      0.250000       0.000000       0.000000
      0.250000       0.083333       0.000000
      0.166667       0.083333       0.000000
      0.250000       0.000000       0.000000
      0.333333       0.000000       0.000000
      0.333333       0.083333       0.000000
      0.250000       0.083333       0.000000
      0.166667       0.083333       0.000000
      0.250000       0.083333       0.000000
      0.250000       0.166667       0.000000
      0.166667       0.166667       0.000000
      0.250000       0.083333       0.000000
      0.333333       0.083333       0.000000
      0.333333       0.166667       0.000000
      0.250000       0.166667       0.000000
      0.333333       0.000000       0.000000
      0.416667       0.000000       0.000000
      0.416667       0.083333       0.000000
      0.333333       0.083333       0.000000
      0.416667       0.000000       0.000000
      0.500000       0.000000       0.000000
      0.500000       0.083333       0.000000
      0.416667       0.083333       0.000000
      0.333333       0.083333       0.000000
      0.416667       0.083333       0.000000
      0.416667       0.166667       0.000000
      0.333333       0.166667       0.000000
      0.416667       0.083333       0.000000
      0.500000       0.083333       0.000000
      0.500000       0.166667       0.000000
      0.416667       0.166667       0.000000
      0.000000       0.166667       0.000000
      0.083333       0.166667       0.000000
      0.083333       0.250000       0.000000
      0.000000       0.250000       0.000000
      0.083333       0.166667       0.000000
      0.166667       0.166667       0.000000
      0.166667       0.250000       0.000000
      0.083333       0.250000       0.000000
      0.000000       0.250000       0.000000
      0.083333       0.250000       0.000000
      0.083333       0.333333       0.000000
      0.000000       0.333333       0.000000
      0.083333       0.250000       0.000000
      0.166667       0.250000       0.000000
      0.166667       0.333333       0.000000
      0.083333       0.333333       0.000000
      0.166667       0.166667       0.000000
      0.250000       0.166667       0.000000
      0.250000       0.250000       0.000000
      0.166667       0.250000       0.000000
      0.250000       0.166667       0.000000
      0.333333       0.166667       0.000000
      0.333333       0.250000       0.000000
      0.250000       0.250000       0.000000
      0.166667       0.250000       0.000000
      0.250000       0.250000       0.000000
      0.250000       0.333333       0.000000
      0.166667       0.333333       0.000000
      0.250000       0.250000       0.000000
      0.333333       0.250000       0.000000
      0.333333       0.333333       0.000000
      0.250000       0.333333       0.000000
      0.333333       0.166667       0.000000
      0.416667       0.166667       0.000000
      0.416667       0.250000       0.000000
      0.333333       0.250000       0.000000
      0.416667       0.166667       0.000000
      0.500000       0.166667       0.000000
      0.500000       0.250000       0.000000
      0.416667       0.250000       0.000000
      0.333333       0.250000       0.000000
      0.416667       0.250000       0.000000
      0.416667       0.333333       0.000000
      0.333333       0.333333       0.000000
      0.000000       0.333333       0.000000
      0.083333       0.333333       0.000000
      0.083333       0.416667       0.000000
      0.000000       0.416667       0.000000
      0.083333       0.333333       0.000000
      0.166667       0.333333       0.000000
      0.166667       0.416667       0.000000
      0.083333       0.416667       0.000000
      0.000000       0.416667       0.000000
      0.083333       0.416667       0.000000
      0.083333       0.500000       0.000000
      0.000000       0.500000       0.000000
      0.083333       0.416667       0.000000
      0.166667       0.416667       0.000000
      0.166667       0.500000       0.000000
      0.083333       0.500000       0.000000
      0.166667       0.333333       0.000000
      0.250000       0.333333       0.000000
      0.250000       0.416667       0.000000
      0.166667       0.416667       0.000000
      0.250000       0.333333       0.000000
      0.333333       0.333333       0.000000
      0.333333       0.416667       0.000000
      0.250000       0.416667       0.000000
      0.166667       0.416667       0.000000
      0.250000       0.416667       0.000000
      0.250000       0.500000       0.000000
      0.166667       0.500000       0.000000
      0.250000       0.416667       0.000000
      0.333333       0.416667       0.000000
      0.333333       0.500000       0.000000
      0.250000       0.500000       0.000000
      0.333333       0.333333       0.000000
      0.375000       0.333333       0.000000
      0.375000       0.375000       0.000000
      0.333333       0.375000       0.000000
      0.375000       0.333333       0.000000
      0.416667       0.333333       0.000000
      0.416667       0.375000       0.000000
      0.375000       0.375000       0.000000
      0.333333       0.375000       0.000000
      0.375000       0.375000       0.000000
      0.375000       0.416667       0.000000
      0.333333       0.416667       0.000000
      0.375000       0.375000       0.000000
      0.416667       0.375000       0.000000
      0.416667       0.416667       0.000000
      0.375000       0.416667       0.000000
      0.416667       0.333333       0.000000
      0.458333       0.333333       0.000000
      0.458333       0.375000       0.000000
      0.416667       0.375000       0.000000
      0.416667       0.375000       0.000000
      0.458333       0.375000       0.000000
      0.458333       0.416667       0.000000
      0.416667       0.416667       0.000000
      0.333333       0.416667       0.000000
      0.375000       0.416667       0.000000
      0.375000       0.458333       0.000000
      0.333333       0.458333       0.000000
      0.375000       0.416667       0.000000
      0.416667       0.416667       0.000000
      0.416667       0.458333       0.000000
      0.375000       0.458333       0.000000
      0.333333       0.458333       0.000000
      0.375000       0.458333       0.000000
      0.375000       0.500000       0.000000
      0.333333       0.500000       0.000000
      0.375000       0.458333       0.000000
      0.416667       0.458333       0.000000
      0.416667       0.500000       0.000000
      0.375000       0.500000       0.000000
      0.416667       0.416667       0.000000
      0.437500       0.416667       0.000000
      0.437500       0.437500       0.000000
      0.416667       0.437500       0.000000
      0.437500       0.416667       0.000000
      0.458333       0.416667       0.000000
      0.458333       0.437500       0.000000
      0.437500       0.437500       0.000000
      0.416667       0.437500       0.000000
      0.437500       0.437500       0.000000
      0.437500       0.458333       0.000000
      0.416667       0.458333       0.000000
      0.437500       0.437500       0.000000
      0.458333       0.437500       0.000000
      0.458333       0.458333       0.000000
      0.437500       0.458333       0.000000
      0.458333       0.416667       0.000000
      0.479167       0.416667       0.000000
      0.479167       0.437500       0.000000
      0.458333       0.437500       0.000000
      0.458333       0.437500       0.000000
      0.479167       0.437500       0.000000
      0.479167       0.458333       0.000000
      0.458333       0.458333       0.000000
      0.416667       0.458333       0.000000
      0.437500       0.458333       0.000000
      0.437500       0.479167       0.000000
      0.416667       0.479167       0.000000
      0.437500       0.458333       0.000000
      0.458333       0.458333       0.000000
      0.458333       0.479167       0.000000
      0.437500       0.479167       0.000000
      0.416667       0.479167       0.000000
      0.437500       0.479167       0.000000
      0.437500       0.500000       0.000000
      0.416667       0.500000       0.000000
      0.437500       0.479167       0.000000
      0.458333       0.479167       0.000000
      0.458333       0.500000       0.000000
      0.437500       0.500000       0.000000
      0.458333       0.458333       0.000000
      0.468750       0.458333       0.000000
      0.468750       0.468750       0.000000
      0.458333       0.468750       0.000000
      0.468750       0.458333       0.000000
      0.479167       0.458333       0.000000
      0.479167       0.468750       0.000000
      0.468750       0.468750       0.000000
      0.458333       0.468750       0.000000
      0.468750       0.468750       0.000000
      0.468750       0.479167       0.000000
      0.458333       0.479167       0.000000
      0.468750       0.468750       0.000000
      0.479167       0.468750       0.000000
      0.479167       0.479167       0.000000
      0.468750       0.479167       0.000000
[...]
POINT_DATA  1524
VECTORS U float 
      0.000000       0.000000       0.000000
      0.000000       0.000000       0.000000
      0.000399       0.000006       0.000000
      0.000390       0.000000       0.000000
      0.000000       0.000000       0.000000
      0.000000       0.000000       0.000000
      0.000424       0.000016       0.000000
      0.000399       0.000006       0.000000
      0.000390       0.000000       0.000000
      0.000399       0.000006       0.000000
      0.000734       0.000002       0.000000
      0.000720       0.000000       0.000000
      0.000399       0.000006       0.000000
      0.000424       0.000016       0.000000
      0.000776       0.000011       0.000000
      0.000734       0.000002       0.000000
      0.000000       0.000000       0.000000
      0.000000       0.000000       0.000000
      0.000463       0.000034       0.000000
      0.000424       0.000016       0.000000
      0.000000       0.000000       0.000000
      0.000000       0.000000       0.000000
      0.000510       0.000064       0.000000
      0.000463       0.000034       0.000000
      0.000424       0.000016       0.000000
      0.000463       0.000034       0.000000
      0.000845       0.000037       0.000000
      0.000776       0.000011       0.000000
      0.000463       0.000034       0.000000
      0.000510       0.000064       0.000000
      0.000937       0.000090       0.000000
      0.000845       0.000037       0.000000
      0.000000       0.000000       0.000000
      0.000000       0.000000       0.000000
      0.000553       0.000108       0.000000
      0.000510       0.000064       0.000000
      0.000000       0.000000       0.000000
      0.000000       0.000000       0.000000
      0.000574       0.000154       0.000000
      0.000553       0.000108       0.000000
      0.000510       0.000064       0.000000
      0.000553       0.000108       0.000000
      0.001038       0.000183       0.000000
      0.000937       0.000090       0.000000
      0.000553       0.000108       0.000000
      0.000574       0.000154       0.000000
      0.001118       0.000297       0.000000
      0.001038       0.000183       0.000000
      0.000720       0.000000       0.000000
      0.000734       0.000002       0.000000
      0.000992      -0.000009       0.000000
      0.000975       0.000000       0.000000
      0.000734       0.000002       0.000000
      0.000776       0.000011       0.000000
      0.001041      -0.000011       0.000000
      0.000992      -0.000009       0.000000
      0.000975       0.000000       0.000000
      0.000992      -0.000009       0.000000
      0.001168      -0.000024       0.000000
      0.001153       0.000000       0.000000
      0.000992      -0.000009       0.000000
      0.001041      -0.000011       0.000000
      0.001214      -0.000040       0.000000
      0.001168      -0.000024       0.000000
      0.000776       0.000011       0.000000
      0.000845       0.000037       0.000000
      0.001128       0.000009       0.000000
      0.001041      -0.000011       0.000000
      0.000845       0.000037       0.000000
      0.000937       0.000090       0.000000
      0.001256       0.000067       0.000000
      0.001128       0.000009       0.000000
      0.001041      -0.000011       0.000000
      0.001128       0.000009       0.000000
      0.001295      -0.000038       0.000000
      0.001214      -0.000040       0.000000
      0.001128       0.000009       0.000000
      0.001256       0.000067       0.000000
      0.001424       0.000002       0.000000
      0.001295      -0.000038       0.000000
      0.000937       0.000090       0.000000
      0.001038       0.000183       0.000000
      0.001430       0.000194       0.000000
      0.001256       0.000067       0.000000
      0.001038       0.000183       0.000000
      0.001118       0.000297       0.000000
      0.001624       0.000404       0.000000
      0.001430       0.000194       0.000000
      0.001256       0.000067       0.000000
      0.001430       0.000194       0.000000
      0.001624       0.000115       0.000000
      0.001424       0.000002       0.000000
      0.001153       0.000000       0.000000
      0.001168      -0.000024       0.000000
      0.001274      -0.000036       0.000000
      0.001264       0.000000       0.000000
      0.001168      -0.000024       0.000000
      0.001214      -0.000040       0.000000
      0.001306      -0.000066       0.000000
      0.001274      -0.000036       0.000000
      0.001264       0.000000       0.000000
      0.001274      -0.000036       0.000000
      0.001332      -0.000043       0.000000
      0.001326       0.000000       0.000000
      0.001274      -0.000036       0.000000
      0.001306      -0.000066       0.000000
      0.001348      -0.000080       0.000000
      0.001332      -0.000043       0.000000
      0.001214      -0.000040       0.000000
      0.001295      -0.000038       0.000000
      0.001359      -0.000079       0.000000
      0.001306      -0.000066       0.000000
      0.001295      -0.000038       0.000000
      0.001424       0.000002       0.000000
      0.001437      -0.000059       0.000000
      0.001359      -0.000079       0.000000
      0.001306      -0.000066       0.000000
      0.001359      -0.000079       0.000000
      0.001369      -0.000099       0.000000
      0.001348      -0.000080       0.000000
      0.001359      -0.000079       0.000000
      0.001437      -0.000059       0.000000
      0.001385      -0.000082       0.000000
      0.001369      -0.000099       0.000000
      0.001424       0.000002       0.000000
      0.001512       0.000046       0.000000
      0.001519       0.000004       0.000000
      0.001446      -0.000032       0.000000
      0.001512       0.000046       0.000000
      0.001624       0.000115       0.000000
      0.001610       0.000062       0.000000
      0.001519       0.000004       0.000000
      0.001446      -0.000032       0.000000
      0.001519       0.000004       0.000000
      0.001486      -0.000027       0.000000
      0.001437      -0.000059       0.000000
      0.001519       0.000004       0.000000
      0.001610       0.000062       0.000000
      0.001541       0.000027       0.000000
      0.001486      -0.000027       0.000000
      0.001624       0.000115       0.000000
      0.001770       0.000222       0.000000
      0.001726       0.000153       0.000000
      0.001610       0.000062       0.000000
      0.001610       0.000062       0.000000
      0.001726       0.000153       0.000000
      0.001598       0.000113       0.000000
      0.001541       0.000027       0.000000
      0.001437      -0.000059       0.000000
      0.001486      -0.000027       0.000000
      0.001435      -0.000044       0.000000
      0.001412      -0.000076       0.000000
      0.001486      -0.000027       0.000000
      0.001541       0.000027       0.000000
      0.001457       0.000013       0.000000
      0.001435      -0.000044       0.000000
      0.001412      -0.000076       0.000000
      0.001435      -0.000044       0.000000
      0.001385      -0.000048       0.000000
      0.001385      -0.000082       0.000000
      0.001435      -0.000044       0.000000
      0.001457       0.000013       0.000000
      0.001380       0.000011       0.000000
      0.001385      -0.000048       0.000000
      0.001541       0.000027       0.000000
      0.001569       0.000065       0.000000
      0.001516       0.000057       0.000000
      0.001499       0.000018       0.000000
      0.001569       0.000065       0.000000
      0.001598       0.000113       0.000000
      0.001532       0.000106       0.000000
      0.001516       0.000057       0.000000
      0.001499       0.000018       0.000000
      0.001516       0.000057       0.000000
      0.001466       0.000054       0.000000
      0.001457       0.000013       0.000000
      0.001516       0.000057       0.000000
      0.001532       0.000106       0.000000
      0.001474       0.000104       0.000000
      0.001466       0.000054       0.000000
      0.001598       0.000113       0.000000
      0.001626       0.000174       0.000000
      0.001546       0.000168       0.000000
      0.001532       0.000106       0.000000
      0.001532       0.000106       0.000000
      0.001546       0.000168       0.000000
      0.001481       0.000165       0.000000
      0.001474       0.000104       0.000000
      0.001457       0.000013       0.000000
      0.001466       0.000054       0.000000
      0.001421       0.000053       0.000000
      0.001418       0.000011       0.000000
      0.001466       0.000054       0.000000
      0.001474       0.000104       0.000000
      0.001423       0.000103       0.000000
      0.001421       0.000053       0.000000
      0.001418       0.000011       0.000000
      0.001421       0.000053       0.000000
      0.001376       0.000053       0.000000
      0.001380       0.000011       0.000000
      0.001421       0.000053       0.000000
      0.001423       0.000103       0.000000
      0.001374       0.000103       0.000000
      0.001376       0.000053       0.000000
      0.001474       0.000104       0.000000
      0.001478       0.000133       0.000000
      0.001450       0.000132       0.000000
      0.001448       0.000104       0.000000
      0.001478       0.000133       0.000000
      0.001481       0.000165       0.000000
      0.001453       0.000163       0.000000
      0.001450       0.000132       0.000000
      0.001448       0.000104       0.000000
      0.001450       0.000132       0.000000
      0.001425       0.000131       0.000000
      0.001423       0.000103       0.000000
      0.001450       0.000132       0.000000
      0.001453       0.000163       0.000000
      0.001427       0.000161       0.000000
      0.001425       0.000131       0.000000
      0.001481       0.000165       0.000000
      0.001485       0.000200       0.000000
      0.001458       0.000197       0.000000
      0.001453       0.000163       0.000000
      0.001485       0.000200       0.000000
      0.001492       0.000239       0.000000
      0.001467       0.000241       0.000000
      0.001458       0.000197       0.000000
      0.001453       0.000163       0.000000
      0.001458       0.000197       0.000000
      0.001432       0.000193       0.000000
      0.001427       0.000161       0.000000
      0.001458       0.000197       0.000000
      0.001467       0.000241       0.000000
      0.001429       0.000242       0.000000
      0.001432       0.000193       0.000000
      0.001423       0.000103       0.000000
      0.001425       0.000131       0.000000
      0.001400       0.000131       0.000000
      0.001399       0.000103       0.000000
      0.001425       0.000131       0.000000
      0.001427       0.000161       0.000000
      0.001402       0.000159       0.000000
      0.001400       0.000131       0.000000
      0.001399       0.000103       0.000000
      0.001400       0.000131       0.000000
      0.001375       0.000131       0.000000
      0.001374       0.000103       0.000000
      0.001400       0.000131       0.000000
      0.001402       0.000159       0.000000
      0.001380       0.000161       0.000000
      0.001375       0.000131       0.000000
      0.001427       0.000161       0.000000
      0.001432       0.000193       0.000000
      0.001406       0.000184       0.000000
      0.001402       0.000159       0.000000
      0.001432       0.000193       0.000000
      0.001429       0.000242       0.000000
      0.001141       0.000189       0.000000
      0.001406       0.000184       0.000000
      0.001402       0.000159       0.000000
      0.001406       0.000184       0.000000
      0.001427       0.000199       0.000000
      0.001380       0.000161       0.000000
      0.001406       0.000184       0.000000
      0.001141       0.000189       0.000000
      0.007833       0.000730       0.000000
      0.001427       0.000199       0.000000
      0.001546       0.000168       0.000000
      0.001553       0.000205       0.000000
      0.001517       0.000202       0.000000
      0.001512       0.000166       0.000000
      0.001553       0.000205       0.000000
      0.001560       0.000247       0.000000
      0.001524       0.000244       0.000000
      0.001517       0.000202       0.000000
      0.001512       0.000166       0.000000
      0.001517       0.000202       0.000000
      0.001485       0.000200       0.000000
      0.001481       0.000165       0.000000
      0.001517       0.000202       0.000000
      0.001524       0.000244       0.000000
      0.001492       0.000239       0.000000
      0.001485       0.000200       0.000000
      0.001726       0.000153       0.000000
      0.001801       0.000217       0.000000
      0.001717       0.000188       0.000000
      0.001667       0.000128       0.000000
      0.001801       0.000217       0.000000
      0.001896       0.000302       0.000000
      0.001776       0.000267       0.000000
      0.001717       0.000188       0.000000
      0.001667       0.000128       0.000000
      0.001717       0.000188       0.000000
      0.001626       0.000174       0.000000
      0.001598       0.000113       0.000000
      0.001626       0.000174       0.000000
      0.001640       0.000210       0.000000
      0.001594       0.000207       0.000000
      0.001584       0.000170       0.000000
      0.001640       0.000210       0.000000
      0.001654       0.000253       0.000000
      0.001603       0.000250       0.000000
      0.001594       0.000207       0.000000
      0.001584       0.000170       0.000000
      0.001594       0.000207       0.000000
      0.001553       0.000205       0.000000
      0.001546       0.000168       0.000000
      0.001594       0.000207       0.000000
      0.001603       0.000250       0.000000
      0.001560       0.000247       0.000000
      0.001553       0.000205       0.000000
      0.001717       0.000188       0.000000
      0.001746       0.000225       0.000000
      0.001692       0.000216       0.000000
      0.001671       0.000179       0.000000
      0.001746       0.000225       0.000000
      0.001776       0.000267       0.000000
      0.001713       0.000258       0.000000
      0.001692       0.000216       0.000000
      0.001671       0.000179       0.000000
      0.001692       0.000216       0.000000
      0.001640       0.000210       0.000000
      0.001626       0.000174       0.000000
      0.001692       0.000216       0.000000
      0.001713       0.000258       0.000000
      0.001654       0.000253       0.000000
      0.001640       0.000210       0.000000
      0.001430       0.000194       0.000000
      0.001529       0.000291       0.000000
      0.001692       0.000275       0.000000
      0.001561       0.000164       0.000000
      0.001529       0.000291       0.000000
      0.001624       0.000404       0.000000
      0.001838       0.000424       0.000000
      0.001692       0.000275       0.000000
      0.001561       0.000164       0.000000
      0.001692       0.000275       0.000000
      0.001770       0.000222       0.000000
      0.001624       0.000115       0.000000
      0.001692       0.000275       0.000000
      0.001838       0.000424       0.000000
      0.001967       0.000393       0.000000
      0.001770       0.000222       0.000000
      0.001770       0.000222       0.000000
      0.001861       0.000297       0.000000
      0.001853       0.000257       0.000000
      0.001763       0.000186       0.000000
      0.001861       0.000297       0.000000
      0.001967       0.000393       0.000000
      0.001964       0.000351       0.000000
      0.001853       0.000257       0.000000
      0.001763       0.000186       0.000000
      0.001853       0.000257       0.000000
      0.001801       0.000217       0.000000
      0.001726       0.000153       0.000000
      0.001853       0.000257       0.000000
      0.001964       0.000351       0.000000
      0.001896       0.000302       0.000000
      0.001801       0.000217       0.000000
      0.000000       0.000000       0.000000
      0.000000       0.000000       0.000000
      0.000573       0.000173       0.000000
      0.000574       0.000154       0.000000
      0.000000       0.000000       0.000000
      0.000000       0.000000       0.000000
      0.000571       0.000147       0.000000
      0.000573       0.000173       0.000000
      0.000574       0.000154       0.000000
      0.000573       0.000173       0.000000
      0.001157       0.000348       0.000000
      0.001118       0.000297       0.000000
      0.000573       0.000173       0.000000
      0.000571       0.000147       0.000000
      0.001199       0.000279       0.000000
      0.001157       0.000348       0.000000
      0.000000       0.000000       0.000000
      0.000000       0.000000       0.000000
      0.000589       0.000098       0.000000
      0.000571       0.000147       0.000000
      0.000000       0.000000       0.000000
      0.000000       0.000000       0.000000
      0.000619       0.000054       0.000000
      0.000589       0.000098       0.000000
      0.000571       0.000147       0.000000
      0.000589       0.000098       0.000000
      0.001272       0.000166       0.000000
      0.001199       0.000279       0.000000
      0.000589       0.000098       0.000000
      0.000619       0.000054       0.000000
      0.001350       0.000080       0.000000
      0.001272       0.000166       0.000000
      0.000000       0.000000       0.000000
      0.000000       0.000000       0.000000
      0.000645       0.000023       0.000000
      0.000619       0.000054       0.000000
      0.000000       0.000000       0.000000
      0.000000       0.000000       0.000000
      0.000655       0.000000       0.000000
      0.000645       0.000023       0.000000
      0.000619       0.000054       0.000000
      0.000645       0.000023       0.000000
      0.001405       0.000030       0.000000
      0.001350       0.000080       0.000000
      0.000645       0.000023       0.000000
      0.000655       0.000000       0.000000
      0.001425       0.000000       0.000000
      0.001405       0.000030       0.000000
      0.001118       0.000297       0.000000
      0.001157       0.000348       0.000000
      0.001761       0.000524       0.000000
      0.001624       0.000404       0.000000
      0.001157       0.000348       0.000000
      0.001199       0.000279       0.000000
      0.001911       0.000363       0.000000
      0.001761       0.000524       0.000000
      0.001199       0.000279       0.000000
      0.001272       0.000166       0.000000
      0.002092       0.000176       0.000000
      0.001911       0.000363       0.000000
      0.001272       0.000166       0.000000
      0.001350       0.000080       0.000000
      0.002233       0.000068       0.000000
      0.002092       0.000176       0.000000
      0.001911       0.000363       0.000000
      0.002092       0.000176       0.000000
      0.003174       0.000110       0.000000
      0.002891       0.000324       0.000000
      0.002092       0.000176       0.000000
      0.002233       0.000068       0.000000
      0.003328       0.000023       0.000000
      0.003174       0.000110       0.000000
      0.001350       0.000080       0.000000
      0.001405       0.000030       0.000000
      0.002316       0.000020       0.000000
      0.002233       0.000068       0.000000
      0.001405       0.000030       0.000000
      0.001425       0.000000       0.000000
      0.002343       0.000000       0.000000
      0.002316       0.000020       0.000000
      0.002233       0.000068       0.000000
      0.002316       0.000020       0.000000
      0.003405      -0.000002       0.000000