# vtk DataFile Version 2.0
time_10.vtk
ASCII
DATASET UNSTRUCTURED_GRID
POINTS  1464 float
      0.000000       0.000000       0.000000
      0.083333       0.000000       0.000000
      0.083333       0.083333       0.000000
      0.000000       0.083333       0.000000
      0.083333       0.000000       0.000000
      0.166667       0.000000       0.000000
      0.166667       0.083333       0.000000
      0.083333       0.083333       0.000000
      0.000000       0.083333       0.000000
      0.083333       0.083333       0.000000
      0.083333       0.166667       0.000000
      0.000000       0.166667       0.000000
      0.083333       0.083333       0.000000
      0.166667       0.083333       0.000000
      0.166667       0.166667       0.000000
      0.083333       0.166667       0.000000
      0.166667       0.000000       0.000000
      0.250000       0.000000       0.000000
      0.250000       0.083333       0.000000
      0.166667       0.083333       0.000000
      0.250000       0.000000       0.000000
      0.333333       0.000000       0.000000
      0.333333       0.083333       0.000000
      0.250000       0.083333       0.000000
      0.166667       0.083333       0.000000
      0.250000       0.083333       0.000000
      0.250000       0.166667       0.000000
      0.166667       0.166667       0.000000
      0.250000       0.083333       0.000000
      0.333333       0.083333       0.000000
      0.333333       0.166667       0.000000
      0.250000       0.166667       0.000000
      0.333333       0.000000       0.000000
      0.416667       0.000000       0.000000
      0.416667       0.083333       0.000000
      0.333333       0.083333       0.000000
      0.416667       0.000000       0.000000
      0.500000       0.000000       0.000000
      0.500000       0.083333       0.000000
      0.416667       0.083333       0.000000
      0.333333       0.083333       0.000000
      0.416667       0.083333       0.000000
      0.416667       0.166667       0.000000
      0.333333       0.166667       0.000000
      0.416667       0.083333       0.000000
      0.500000       0.083333       0.000000
      0.500000       0.166667       0.000000
      0.416667       0.166667       0.000000
      0.000000       0.166667       0.000000
      0.083333       0.166667       0.000000
      0.083333       0.250000       0.000000
      0.000000       0.250000       0.000000
      0.083333       0.166667       0.000000
      0.166667       0.166667       0.000000
      0.166667       0.250000       0.000000
      0.083333       0.250000       0.000000
      0.000000       0.250000       0.000000
      0.083333       0.250000       0.000000
      0.083333       0.333333       0.000000
      0.000000       0.333333       0.000000
      0.083333       0.250000       0.000000
      0.166667       0.250000       0.000000
      0.166667       0.333333       0.000000
      0.083333       0.333333       0.000000
      0.166667       0.166667       0.000000
      0.250000       0.166667       0.000000
      0.250000       0.250000       0.000000
      0.166667       0.250000       0.000000
      0.250000       0.166667       0.000000
      0.333333       0.166667       0.000000
      0.333333       0.250000       0.000000
      0.250000       0.250000       0.000000
      0.166667       0.250000       0.000000
      0.250000       0.250000       0.000000
      0.250000       0.333333       0.000000
      0.166667       0.333333       0.000000
      0.250000       0.250000       0.000000
      0.333333       0.250000       0.000000
      0.333333       0.333333       0.000000
      0.250000       0.333333       0.000000
      0.333333       0.166667       0.000000
      0.416667       0.166667       0.000000
      0.416667       0.250000       0.000000
      0.333333       0.250000       0.000000
      0.416667       0.166667       0.000000
      0.500000       0.166667       0.000000
      0.500000       0.250000       0.000000
      0.416667       0.250000       0.000000
      0.333333       0.250000       0.000000
      0.416667       0.250000       0.000000
      0.416667       0.333333       0.000000
      0.333333       0.333333       0.000000
      0.000000       0.333333       0.000000
      0.083333       0.333333       0.000000
      0.083333       0.416667       0.000000
      0.000000       0.416667       0.000000
      0.083333       0.333333       0.000000
      0.166667       0.333333       0.000000
      0.166667       0.416667       0.000000
      0.083333       0.416667       0.000000
      0.000000       0.416667       0.000000
      0.083333       0.416667       0.000000
      0.083333       0.500000       0.000000
      0.000000       0.500000       0.000000
      0.083333       0.416667       0.000000
      0.166667       0.416667       0.000000
      0.166667       0.500000       0.000000
      0.083333       0.500000       0.000000
      0.166667       0.333333       0.000000
      0.250000       0.333333       0.000000
      0.250000       0.416667       0.000000
      0.166667       0.416667       0.000000
      0.250000       0.333333       0.000000
      0.333333       0.333333       0.000000
      0.333333       0.416667       0.000000
      0.250000       0.416667       0.000000
      0.166667       0.416667       0.000000
      0.250000       0.416667       0.000000
      0.250000       0.500000       0.000000
      0.166667       0.500000       0.000000
      0.250000       0.416667       0.000000
      0.333333       0.416667       0.000000
      0.333333       0.500000       0.000000
      0.250000       0.500000       0.000000
      0.333333       0.333333       0.000000
      0.375000       0.333333       0.000000
      0.375000       0.375000       0.000000
      0.333333       0.375000       0.000000
      0.375000       0.333333       0.000000
      0.416667       0.333333       0.000000
      0.416667       0.375000       0.000000
      0.375000       0.375000       0.000000
      0.333333       0.375000       0.000000
      0.375000       0.375000       0.000000
      0.375000       0.416667       0.000000
      0.333333       0.416667       0.000000
      0.375000       0.375000       0.000000
      0.416667       0.375000       0.000000
      0.416667       0.416667       0.000000
      0.375000       0.416667       0.000000
      0.416667       0.333333       0.000000
      0.458333       0.333333       0.000000
      0.458333       0.375000       0.000000
      0.416667       0.375000       0.000000
      0.416667       0.375000       0.000000
      0.458333       0.375000       0.000000
      0.458333       0.416667       0.000000
      0.416667       0.416667       0.000000
      0.333333       0.416667       0.000000
      0.375000       0.416667       0.000000
      0.375000       0.458333       0.000000
      0.333333       0.458333       0.000000
      0.375000       0.416667       0.000000
      0.416667       0.416667       0.000000
      0.416667       0.458333       0.000000
      0.375000       0.458333       0.000000
      0.333333       0.458333       0.000000
      0.375000       0.458333       0.000000
      0.375000       0.500000       0.000000
      0.333333       0.500000       0.000000
      0.375000       0.458333       0.000000
      0.416667       0.458333       0.000000
      0.416667       0.500000       0.000000
      0.375000       0.500000       0.000000
      0.416667       0.416667       0.000000
      0.437500       0.416667       0.000000
      0.437500       0.437500       0.000000
      0.416667       0.437500       0.000000
      0.437500       0.416667       0.000000
      0.458333       0.416667       0.000000
      0.458333       0.437500       0.000000
      0.437500       0.437500       0.000000
      0.416667       0.437500       0.000000
      0.437500       0.437500       0.000000
      0.437500       0.458333       0.000000
      0.416667       0.458333       0.000000
      0.437500       0.437500       0.000000
      0.458333       0.437500       0.000000
      0.458333       0.458333       0.000000
      0.437500       0.458333       0.000000
      0.458333       0.416667       0.000000
      0.479167       0.416667       0.000000
      0.479167       0.437500       0.000000
      0.458333       0.437500       0.000000
      0.458333       0.437500       0.000000
      0.479167       0.437500       0.000000
      0.479167       0.458333       0.000000
      0.458333       0.458333       0.000000
      0.416667       0.458333       0.000000
      0.437500       0.458333       0.000000
      0.437500       0.479167       0.000000
      0.416667       0.479167       0.000000
      0.437500       0.458333       0.000000
      0.458333       0.458333       0.000000
      0.458333       0.479167       0.000000
      0.437500       0.479167       0.000000
      0.416667       0.479167       0.000000
      0.437500       0.479167       0.000000
      0.437500       0.500000       0.000000
      0.416667       0.500000       0.000000
      0.437500       0.479167       0.000000
      0.458333       0.479167       0.000000
      0.458333       0.500000       0.000000
      0.437500       0.500000       0.000000
      0.458333       0.458333       0.000000
      0.468750       0.458333       0.000000
      0.468750       0.468750       0.000000
      0.458333       0.468750       0.000000
      0.468750       0.458333       0.000000
      0.479167       0.458333       0.000000
      0.479167       0.468750       0.000000
      0.468750       0.468750       0.000000
      0.458333       0.468750       0.000000
      0.468750       0.468750       0.000000
      0.468750       0.479167       0.000000
      0.458333       0.479167       0.000000
      0.468750       0.468750       0.000000
      0.479167       0.468750       0.000000
      0.479167       0.479167       0.000000
      0.468750       0.479167       0.000000
[...]
POINT_DATA  1464
VECTORS U float 
      0.000000       0.000000       0.000000
      0.000000       0.000000       0.000000
      0.000418       0.000008       0.000000
      0.000410       0.000000       0.000000
      0.000000       0.000000       0.000000
      0.000000       0.000000       0.000000
      0.000442       0.000019       0.000000
      0.000418       0.000008       0.000000
      0.000410       0.000000       0.000000
      0.000418       0.000008       0.000000
      0.000772       0.000006       0.000000
      0.000759       0.000000       0.000000
      0.000418       0.000008       0.000000
      0.000442       0.000019       0.000000
      0.000813       0.000018       0.000000
      0.000772       0.000006       0.000000
      0.000000       0.000000       0.000000
      0.000000       0.000000       0.000000
      0.000479       0.000039       0.000000
      0.000442       0.000019       0.000000
      0.000000       0.000000       0.000000
      0.000000       0.000000       0.000000
      0.000521       0.000069       0.000000
      0.000479       0.000039       0.000000
      0.000442       0.000019       0.000000
      0.000479       0.000039       0.000000
      0.000879       0.000047       0.000000
      0.000813       0.000018       0.000000
      0.000479       0.000039       0.000000
      0.000521       0.000069       0.000000
      0.000965       0.000103       0.000000
      0.000879       0.000047       0.000000
      0.000000       0.000000       0.000000
      0.000000       0.000000       0.000000
      0.000557       0.000111       0.000000
      0.000521       0.000069       0.000000
      0.000000       0.000000       0.000000
      0.000000       0.000000       0.000000
      0.000573       0.000151       0.000000
      0.000557       0.000111       0.000000
      0.000521       0.000069       0.000000
      0.000557       0.000111       0.000000
      0.001055       0.000194       0.000000
      0.000965       0.000103       0.000000
      0.000557       0.000111       0.000000
      0.000573       0.000151       0.000000
      0.001122       0.000294       0.000000
      0.001055       0.000194       0.000000
      0.000759       0.000000       0.000000
      0.000772       0.000006       0.000000
      0.001046      -0.000005       0.000000
      0.001030       0.000000       0.000000
      0.000772       0.000006       0.000000
      0.000813       0.000018       0.000000
      0.001096      -0.000001       0.000000
      0.001046      -0.000005       0.000000
      0.001030       0.000000       0.000000
      0.001046      -0.000005       0.000000
      0.001236      -0.000019       0.000000
      0.001220       0.000000       0.000000
      0.001046      -0.000005       0.000000
      0.001096      -0.000001       0.000000
      0.001284      -0.000030       0.000000
      0.001236      -0.000019       0.000000
      0.000813       0.000018       0.000000
      0.000879       0.000047       0.000000
      0.001183       0.000024       0.000000
      0.001096      -0.000001       0.000000
      0.000879       0.000047       0.000000
      0.000965       0.000103       0.000000
      0.001309       0.000089       0.000000
      0.001183       0.000024       0.000000
      0.001096      -0.000001       0.000000
      0.001183       0.000024       0.000000
      0.001370      -0.000021       0.000000
      0.001284      -0.000030       0.000000
      0.001183       0.000024       0.000000
      0.001309       0.000089       0.000000
      0.001507       0.000027       0.000000
      0.001370      -0.000021       0.000000
      0.000965       0.000103       0.000000
      0.001055       0.000194       0.000000
      0.001475       0.000219       0.000000
      0.001309       0.000089       0.000000
      0.001055       0.000194       0.000000
      0.001122       0.000294       0.000000
      0.001645       0.000412       0.000000
      0.001475       0.000219       0.000000
      0.001309       0.000089       0.000000
      0.001475       0.000219       0.000000
      0.001720       0.000152       0.000000
      0.001507       0.000027       0.000000
      0.001220       0.000000       0.000000
      0.001236      -0.000019       0.000000
      0.001350      -0.000032       0.000000
      0.001338       0.000000       0.000000
      0.001236      -0.000019       0.000000
      0.001284      -0.000030       0.000000
      0.001386      -0.000057       0.000000
      0.001350      -0.000032       0.000000
      0.001338       0.000000       0.000000
      0.001350      -0.000032       0.000000
      0.001408      -0.000040       0.000000
      0.001401       0.000000       0.000000
      0.001350      -0.000032       0.000000
      0.001386      -0.000057       0.000000
      0.001430      -0.000074       0.000000
      0.001408      -0.000040       0.000000
      0.001284      -0.000030       0.000000
      0.001370      -0.000021       0.000000
      0.001447      -0.000066       0.000000
      0.001386      -0.000057       0.000000
      0.001370      -0.000021       0.000000
      0.001507       0.000027       0.000000
      0.001538      -0.000042       0.000000
      0.001447      -0.000066       0.000000
      0.001386      -0.000057       0.000000
      0.001447      -0.000066       0.000000
      0.001460      -0.000090       0.000000
      0.001430      -0.000074       0.000000
      0.001447      -0.000066       0.000000
      0.001538      -0.000042       0.000000
      0.001487      -0.000071       0.000000
      0.001460      -0.000090       0.000000
      0.001507       0.000027       0.000000
      0.001601       0.000076       0.000000
      0.001623       0.000030       0.000000
      0.001540      -0.000011       0.000000
      0.001601       0.000076       0.000000
      0.001720       0.000152       0.000000
      0.001728       0.000095       0.000000
      0.001623       0.000030       0.000000
      0.001540      -0.000011       0.000000
      0.001623       0.000030       0.000000
      0.001597      -0.000008       0.000000
      0.001538      -0.000042       0.000000
      0.001623       0.000030       0.000000
      0.001728       0.000095       0.000000
      0.001666       0.000049       0.000000
      0.001597      -0.000008       0.000000
      0.001720       0.000152       0.000000
      0.001871       0.000269       0.000000
      0.001868       0.000197       0.000000
      0.001728       0.000095       0.000000
      0.001728       0.000095       0.000000
      0.001868       0.000197       0.000000
      0.001745       0.000141       0.000000
      0.001666       0.000049       0.000000
      0.001538      -0.000042       0.000000
      0.001597      -0.000008       0.000000
      0.001546      -0.000030       0.000000
      0.001515      -0.000062       0.000000
      0.001597      -0.000008       0.000000
      0.001666       0.000049       0.000000
      0.001577       0.000028       0.000000
      0.001546      -0.000030       0.000000
      0.001515      -0.000062       0.000000
      0.001546      -0.000030       0.000000
      0.001494      -0.000038       0.000000
      0.001487      -0.000071       0.000000
      0.001546      -0.000030       0.000000
      0.001577       0.000028       0.000000
      0.001493       0.000024       0.000000
      0.001494      -0.000038       0.000000
      0.001666       0.000049       0.000000
      0.001705       0.000090       0.000000
      0.001647       0.000077       0.000000
      0.001622       0.000036       0.000000
      0.001705       0.000090       0.000000
      0.001745       0.000141       0.000000
      0.001671       0.000129       0.000000
      0.001647       0.000077       0.000000
      0.001622       0.000036       0.000000
      0.001647       0.000077       0.000000
      0.001591       0.000071       0.000000
      0.001577       0.000028       0.000000
      0.001647       0.000077       0.000000
      0.001671       0.000129       0.000000
      0.001603       0.000125       0.000000
      0.001591       0.000071       0.000000
      0.001745       0.000141       0.000000
      0.001789       0.000206       0.000000
      0.001693       0.000195       0.000000
      0.001671       0.000129       0.000000
      0.001671       0.000129       0.000000
      0.001693       0.000195       0.000000
      0.001613       0.000191       0.000000
      0.001603       0.000125       0.000000
      0.001577       0.000028       0.000000
      0.001591       0.000071       0.000000
      0.001539       0.000069       0.000000
      0.001534       0.000025       0.000000
      0.001591       0.000071       0.000000
      0.001603       0.000125       0.000000
      0.001544       0.000123       0.000000
      0.001539       0.000069       0.000000
      0.001534       0.000025       0.000000
      0.001539       0.000069       0.000000
      0.001490       0.000068       0.000000
      0.001493       0.000024       0.000000
      0.001539       0.000069       0.000000
      0.001544       0.000123       0.000000
      0.001488       0.000123       0.000000
      0.001490       0.000068       0.000000
      0.001603       0.000125       0.000000
      0.001608       0.000156       0.000000
      0.001576       0.000155       0.000000
      0.001572       0.000124       0.000000
      0.001608       0.000156       0.000000
      0.001613       0.000191       0.000000
      0.001580       0.000189       0.000000
      0.001576       0.000155       0.000000
      0.001572       0.000124       0.000000
      0.001576       0.000155       0.000000
      0.001546       0.000154       0.000000
      0.001544       0.000123       0.000000
      0.001576       0.000155       0.000000
      0.001580       0.000189       0.000000
      0.001549       0.000187       0.000000
      0.001546       0.000154       0.000000
      0.001613       0.000191       0.000000
      0.001619       0.000231       0.000000
      0.001585       0.000227       0.000000
      0.001580       0.000189       0.000000
      0.001619       0.000231       0.000000
      0.001627       0.000275       0.000000
      0.001598       0.000276       0.000000
      0.001585       0.000227       0.000000
      0.001580       0.000189       0.000000
      0.001585       0.000227       0.000000
      0.001554       0.000223       0.000000
      0.001549       0.000187       0.000000
      0.001585       0.000227       0.000000
      0.001598       0.000276       0.000000
      0.001556       0.000278       0.000000
      0.001554       0.000223       0.000000
      0.001544       0.000123       0.000000
      0.001546       0.000154       0.000000
      0.001518       0.000153       0.000000
      0.001516       0.000122       0.000000
      0.001546       0.000154       0.000000
      0.001549       0.000187       0.000000
      0.001520       0.000185       0.000000
      0.001518       0.000153       0.000000
      0.001516       0.000122       0.000000
      0.001518       0.000153       0.000000
      0.001489       0.000153       0.000000
      0.001488       0.000123       0.000000
      0.001518       0.000153       0.000000
      0.001520       0.000185       0.000000
      0.001495       0.000187       0.000000
      0.001489       0.000153       0.000000
      0.001549       0.000187       0.000000
      0.001554       0.000223       0.000000
      0.001524       0.000214       0.000000
      0.001520       0.000185       0.000000
      0.001554       0.000223       0.000000
      0.001556       0.000278       0.000000
      0.001278       0.000222       0.000000
      0.001524       0.000214       0.000000
      0.001520       0.000185       0.000000
      0.001524       0.000214       0.000000
      0.001540       0.000228       0.000000
      0.001495       0.000187       0.000000
      0.001524       0.000214       0.000000
      0.001278       0.000222       0.000000
      0.007623       0.000702       0.000000
      0.001540       0.000228       0.000000
      0.001693       0.000195       0.000000
      0.001703       0.000236       0.000000
      0.001658       0.000233       0.000000
      0.001651       0.000193       0.000000
      0.001703       0.000236       0.000000
      0.001714       0.000282       0.000000
      0.001667       0.000280       0.000000
      0.001658       0.000233       0.000000
      0.001651       0.000193       0.000000
      0.001658       0.000233       0.000000
      0.001619       0.000231       0.000000
      0.001613       0.000191       0.000000
      0.001658       0.000233       0.000000
      0.001667       0.000280       0.000000
      0.001627       0.000275       0.000000
      0.001619       0.000231       0.000000
      0.001868       0.000197       0.000000
      0.001960       0.000271       0.000000
      0.001888       0.000230       0.000000
      0.001816       0.000163       0.000000
      0.001960       0.000271       0.000000
      0.002080       0.000371       0.000000
      0.001980       0.000320       0.000000
      0.001888       0.000230       0.000000
      0.001816       0.000163       0.000000
      0.001888       0.000230       0.000000
      0.001789       0.000206       0.000000
      0.001745       0.000141       0.000000
      0.001789       0.000206       0.000000
      0.001813       0.000245       0.000000
      0.001755       0.000239       0.000000
      0.001739       0.000199       0.000000
      0.001813       0.000245       0.000000
      0.001838       0.000291       0.000000
      0.001771       0.000286       0.000000
      0.001755       0.000239       0.000000
      0.001739       0.000199       0.000000
      0.001755       0.000239       0.000000
      0.001703       0.000236       0.000000
      0.001693       0.000195       0.000000
      0.001755       0.000239       0.000000
      0.001771       0.000286       0.000000
      0.001714       0.000282       0.000000
      0.001703       0.000236       0.000000
      0.001888       0.000230       0.000000
      0.001930       0.000272       0.000000
      0.001873       0.000256       0.000000
      0.001840       0.000216       0.000000
      0.001930       0.000272       0.000000
      0.001980       0.000320       0.000000
      0.001910       0.000302       0.000000
      0.001873       0.000256       0.000000
      0.001840       0.000216       0.000000
      0.001873       0.000256       0.000000
      0.001813       0.000245       0.000000
      0.001789       0.000206       0.000000
      0.001873       0.000256       0.000000
      0.001910       0.000302       0.000000
      0.001838       0.000291       0.000000
      0.001813       0.000245       0.000000
      0.001475       0.000219       0.000000
      0.001564       0.000313       0.000000
      0.001753       0.000310       0.000000
      0.001629       0.000198       0.000000
      0.001564       0.000313       0.000000
      0.001645       0.000412       0.000000
      0.001881       0.000448       0.000000
      0.001753       0.000310       0.000000
      0.001629       0.000198       0.000000
      0.001753       0.000310       0.000000
      0.001871       0.000269       0.000000
      0.001720       0.000152       0.000000
      0.001753       0.000310       0.000000
      0.001881       0.000448       0.000000
      0.002061       0.000445       0.000000
      0.001871       0.000269       0.000000
      0.001871       0.000269       0.000000
      0.001962       0.000349       0.000000
      0.001985       0.000314       0.000000
      0.001887       0.000235       0.000000
      0.001962       0.000349       0.000000
      0.002061       0.000445       0.000000
      0.002102       0.000418       0.000000
      0.001985       0.000314       0.000000
      0.001887       0.000235       0.000000
      0.001985       0.000314       0.000000
      0.001960       0.000271       0.000000
      0.001868       0.000197       0.000000
      0.001985       0.000314       0.000000
      0.002102       0.000418       0.000000
      0.002080       0.000371       0.000000
      0.001960       0.000271       0.000000
      0.000000       0.000000       0.000000
      0.000000       0.000000       0.000000
      0.000569       0.000163       0.000000
      0.000573       0.000151       0.000000
      0.000000       0.000000       0.000000
      0.000000       0.000000       0.000000
      0.000568       0.000137       0.000000
      0.000569       0.000163       0.000000
      0.000573       0.000151       0.000000
      0.000569       0.000163       0.000000
      0.001154       0.000329       0.000000
      0.001122       0.000294       0.000000
      0.000569       0.000163       0.000000
      0.000568       0.000137       0.000000
      0.001192       0.000259       0.000000
      0.001154       0.000329       0.000000
      0.000000       0.000000       0.000000
      0.000000       0.000000       0.000000
      0.000585       0.000091       0.000000
      0.000568       0.000137       0.000000
      0.000000       0.000000       0.000000
      0.000000       0.000000       0.000000
      0.000613       0.000051       0.000000
      0.000585       0.000091       0.000000
      0.000568       0.000137       0.000000
      0.000585       0.000091       0.000000
      0.001259       0.000155       0.000000
      0.001192       0.000259       0.000000
      0.000585       0.000091       0.000000
      0.000613       0.000051       0.000000
      0.001331       0.000076       0.000000
      0.001259       0.000155       0.000000
      0.000000       0.000000       0.000000
      0.000000       0.000000       0.000000
      0.000637       0.000022       0.000000
      0.000613       0.000051       0.000000
      0.000000       0.000000       0.000000
      0.000000       0.000000       0.000000
      0.000647       0.000000       0.000000
      0.000637       0.000022       0.000000
      0.000613       0.000051       0.000000
      0.000637       0.000022       0.000000
      0.001382       0.000029       0.000000
      0.001331       0.000076       0.000000
      0.000637       0.000022       0.000000
      0.000647       0.000000       0.000000
      0.001400       0.000000       0.000000
      0.001382       0.000029       0.000000
      0.001122       0.000294       0.000000
      0.001154       0.000329       0.000000
      0.001760       0.000492       0.000000
      0.001645       0.000412       0.000000
      0.001154       0.000329       0.000000
      0.001192       0.000259       0.000000
      0.001894       0.000337       0.000000
      0.001760       0.000492       0.000000
      0.001760       0.000492       0.000000
      0.001894       0.000337       0.000000
      0.002819       0.000305       0.000000
      0.002438       0.000646       0.000000
      0.001192       0.000259       0.000000
      0.001259       0.000155       0.000000
      0.002057       0.000166       0.000000
      0.001894       0.000337       0.000000
      0.001259       0.000155       0.000000
      0.001331       0.000076       0.000000
      0.002187       0.000065       0.000000
      0.002057       0.000166       0.000000
      0.001894       0.000337       0.000000
      0.002057       0.000166       0.000000
      0.003086       0.000105       0.000000
      0.002819       0.000305       0.000000
      0.002057       0.000166       0.000000
      0.002187       0.000065       0.000000
      0.003237       0.000022       0.000000
      0.003086       0.000105       0.000000
      0.001331       0.000076       0.000000
      0.001382       0.000029       0.000000
      0.002265       0.000020       0.000000
      0.002187       0.000065       0.000000
      0.001382       0.000029       0.000000
      0.001400       0.000000       0.000000
      0.002290       0.000000       0.000000