# vtk DataFile Version 2.0
time_10.vtk
ASCII
DATASET UNSTRUCTURED_GRID
POINTS  2076 float
      0.000000       0.000000       0.000000
      0.083333       0.000000       0.000000
      0.083333       0.083333       0.000000
      0.000000       0.083333       0.000000
      0.083333       0.000000       0.000000
      0.166667       0.000000       0.000000
      0.166667       0.083333       0.000000
      0.083333       0.083333       0.000000
      0.000000       0.083333       0.000000
      0.083333       0.083333       0.000000
      0.083333       0.166667       0.000000
      0.000000       0.166667       0.000000
      0.083333       0.083333       0.000000
      0.166667       0.083333       0.000000
      0.166667       0.166667       0.000000
      0.083333       0.166667       0.000000
      0.166667       0.000000       0.000000
      0.250000       0.000000       0.000000
      0.250000       0.083333       0.000000
      0.166667       0.083333       0.000000
      0.250000       0.000000       0.000000
      0.333333       0.000000       0.000000
      0.333333       0.083333       0.000000
      0.250000       0.083333       0.000000
      0.166667       0.083333       0.000000
      0.250000       0.083333       0.000000
      0.250000       0.166667       0.000000
      0.166667       0.166667       0.000000
      0.250000       0.083333       0.000000
      0.333333       0.083333       0.000000
      0.333333       0.166667       0.000000
      0.250000       0.166667       0.000000
      0.333333       0.000000       0.000000
      0.416667       0.000000       0.000000
      0.416667       0.083333       0.000000
      0.333333       0.083333       0.000000
      0.416667       0.000000       0.000000
      0.500000       0.000000       0.000000
      0.500000       0.083333       0.000000
      0.416667       0.083333       0.000000
      0.333333       0.083333       0.000000
      0.416667       0.083333       0.000000
      0.416667       0.166667       0.000000
      0.333333       0.166667       0.000000
      0.416667       0.083333       0.000000
      0.500000       0.083333       0.000000
      0.500000       0.166667       0.000000
      0.416667       0.166667       0.000000
      0.000000       0.166667       0.000000
      0.083333       0.166667       0.000000
      0.083333       0.250000       0.000000
      0.000000       0.250000       0.000000
      0.083333       0.166667       0.000000
      0.166667       0.166667       0.000000
      0.166667       0.250000       0.000000
      0.083333       0.250000       0.000000
      0.000000       0.250000       0.000000
      0.083333       0.250000       0.000000
      0.083333       0.333333       0.000000
      0.000000       0.333333       0.000000
      0.083333       0.250000       0.000000
      0.166667       0.250000       0.000000
      0.166667       0.333333       0.000000
      0.083333       0.333333       0.000000
      0.166667       0.166667       0.000000
      0.250000       0.166667       0.000000
      0.250000       0.250000       0.000000
      0.166667       0.250000       0.000000
      0.250000       0.166667       0.000000
      0.333333       0.166667       0.000000
      0.333333       0.250000       0.000000
      0.250000       0.250000       0.000000
      0.166667       0.250000       0.000000
      0.250000       0.250000       0.000000
      0.250000       0.333333       0.000000
      0.166667       0.333333       0.000000
      0.250000       0.250000       0.000000
      0.333333       0.250000       0.000000
      0.333333       0.333333       0.000000
      0.250000       0.333333       0.000000
      0.333333       0.166667       0.000000
      0.416667       0.166667       0.000000
      0.416667       0.250000       0.000000
      0.333333       0.250000       0.000000
      0.333333       0.250000       0.000000
      0.416667       0.250000       0.000000
      0.416667       0.333333       0.000000
      0.333333       0.333333       0.000000
      0.000000       0.333333       0.000000
      0.083333       0.333333       0.000000
      0.083333       0.416667       0.000000
      0.000000       0.416667       0.000000
      0.083333       0.333333       0.000000
      0.166667       0.333333       0.000000
      0.166667       0.416667       0.000000
      0.083333       0.416667       0.000000
      0.000000       0.416667       0.000000
      0.083333       0.416667       0.000000
      0.083333       0.500000       0.000000
      0.000000       0.500000       0.000000
      0.083333       0.416667       0.000000
      0.166667       0.416667       0.000000
      0.166667       0.500000       0.000000
      0.083333       0.500000       0.000000
      0.166667       0.333333       0.000000
      0.250000       0.333333       0.000000
      0.250000       0.416667       0.000000
      0.166667       0.416667       0.000000
      0.250000       0.333333       0.000000
      0.333333       0.333333       0.000000
      0.333333       0.416667       0.000000
      0.250000       0.416667       0.000000
      0.166667       0.416667       0.000000
      0.250000       0.416667       0.000000
      0.250000       0.500000       0.000000
      0.166667       0.500000       0.000000
      0.250000       0.416667       0.000000
      0.333333       0.416667       0.000000
      0.333333       0.500000       0.000000
      0.250000       0.500000       0.000000
      0.333333       0.333333       0.000000
      0.375000       0.333333       0.000000
      0.375000       0.375000       0.000000
      0.333333       0.375000       0.000000
      0.375000       0.333333       0.000000
      0.416667       0.333333       0.000000
      0.416667       0.375000       0.000000
      0.375000       0.375000       0.000000
      0.333333       0.375000       0.000000
      0.375000       0.375000       0.000000
      0.375000       0.416667       0.000000
      0.333333       0.416667       0.000000
      0.375000       0.375000       0.000000
      0.416667       0.375000       0.000000
      0.416667       0.416667       0.000000
      0.375000       0.416667       0.000000
      0.416667       0.333333       0.000000
      0.458333       0.333333       0.000000
      0.458333       0.375000       0.000000
      0.416667       0.375000       0.000000
      0.416667       0.375000       0.000000
      0.458333       0.375000       0.000000
      0.458333       0.416667       0.000000
      0.416667       0.416667       0.000000
      0.333333       0.416667       0.000000
      0.375000       0.416667       0.000000
      0.375000       0.458333       0.000000
      0.333333       0.458333       0.000000
      0.375000       0.416667       0.000000
      0.416667       0.416667       0.000000
      0.416667       0.458333       0.000000
      0.375000       0.458333       0.000000
      0.333333       0.458333       0.000000
      0.375000       0.458333       0.000000
      0.375000       0.500000       0.000000
      0.333333       0.500000       0.000000
      0.375000       0.458333       0.000000
      0.416667       0.458333       0.000000
      0.416667       0.500000       0.000000
      0.375000       0.500000       0.000000
      0.416667       0.416667       0.000000
      0.437500       0.416667       0.000000
      0.437500       0.437500       0.000000
      0.416667       0.437500       0.000000
      0.437500       0.416667       0.000000
      0.458333       0.416667       0.000000
      0.458333       0.437500       0.000000
      0.437500       0.437500       0.000000
      0.416667       0.437500       0.000000
      0.437500       0.437500       0.000000
      0.437500       0.458333       0.000000
      0.416667       0.458333       0.000000
      0.437500       0.437500       0.000000
      0.458333       0.437500       0.000000
      0.458333       0.458333       0.000000
      0.437500       0.458333       0.000000
      0.458333       0.416667       0.000000
      0.479167       0.416667       0.000000
      0.479167       0.437500       0.000000
      0.458333       0.437500       0.000000
      0.416667       0.458333       0.000000
      0.437500       0.458333       0.000000
      0.437500       0.479167       0.000000
      0.416667       0.479167       0.000000
      0.437500       0.458333       0.000000
      0.458333       0.458333       0.000000
      0.458333       0.479167       0.000000
      0.437500       0.479167       0.000000
      0.416667       0.479167       0.000000
      0.437500       0.479167       0.000000
      0.437500       0.500000       0.000000
      0.416667       0.500000       0.000000
      0.437500       0.479167       0.000000
      0.458333       0.479167       0.000000
      0.458333       0.500000       0.000000
      0.437500       0.500000       0.000000
      0.458333       0.458333       0.000000
      0.468750       0.458333       0.000000
      0.468750       0.468750       0.000000
      0.458333       0.468750       0.000000
      0.468750       0.458333       0.000000
      0.479167       0.458333       0.000000
      0.479167       0.468750       0.000000
      0.468750       0.468750       0.000000
      0.458333       0.468750       0.000000
      0.468750       0.468750       0.000000
      0.468750       0.479167       0.000000
      0.458333       0.479167       0.000000
      0.468750       0.468750       0.000000
      0.479167       0.468750       0.000000
      0.479167       0.479167       0.000000
      0.468750       0.479167       0.000000
      0.479167       0.458333       0.000000
      0.489583       0.458333       0.000000
      0.489583       0.468750       0.000000
      0.479167       0.468750       0.000000
      0.489583       0.458333       0.000000
      0.500000       0.458333       0.000000
      0.500000       0.468750       0.000000
      0.489583       0.468750       0.000000
[...]
POINT_DATA  2076
VECTORS U float 
      0.000000       0.000000       0.000000
      0.000000       0.000000       0.000000
      0.000321       0.000002       0.000000
      0.000313       0.000000       0.000000
      0.000000       0.000000       0.000000
      0.000000       0.000000       0.000000
      0.000348       0.000007       0.000000
      0.000321       0.000002       0.000000
      0.000313       0.000000       0.000000
      0.000321       0.000002       0.000000
      0.000589      -0.000007       0.000000
      0.000575       0.000000       0.000000
      0.000321       0.000002       0.000000
      0.000348       0.000007       0.000000
      0.000631      -0.000008       0.000000
      0.000589      -0.000007       0.000000
      0.000000       0.000000       0.000000
      0.000000       0.000000       0.000000
      0.000393       0.000019       0.000000
      0.000348       0.000007       0.000000
      0.000000       0.000000       0.000000
      0.000000       0.000000       0.000000
      0.000453       0.000044       0.000000
      0.000393       0.000019       0.000000
      0.000348       0.000007       0.000000
      0.000393       0.000019       0.000000
      0.000702       0.000003       0.000000
      0.000631      -0.000008       0.000000
      0.000393       0.000019       0.000000
      0.000453       0.000044       0.000000
      0.000805       0.000041       0.000000
      0.000702       0.000003       0.000000
      0.000000       0.000000       0.000000
      0.000000       0.000000       0.000000
      0.000518       0.000089       0.000000
      0.000453       0.000044       0.000000
      0.000000       0.000000       0.000000
      0.000000       0.000000       0.000000
      0.000567       0.000153       0.000000
      0.000518       0.000089       0.000000
      0.000453       0.000044       0.000000
      0.000518       0.000089       0.000000
      0.000935       0.000125       0.000000
      0.000805       0.000041       0.000000
      0.000518       0.000089       0.000000
      0.000567       0.000153       0.000000
      0.001070       0.000271       0.000000
      0.000935       0.000125       0.000000
      0.000575       0.000000       0.000000
      0.000589      -0.000007       0.000000
      0.000789      -0.000021       0.000000
      0.000774       0.000000       0.000000
      0.000589      -0.000007       0.000000
      0.000631      -0.000008       0.000000
      0.000833      -0.000036       0.000000
      0.000789      -0.000021       0.000000
      0.000774       0.000000       0.000000
      0.000789      -0.000021       0.000000
      0.000922      -0.000035       0.000000
      0.000910       0.000000       0.000000
      0.000789      -0.000021       0.000000
      0.000833      -0.000036       0.000000
      0.000958      -0.000064       0.000000
      0.000922      -0.000035       0.000000
      0.000631      -0.000008       0.000000
      0.000702       0.000003       0.000000
      0.000911      -0.000035       0.000000
      0.000833      -0.000036       0.000000
      0.000702       0.000003       0.000000
      0.000805       0.000041       0.000000
      0.001030      -0.000004       0.000000
      0.000911      -0.000035       0.000000
      0.000833      -0.000036       0.000000
      0.000911      -0.000035       0.000000
      0.001019      -0.000078       0.000000
      0.000958      -0.000064       0.000000
      0.000911      -0.000035       0.000000
      0.001030      -0.000004       0.000000
      0.001112      -0.000063       0.000000
      0.001019      -0.000078       0.000000
      0.000805       0.000041       0.000000
      0.000935       0.000125       0.000000
      0.001204       0.000086       0.000000
      0.001030      -0.000004       0.000000
      0.001030      -0.000004       0.000000
      0.001204       0.000086       0.000000
      0.001246       0.000003       0.000000
      0.001112      -0.000063       0.000000
      0.000910       0.000000       0.000000
      0.000922      -0.000035       0.000000
      0.001004      -0.000044       0.000000
      0.000997       0.000000       0.000000
      0.000922      -0.000035       0.000000
      0.000958      -0.000064       0.000000
      0.001023      -0.000083       0.000000
      0.001004      -0.000044       0.000000
      0.000997       0.000000       0.000000
      0.001004      -0.000044       0.000000
      0.001056      -0.000048       0.000000
      0.001054       0.000000       0.000000
      0.001004      -0.000044       0.000000
      0.001023      -0.000083       0.000000
      0.001061      -0.000090       0.000000
      0.001056      -0.000048       0.000000
      0.000958      -0.000064       0.000000
      0.001019      -0.000078       0.000000
      0.001054      -0.000106       0.000000
      0.001023      -0.000083       0.000000
      0.001019      -0.000078       0.000000
      0.001112      -0.000063       0.000000
      0.001096      -0.000099       0.000000
      0.001054      -0.000106       0.000000
      0.001023      -0.000083       0.000000
      0.001054      -0.000106       0.000000
      0.001062      -0.000114       0.000000
      0.001061      -0.000090       0.000000
      0.001054      -0.000106       0.000000
      0.001096      -0.000099       0.000000
      0.001054      -0.000105       0.000000
      0.001062      -0.000114       0.000000
      0.001112      -0.000063       0.000000
      0.001173      -0.000038       0.000000
      0.001153      -0.000062       0.000000
      0.001112      -0.000085       0.000000
      0.001173      -0.000038       0.000000
      0.001246       0.000003       0.000000
      0.001199      -0.000023       0.000000
      0.001153      -0.000062       0.000000
      0.001112      -0.000085       0.000000
      0.001153      -0.000062       0.000000
      0.001119      -0.000075       0.000000
      0.001096      -0.000099       0.000000
      0.001153      -0.000062       0.000000
      0.001199      -0.000023       0.000000
      0.001141      -0.000033       0.000000
      0.001119      -0.000075       0.000000
      0.001246       0.000003       0.000000
      0.001336       0.000069       0.000000
      0.001247       0.000040       0.000000
      0.001199      -0.000023       0.000000
      0.001199      -0.000023       0.000000
      0.001247       0.000040       0.000000
      0.001158       0.000032       0.000000
      0.001141      -0.000033       0.000000
      0.001096      -0.000099       0.000000
      0.001119      -0.000075       0.000000
      0.001082      -0.000080       0.000000
      0.001075      -0.000105       0.000000
      0.001119      -0.000075       0.000000
      0.001141      -0.000033       0.000000
      0.001087      -0.000035       0.000000
      0.001082      -0.000080       0.000000
      0.001075      -0.000105       0.000000
      0.001082      -0.000080       0.000000
      0.001045      -0.000079       0.000000
      0.001054      -0.000105       0.000000
      0.001082      -0.000080       0.000000
      0.001087      -0.000035       0.000000
      0.001035      -0.000033       0.000000
      0.001045      -0.000079       0.000000
      0.001141      -0.000033       0.000000
      0.001150      -0.000004       0.000000
      0.001118      -0.000005       0.000000
      0.001113      -0.000035       0.000000
      0.001150      -0.000004       0.000000
      0.001158       0.000032       0.000000
      0.001122       0.000031       0.000000
      0.001118      -0.000005       0.000000
      0.001113      -0.000035       0.000000
      0.001118      -0.000005       0.000000
      0.001089      -0.000005       0.000000
      0.001087      -0.000035       0.000000
      0.001118      -0.000005       0.000000
      0.001122       0.000031       0.000000
      0.001091       0.000031       0.000000
      0.001089      -0.000005       0.000000
      0.001158       0.000032       0.000000
      0.001166       0.000076       0.000000
      0.001127       0.000074       0.000000
      0.001122       0.000031       0.000000
      0.001087      -0.000035       0.000000
      0.001089      -0.000005       0.000000
      0.001061      -0.000004       0.000000
      0.001062      -0.000035       0.000000
      0.001089      -0.000005       0.000000
      0.001091       0.000031       0.000000
      0.001062       0.000031       0.000000
      0.001061      -0.000004       0.000000
      0.001062      -0.000035       0.000000
      0.001061      -0.000004       0.000000
      0.001031      -0.000003       0.000000
      0.001035      -0.000033       0.000000
      0.001061      -0.000004       0.000000
      0.001062       0.000031       0.000000
      0.001030       0.000031       0.000000
      0.001031      -0.000003       0.000000
      0.001091       0.000031       0.000000
      0.001092       0.000051       0.000000
      0.001077       0.000050       0.000000
      0.001076       0.000031       0.000000
      0.001092       0.000051       0.000000
      0.001094       0.000071       0.000000
      0.001079       0.000070       0.000000
      0.001077       0.000050       0.000000
      0.001076       0.000031       0.000000
      0.001077       0.000050       0.000000
      0.001062       0.000049       0.000000
      0.001062       0.000031       0.000000
      0.001077       0.000050       0.000000
      0.001079       0.000070       0.000000
      0.001064       0.000068       0.000000
      0.001062       0.000049       0.000000
      0.001094       0.000071       0.000000
      0.001096       0.000094       0.000000
      0.001082       0.000092       0.000000
      0.001079       0.000070       0.000000
      0.001096       0.000094       0.000000
      0.001102       0.000119       0.000000
      0.001088       0.000123       0.000000
      0.001082       0.000092       0.000000
      0.001079       0.000070       0.000000
      0.001082       0.000092       0.000000
      0.001067       0.000088       0.000000
      0.001064       0.000068       0.000000
      0.001082       0.000092       0.000000
      0.001088       0.000123       0.000000
      0.001063       0.000126       0.000000
      0.001067       0.000088       0.000000
      0.001062       0.000031       0.000000
      0.001062       0.000049       0.000000
      0.001047       0.000049       0.000000
      0.001047       0.000030       0.000000
      0.001062       0.000049       0.000000
      0.001064       0.000068       0.000000
      0.001049       0.000066       0.000000
      0.001047       0.000049       0.000000
      0.001047       0.000030       0.000000
      0.001047       0.000049       0.000000
      0.001032       0.000049       0.000000
      0.001030       0.000031       0.000000
      0.001047       0.000049       0.000000
      0.001049       0.000066       0.000000
      0.001038       0.000069       0.000000
      0.001032       0.000049       0.000000
      0.001064       0.000068       0.000000
      0.001067       0.000088       0.000000
      0.001052       0.000081       0.000000
      0.001049       0.000066       0.000000
      0.001067       0.000088       0.000000
      0.001063       0.000126       0.000000
      0.000767       0.000103       0.000000
      0.001052       0.000081       0.000000
      0.001049       0.000066       0.000000
      0.001052       0.000081       0.000000
      0.001091       0.000097       0.000000
      0.001038       0.000069       0.000000
      0.001052       0.000081       0.000000
      0.000767       0.000103       0.000000
      0.008397       0.000811       0.000000
      0.001091       0.000097       0.000000
      0.001127       0.000074       0.000000
      0.001129       0.000098       0.000000
      0.001112       0.000096       0.000000
      0.001110       0.000073       0.000000
      0.001129       0.000098       0.000000
      0.001132       0.000124       0.000000
      0.001115       0.000121       0.000000
      0.001112       0.000096       0.000000
      0.001110       0.000073       0.000000
      0.001112       0.000096       0.000000
      0.001096       0.000094       0.000000
      0.001094       0.000071       0.000000
      0.001112       0.000096       0.000000
      0.001115       0.000121       0.000000
      0.001102       0.000119       0.000000
      0.001096       0.000094       0.000000
      0.001247       0.000040       0.000000
      0.001270       0.000083       0.000000
      0.001213       0.000078       0.000000
      0.001200       0.000034       0.000000
      0.001200       0.000034       0.000000
      0.001213       0.000078       0.000000
      0.001166       0.000076       0.000000
      0.001158       0.000032       0.000000
      0.001166       0.000076       0.000000
      0.001169       0.000101       0.000000
      0.001148       0.000100       0.000000
      0.001145       0.000075       0.000000
      0.001169       0.000101       0.000000
      0.001172       0.000129       0.000000
      0.001151       0.000127       0.000000
      0.001148       0.000100       0.000000
      0.001145       0.000075       0.000000
      0.001148       0.000100       0.000000
      0.001129       0.000098       0.000000
      0.001127       0.000074       0.000000
      0.001148       0.000100       0.000000
      0.001151       0.000127       0.000000
      0.001132       0.000124       0.000000
      0.001129       0.000098       0.000000
      0.001122       0.000031       0.000000
      0.001124       0.000052       0.000000
      0.001108       0.000051       0.000000
      0.001106       0.000031       0.000000
      0.001124       0.000052       0.000000
      0.001127       0.000074       0.000000
      0.001110       0.000073       0.000000
      0.001108       0.000051       0.000000
      0.001106       0.000031       0.000000
      0.001108       0.000051       0.000000
      0.001092       0.000051       0.000000
      0.001091       0.000031       0.000000
      0.001108       0.000051       0.000000
      0.001110       0.000073       0.000000
      0.001094       0.000071       0.000000
      0.001092       0.000051       0.000000
      0.001213       0.000078       0.000000
      0.001219       0.000104       0.000000
      0.001193       0.000103       0.000000
      0.001188       0.000077       0.000000
      0.001219       0.000104       0.000000
      0.001225       0.000134       0.000000
      0.001197       0.000132       0.000000
      0.001193       0.000103       0.000000
      0.001188       0.000077       0.000000
      0.001193       0.000103       0.000000
      0.001169       0.000101       0.000000
      0.001166       0.000076       0.000000
      0.001193       0.000103       0.000000
      0.001197       0.000132       0.000000
      0.001172       0.000129       0.000000
      0.001169       0.000101       0.000000
      0.001204       0.000086       0.000000
      0.001320       0.000171       0.000000
      0.001373       0.000121       0.000000
      0.001254       0.000044       0.000000
      0.001320       0.000171       0.000000
      0.001459       0.000297       0.000000
      0.001531       0.000247       0.000000
      0.001373       0.000121       0.000000
      0.001254       0.000044       0.000000
      0.001373       0.000121       0.000000
      0.001336       0.000069       0.000000
      0.001246       0.000003       0.000000
      0.001336       0.000069       0.000000
      0.001391       0.000115       0.000000
      0.001333       0.000094       0.000000
      0.001294       0.000051       0.000000
      0.001391       0.000115       0.000000
      0.001455       0.000174       0.000000
      0.001375       0.000151       0.000000
      0.001333       0.000094       0.000000
      0.001294       0.000051       0.000000
      0.001333       0.000094       0.000000
      0.001270       0.000083       0.000000
      0.001247       0.000040       0.000000
      0.001270       0.000083       0.000000
      0.001282       0.000109       0.000000
      0.001249       0.000106       0.000000
      0.001241       0.000080       0.000000
      0.001282       0.000109       0.000000
      0.001294       0.000139       0.000000
      0.001257       0.000136       0.000000
      0.001249       0.000106       0.000000
      0.001241       0.000080       0.000000
      0.001249       0.000106       0.000000
      0.001219       0.000104       0.000000
      0.001213       0.000078       0.000000
      0.001249       0.000106       0.000000
      0.001257       0.000136       0.000000
      0.001225       0.000134       0.000000
      0.001219       0.000104       0.000000
      0.001333       0.000094       0.000000
      0.001353       0.000121       0.000000
      0.001317       0.000114       0.000000
      0.001302       0.000088       0.000000
      0.001353       0.000121       0.000000
      0.001375       0.000151       0.000000
      0.001333       0.000144       0.000000
      0.001317       0.000114       0.000000
      0.001302       0.000088       0.000000
      0.001317       0.000114       0.000000
      0.001282       0.000109       0.000000
      0.001270       0.000083       0.000000
      0.001317       0.000114       0.000000
      0.001333       0.000144       0.000000
      0.001294       0.000139       0.000000
      0.001282       0.000109       0.000000
      0.001373       0.000121       0.000000
      0.001446       0.000176       0.000000
      0.001432       0.000144       0.000000
      0.001365       0.000094       0.000000
      0.001446       0.000176       0.000000
      0.001531       0.000247       0.000000
      0.001512       0.000209       0.000000
      0.001432       0.000144       0.000000
      0.001365       0.000094       0.000000
      0.001432       0.000144       0.000000
      0.001391       0.000115       0.000000
      0.001336       0.000069       0.000000
      0.001432       0.000144       0.000000
      0.001512       0.000209       0.000000
      0.001455       0.000174       0.000000
      0.001391       0.000115       0.000000
      0.000935       0.000125       0.000000
      0.001005       0.000191       0.000000
      0.001189       0.000195       0.000000
      0.001094       0.000115       0.000000
      0.001005       0.000191       0.000000
      0.001070       0.000271       0.000000
      0.001289       0.000301       0.000000
      0.001189       0.000195       0.000000
      0.001094       0.000115       0.000000
      0.001189       0.000195       0.000000
      0.001320       0.000171       0.000000
      0.001204       0.000086       0.000000
      0.001189       0.000195       0.000000
      0.001289       0.000301       0.000000
      0.001459       0.000297       0.000000
      0.001320       0.000171       0.000000
      0.000000       0.000000       0.000000
      0.000000       0.000000       0.000000
      0.000580       0.000200       0.000000
      0.000567       0.000153       0.000000
      0.000000       0.000000       0.000000
      0.000000       0.000000       0.000000
      0.000578       0.000185       0.000000
      0.000580       0.000200       0.000000
      0.000567       0.000153       0.000000
      0.000580       0.000200       0.000000
      0.001155       0.000403       0.000000
      0.001070       0.000271       0.000000
      0.000580       0.000200       0.000000
      0.000578       0.000185       0.000000
      0.001213       0.000355       0.000000
      0.001155       0.000403       0.000000
      0.000000       0.000000       0.000000
      0.000000       0.000000       0.000000
      0.000597       0.000124       0.000000
      0.000578       0.000185       0.000000
      0.000000       0.000000       0.000000
      0.000000       0.000000       0.000000
      0.000637       0.000066       0.000000