# vtk DataFile Version 2.0
time_10.vtk
ASCII
DATASET UNSTRUCTURED_GRID
POINTS  1152 float
      0.000000       0.000000       0.000000
      0.083333       0.000000       0.000000
      0.083333       0.083333       0.000000
      0.000000       0.083333       0.000000
      0.083333       0.000000       0.000000
      0.166667       0.000000       0.000000
      0.166667       0.083333       0.000000
      0.083333       0.083333       0.000000
      0.000000       0.083333       0.000000
      0.083333       0.083333       0.000000
      0.083333       0.166667       0.000000
      0.000000       0.166667       0.000000
      0.083333       0.083333       0.000000
      0.166667       0.083333       0.000000
      0.166667       0.166667       0.000000
      0.083333       0.166667       0.000000
      0.166667       0.000000       0.000000
      0.250000       0.000000       0.000000
      0.250000       0.083333       0.000000
      0.166667       0.083333       0.000000
      0.250000       0.000000       0.000000
      0.333333       0.000000       0.000000
      0.333333       0.083333       0.000000
      0.250000       0.083333       0.000000
      0.166667       0.083333       0.000000
      0.250000       0.083333       0.000000
      0.250000       0.166667       0.000000
      0.166667       0.166667       0.000000
      0.250000       0.083333       0.000000
      0.333333       0.083333       0.000000
      0.333333       0.166667       0.000000
      0.250000       0.166667       0.000000
      0.333333       0.000000       0.000000
      0.416667       0.000000       0.000000
      0.416667       0.083333       0.000000
      0.333333       0.083333       0.000000
      0.416667       0.000000       0.000000
      0.500000       0.000000       0.000000
      0.500000       0.083333       0.000000
      0.416667       0.083333       0.000000
      0.333333       0.083333       0.000000
      0.416667       0.083333       0.000000
      0.416667       0.166667       0.000000
      0.333333       0.166667       0.000000
      0.416667       0.083333       0.000000
      0.500000       0.083333       0.000000
      0.500000       0.166667       0.000000
      0.416667       0.166667       0.000000
      0.000000       0.166667       0.000000
      0.083333       0.166667       0.000000
      0.083333       0.250000       0.000000
      0.000000       0.250000       0.000000
      0.083333       0.166667       0.000000
      0.166667       0.166667       0.000000
      0.166667       0.250000       0.000000
      0.083333       0.250000       0.000000
      0.000000       0.250000       0.000000
      0.083333       0.250000       0.000000
      0.083333       0.333333       0.000000
      0.000000       0.333333       0.000000
      0.083333       0.250000       0.000000
      0.166667       0.250000       0.000000
      0.166667       0.333333       0.000000
      0.083333       0.333333       0.000000
      0.166667       0.166667       0.000000
      0.250000       0.166667       0.000000
      0.250000       0.250000       0.000000
      0.166667       0.250000       0.000000
      0.250000       0.166667       0.000000
      0.333333       0.166667       0.000000
      0.333333       0.250000       0.000000
      0.250000       0.250000       0.000000
      0.166667       0.250000       0.000000
      0.250000       0.250000       0.000000
      0.250000       0.333333       0.000000
      0.166667       0.333333       0.000000
      0.250000       0.250000       0.000000
      0.333333       0.250000       0.000000
      0.333333       0.333333       0.000000
      0.250000       0.333333       0.000000
      0.333333       0.166667       0.000000
      0.416667       0.166667       0.000000
      0.416667       0.250000       0.000000
      0.333333       0.250000       0.000000
      0.416667       0.166667       0.000000
      0.500000       0.166667       0.000000
      0.500000       0.250000       0.000000
      0.416667       0.250000       0.000000
      0.333333       0.250000       0.000000
      0.416667       0.250000       0.000000
      0.416667       0.333333       0.000000
      0.333333       0.333333       0.000000
      0.416667       0.250000       0.000000
      0.500000       0.250000       0.000000
      0.500000       0.333333       0.000000
      0.416667       0.333333       0.000000
      0.000000       0.333333       0.000000
      0.083333       0.333333       0.000000
      0.083333       0.416667       0.000000
      0.000000       0.416667       0.000000
      0.083333       0.333333       0.000000
      0.166667       0.333333       0.000000
      0.166667       0.416667       0.000000
      0.083333       0.416667       0.000000
      0.000000       0.416667       0.000000
      0.083333       0.416667       0.000000
      0.083333       0.500000       0.000000
      0.000000       0.500000       0.000000
      0.083333       0.416667       0.000000
      0.166667       0.416667       0.000000
      0.166667       0.500000       0.000000
      0.083333       0.500000       0.000000
      0.166667       0.333333       0.000000
      0.250000       0.333333       0.000000
      0.250000       0.416667       0.000000
      0.166667       0.416667       0.000000
      0.250000       0.333333       0.000000
      0.333333       0.333333       0.000000
      0.333333       0.416667       0.000000
      0.250000       0.416667       0.000000
      0.166667       0.416667       0.000000
      0.250000       0.416667       0.000000
      0.250000       0.500000       0.000000
      0.166667       0.500000       0.000000
      0.250000       0.416667       0.000000
      0.333333       0.416667       0.000000
      0.333333       0.500000       0.000000
      0.250000       0.500000       0.000000
      0.333333       0.333333       0.000000
      0.375000       0.333333       0.000000
      0.375000       0.375000       0.000000
      0.333333       0.375000       0.000000
      0.375000       0.333333       0.000000
      0.416667       0.333333       0.000000
      0.416667       0.375000       0.000000
      0.375000       0.375000       0.000000
      0.333333       0.375000       0.000000
      0.375000       0.375000       0.000000
      0.375000       0.416667       0.000000
      0.333333       0.416667       0.000000
      0.375000       0.375000       0.000000
      0.416667       0.375000       0.000000
      0.416667       0.416667       0.000000
      0.375000       0.416667       0.000000
      0.416667       0.333333       0.000000
      0.458333       0.333333       0.000000
      0.458333       0.375000       0.000000
      0.416667       0.375000       0.000000
      0.458333       0.333333       0.000000
      0.500000       0.333333       0.000000
      0.500000       0.375000       0.000000
      0.458333       0.375000       0.000000
      0.416667       0.375000       0.000000
      0.458333       0.375000       0.000000
      0.458333       0.416667       0.000000
      0.416667       0.416667       0.000000
      0.458333       0.375000       0.000000
      0.500000       0.375000       0.000000
      0.500000       0.416667       0.000000
      0.458333       0.416667       0.000000
      0.333333       0.416667       0.000000
      0.375000       0.416667       0.000000
      0.375000       0.458333       0.000000
      0.333333       0.458333       0.000000
      0.375000       0.416667       0.000000
      0.416667       0.416667       0.000000
      0.416667       0.458333       0.000000
      0.375000       0.458333       0.000000
      0.333333       0.458333       0.000000
      0.375000       0.458333       0.000000
      0.375000       0.500000       0.000000
      0.333333       0.500000       0.000000
      0.375000       0.458333       0.000000
      0.416667       0.458333       0.000000
      0.416667       0.500000       0.000000
      0.375000       0.500000       0.000000
      0.416667       0.416667       0.000000
      0.437500       0.416667       0.000000
      0.437500       0.437500       0.000000
      0.416667       0.437500       0.000000
      0.437500       0.416667       0.000000
      0.458333       0.416667       0.000000
      0.458333       0.437500       0.000000
      0.437500       0.437500       0.000000
      0.416667       0.437500       0.000000
      0.437500       0.437500       0.000000
      0.437500       0.458333       0.000000
      0.416667       0.458333       0.000000
      0.437500       0.437500       0.000000
      0.458333       0.437500       0.000000
      0.458333       0.458333       0.000000
      0.437500       0.458333       0.000000
      0.458333       0.416667       0.000000
      0.479167       0.416667       0.000000
      0.479167       0.437500       0.000000
      0.458333       0.437500       0.000000
      0.479167       0.416667       0.000000
      0.500000       0.416667       0.000000
      0.500000       0.437500       0.000000
      0.479167       0.437500       0.000000
      0.458333       0.437500       0.000000
      0.479167       0.437500       0.000000
      0.479167       0.458333       0.000000
      0.458333       0.458333       0.000000
      0.479167       0.437500       0.000000
      0.500000       0.437500       0.000000
      0.500000       0.458333       0.000000
      0.479167       0.458333       0.000000
      0.416667       0.458333       0.000000
      0.437500       0.458333       0.000000
      0.437500       0.479167       0.000000
      0.416667       0.479167       0.000000
      0.437500       0.458333       0.000000
      0.458333       0.458333       0.000000
      0.458333       0.479167       0.000000
      0.437500       0.479167       0.000000
      0.416667       0.479167       0.000000
      0.437500       0.479167       0.000000
      0.437500       0.500000       0.000000
      0.416667       0.500000       0.000000
[...]
POINT_DATA  1152
VECTORS U float 
      0.000000       0.000000       0.000000
      0.000000       0.000000       0.000000
      0.000511       0.000018       0.000000
      0.000507       0.000000       0.000000
      0.000000       0.000000       0.000000
      0.000000       0.000000       0.000000
      0.000522       0.000038       0.000000
      0.000511       0.000018       0.000000
      0.000507       0.000000       0.000000
      0.000511       0.000018       0.000000
      0.000956       0.000029       0.000000
      0.000947       0.000000       0.000000
      0.000511       0.000018       0.000000
      0.000522       0.000038       0.000000
      0.000980       0.000063       0.000000
      0.000956       0.000029       0.000000
      0.000000       0.000000       0.000000
      0.000000       0.000000       0.000000
      0.000537       0.000060       0.000000
      0.000522       0.000038       0.000000
      0.000000       0.000000       0.000000
      0.000000       0.000000       0.000000
      0.000549       0.000085       0.000000
      0.000537       0.000060       0.000000
      0.000522       0.000038       0.000000
      0.000537       0.000060       0.000000
      0.001016       0.000106       0.000000
      0.000980       0.000063       0.000000
      0.000537       0.000060       0.000000
      0.000549       0.000085       0.000000
      0.001056       0.000158       0.000000
      0.001016       0.000106       0.000000
      0.000000       0.000000       0.000000
      0.000000       0.000000       0.000000
      0.000555       0.000107       0.000000
      0.000549       0.000085       0.000000
      0.000000       0.000000       0.000000
      0.000000       0.000000       0.000000
      0.000551       0.000117       0.000000
      0.000555       0.000107       0.000000
      0.000549       0.000085       0.000000
      0.000555       0.000107       0.000000
      0.001087       0.000210       0.000000
      0.001056       0.000158       0.000000
      0.000555       0.000107       0.000000
      0.000551       0.000117       0.000000
      0.001104       0.000236       0.000000
      0.001087       0.000210       0.000000
      0.000947       0.000000       0.000000
      0.000956       0.000029       0.000000
      0.001320       0.000032       0.000000
      0.001306       0.000000       0.000000
      0.000956       0.000029       0.000000
      0.000980       0.000063       0.000000
      0.001361       0.000072       0.000000
      0.001320       0.000032       0.000000
      0.001306       0.000000       0.000000
      0.001320       0.000032       0.000000
      0.001589       0.000026       0.000000
      0.001570       0.000000       0.000000
      0.001320       0.000032       0.000000
      0.001361       0.000072       0.000000
      0.001645       0.000061       0.000000
      0.001589       0.000026       0.000000
      0.000980       0.000063       0.000000
      0.001016       0.000106       0.000000
      0.001427       0.000128       0.000000
      0.001361       0.000072       0.000000
      0.001016       0.000106       0.000000
      0.001056       0.000158       0.000000
      0.001511       0.000204       0.000000
      0.001427       0.000128       0.000000
      0.001361       0.000072       0.000000
      0.001427       0.000128       0.000000
      0.001743       0.000115       0.000000
      0.001645       0.000061       0.000000
      0.001427       0.000128       0.000000
      0.001511       0.000204       0.000000
      0.001883       0.000200       0.000000
      0.001743       0.000115       0.000000
      0.001056       0.000158       0.000000
      0.001087       0.000210       0.000000
      0.001596       0.000293       0.000000
      0.001511       0.000204       0.000000
      0.001087       0.000210       0.000000
      0.001104       0.000236       0.000000
      0.001660       0.000349       0.000000
      0.001596       0.000293       0.000000
      0.001511       0.000204       0.000000
      0.001596       0.000293       0.000000
      0.002060       0.000330       0.000000
      0.001883       0.000200       0.000000
      0.001596       0.000293       0.000000
      0.001660       0.000349       0.000000
      0.002223       0.000453       0.000000
      0.002060       0.000330       0.000000
      0.001570       0.000000       0.000000
      0.001589       0.000026       0.000000
      0.001752       0.000012       0.000000
      0.001731       0.000000       0.000000
      0.001589       0.000026       0.000000
      0.001645       0.000061       0.000000
      0.001817       0.000032       0.000000
      0.001752       0.000012       0.000000
      0.001731       0.000000       0.000000
      0.001752       0.000012       0.000000
      0.001807      -0.000006       0.000000
      0.001787       0.000000       0.000000
      0.001752       0.000012       0.000000
      0.001817       0.000032       0.000000
      0.001868      -0.000005       0.000000
      0.001807      -0.000006       0.000000
      0.001645       0.000061       0.000000
      0.001743       0.000115       0.000000
      0.001931       0.000069       0.000000
      0.001817       0.000032       0.000000
      0.001743       0.000115       0.000000
      0.001883       0.000200       0.000000
      0.002107       0.000135       0.000000
      0.001931       0.000069       0.000000
      0.001817       0.000032       0.000000
      0.001931       0.000069       0.000000
      0.001975       0.000010       0.000000
      0.001868      -0.000005       0.000000
      0.001931       0.000069       0.000000
      0.002107       0.000135       0.000000
      0.002137       0.000047       0.000000
      0.001975       0.000010       0.000000
      0.001883       0.000200       0.000000
      0.001968       0.000259       0.000000
      0.002125       0.000234       0.000000
      0.002018       0.000174       0.000000
      0.001968       0.000259       0.000000
      0.002060       0.000330       0.000000
      0.002251       0.000315       0.000000
      0.002125       0.000234       0.000000
      0.002018       0.000174       0.000000
      0.002125       0.000234       0.000000
      0.002226       0.000187       0.000000
      0.002107       0.000135       0.000000
      0.002125       0.000234       0.000000
      0.002251       0.000315       0.000000
      0.002378       0.000263       0.000000
      0.002226       0.000187       0.000000
      0.002060       0.000330       0.000000
      0.002148       0.000405       0.000000
      0.002386       0.000416       0.000000
      0.002251       0.000315       0.000000
      0.002148       0.000405       0.000000
      0.002223       0.000453       0.000000
      0.002508       0.000501       0.000000
      0.002386       0.000416       0.000000
      0.002251       0.000315       0.000000
      0.002386       0.000416       0.000000
      0.002573       0.000387       0.000000
      0.002378       0.000263       0.000000
      0.002386       0.000416       0.000000
      0.002508       0.000501       0.000000
      0.002788       0.000543       0.000000
      0.002573       0.000387       0.000000
      0.002107       0.000135       0.000000
      0.002226       0.000187       0.000000
      0.002260       0.000130       0.000000
      0.002144       0.000090       0.000000
      0.002226       0.000187       0.000000
      0.002378       0.000263       0.000000
      0.002405       0.000186       0.000000
      0.002260       0.000130       0.000000
      0.002144       0.000090       0.000000
      0.002260       0.000130       0.000000
      0.002241       0.000078       0.000000
      0.002137       0.000047       0.000000
      0.002260       0.000130       0.000000
      0.002405       0.000186       0.000000
      0.002356       0.000123       0.000000
      0.002241       0.000078       0.000000
      0.002378       0.000263       0.000000
      0.002470       0.000317       0.000000
      0.002502       0.000275       0.000000
      0.002405       0.000225       0.000000
      0.002470       0.000317       0.000000
      0.002573       0.000387       0.000000
      0.002620       0.000346       0.000000
      0.002502       0.000275       0.000000
      0.002405       0.000225       0.000000
      0.002502       0.000275       0.000000
      0.002496       0.000227       0.000000
      0.002405       0.000186       0.000000
      0.002502       0.000275       0.000000
      0.002620       0.000346       0.000000
      0.002611       0.000288       0.000000
      0.002496       0.000227       0.000000
      0.002573       0.000387       0.000000
      0.002682       0.000470       0.000000
      0.002762       0.000446       0.000000
      0.002620       0.000346       0.000000
      0.002682       0.000470       0.000000
      0.002788       0.000543       0.000000
      0.002920       0.000557       0.000000
      0.002762       0.000446       0.000000
      0.002620       0.000346       0.000000
      0.002762       0.000446       0.000000
      0.002775       0.000390       0.000000
      0.002611       0.000288       0.000000
      0.002762       0.000446       0.000000
      0.002920       0.000557       0.000000
      0.003031       0.000556       0.000000
      0.002775       0.000390       0.000000
      0.002405       0.000186       0.000000
      0.002496       0.000227       0.000000
      0.002458       0.000185       0.000000
      0.002385       0.000151       0.000000
      0.002496       0.000227       0.000000
      0.002611       0.000288       0.000000
      0.002544       0.000232       0.000000
      0.002458       0.000185       0.000000
      0.002385       0.000151       0.000000
      0.002458       0.000185       0.000000
      0.002415       0.000155       0.000000
      0.002356       0.000123       0.000000
      0.002458       0.000185       0.000000
      0.002544       0.000232       0.000000
      0.002470       0.000200       0.000000
      0.002415       0.000155       0.000000
      0.002611       0.000288       0.000000
      0.002685       0.000332       0.000000
      0.002650       0.000296       0.000000
      0.002583       0.000258       0.000000
      0.002685       0.000332       0.000000
      0.002775       0.000390       0.000000
      0.002737       0.000349       0.000000
      0.002650       0.000296       0.000000
      0.002583       0.000258       0.000000
      0.002650       0.000296       0.000000
      0.002597       0.000265       0.000000
      0.002544       0.000232       0.000000
      0.002650       0.000296       0.000000
      0.002737       0.000349       0.000000
      0.002665       0.000309       0.000000
      0.002597       0.000265       0.000000
      0.002775       0.000390       0.000000
      0.002890       0.000468       0.000000
      0.002863       0.000427       0.000000
      0.002737       0.000349       0.000000
      0.002890       0.000468       0.000000
      0.003031       0.000556       0.000000
      0.003062       0.000539       0.000000
      0.002863       0.000427       0.000000
      0.002737       0.000349       0.000000
      0.002863       0.000427       0.000000
      0.002774       0.000373       0.000000
      0.002665       0.000309       0.000000
      0.002863       0.000427       0.000000
      0.003062       0.000539       0.000000
      0.003032       0.000488       0.000000
      0.002774       0.000373       0.000000
      0.002544       0.000232       0.000000
      0.002597       0.000265       0.000000
      0.002540       0.000242       0.000000
      0.002503       0.000213       0.000000
      0.002597       0.000265       0.000000
      0.002665       0.000309       0.000000
      0.002581       0.000281       0.000000
      0.002540       0.000242       0.000000
      0.002503       0.000213       0.000000
      0.002540       0.000242       0.000000
      0.002496       0.000230       0.000000
      0.002470       0.000200       0.000000
      0.002540       0.000242       0.000000
      0.002581       0.000281       0.000000
      0.002522       0.000269       0.000000
      0.002496       0.000230       0.000000
      0.002665       0.000309       0.000000
      0.002774       0.000373       0.000000
      0.002639       0.000330       0.000000
      0.002581       0.000281       0.000000
      0.002774       0.000373       0.000000
      0.003032       0.000488       0.000000
      0.002795       0.000343       0.000000
      0.002639       0.000330       0.000000
      0.002581       0.000281       0.000000
      0.002639       0.000330       0.000000
      0.002571       0.000327       0.000000
      0.002522       0.000269       0.000000
      0.002639       0.000330       0.000000
      0.002795       0.000343       0.000000
      0.006125       0.000442       0.000000
      0.002571       0.000327       0.000000
      0.000000       0.000000       0.000000
      0.000000       0.000000       0.000000
      0.000547       0.000108       0.000000
      0.000551       0.000117       0.000000
      0.000000       0.000000       0.000000
      0.000000       0.000000       0.000000
      0.000550       0.000084       0.000000
      0.000547       0.000108       0.000000
      0.000551       0.000117       0.000000
      0.000547       0.000108       0.000000
      0.001118       0.000214       0.000000
      0.001104       0.000236       0.000000
      0.000547       0.000108       0.000000
      0.000550       0.000084       0.000000
      0.001146       0.000156       0.000000
      0.001118       0.000214       0.000000
      0.000000       0.000000       0.000000
      0.000000       0.000000       0.000000
      0.000564       0.000055       0.000000
      0.000550       0.000084       0.000000
      0.000000       0.000000       0.000000
      0.000000       0.000000       0.000000
      0.000583       0.000031       0.000000
      0.000564       0.000055       0.000000
      0.000550       0.000084       0.000000
      0.000564       0.000055       0.000000
      0.001188       0.000094       0.000000
      0.001146       0.000156       0.000000
      0.000564       0.000055       0.000000
      0.000583       0.000031       0.000000
      0.001230       0.000048       0.000000
      0.001188       0.000094       0.000000
      0.000000       0.000000       0.000000
      0.000000       0.000000       0.000000
      0.000598       0.000014       0.000000
      0.000583       0.000031       0.000000
      0.000000       0.000000       0.000000
      0.000000       0.000000       0.000000
      0.000603       0.000000       0.000000
      0.000598       0.000014       0.000000
      0.000583       0.000031       0.000000
      0.000598       0.000014       0.000000
      0.001261       0.000019       0.000000
      0.001230       0.000048       0.000000
      0.000598       0.000014       0.000000
      0.000603       0.000000       0.000000
      0.001271       0.000000       0.000000
      0.001261       0.000019       0.000000
      0.001104       0.000236       0.000000
      0.001118       0.000214       0.000000
      0.001716       0.000307       0.000000
      0.001660       0.000349       0.000000
      0.001118       0.000214       0.000000
      0.001146       0.000156       0.000000
      0.001794       0.000200       0.000000
      0.001716       0.000307       0.000000
      0.001660       0.000349       0.000000
      0.001716       0.000307       0.000000
      0.002363       0.000373       0.000000
      0.002223       0.000453       0.000000
      0.001716       0.000307       0.000000
      0.001794       0.000200       0.000000
      0.002539       0.000192       0.000000
      0.002363       0.000373       0.000000
      0.001146       0.000156       0.000000
      0.001188       0.000094       0.000000
      0.001884       0.000104       0.000000
      0.001794       0.000200       0.000000
      0.001188       0.000094       0.000000
      0.001230       0.000048       0.000000
      0.001959       0.000044       0.000000
      0.001884       0.000104       0.000000
      0.001794       0.000200       0.000000
      0.001884       0.000104       0.000000
      0.002692       0.000072       0.000000
      0.002539       0.000192       0.000000
      0.001884       0.000104       0.000000
      0.001959       0.000044       0.000000
      0.002795       0.000017       0.000000
      0.002692       0.000072       0.000000
      0.001230       0.000048       0.000000
      0.001261       0.000019       0.000000
      0.002006       0.000014       0.000000
      0.001959       0.000044       0.000000
      0.001261       0.000019       0.000000
      0.001271       0.000000       0.000000
      0.002023       0.000000       0.000000
      0.002006       0.000014       0.000000
      0.001959       0.000044       0.000000
      0.002006       0.000014       0.000000
      0.002852      -0.000000       0.000000
      0.002795       0.000017       0.000000
      0.002006       0.000014       0.000000
      0.002023       0.000000       0.000000
      0.002870       0.000000       0.000000
      0.002852      -0.000000       0.000000
      0.002539       0.000192       0.000000
      0.002692       0.000072       0.000000
      0.003678       0.000009       0.000000
      0.003518       0.000104       0.000000
      0.002692       0.000072       0.000000
      0.002795       0.000017       0.000000
      0.003759      -0.000020       0.000000
      0.003678       0.000009       0.000000
      0.003518       0.000104       0.000000
      0.003678       0.000009       0.000000
      0.004831      -0.000020       0.000000
      0.004863       0.000042       0.000000
      0.003678       0.000009       0.000000
      0.003759      -0.000020       0.000000
      0.004816      -0.000034       0.000000
      0.004831      -0.000020       0.000000
      0.002795       0.000017       0.000000
      0.002852      -0.000000       0.000000
      0.003798      -0.000017       0.000000
      0.003759      -0.000020       0.000000
      0.002852      -0.000000       0.000000
      0.002870       0.000000       0.000000
      0.003810       0.000000       0.000000
      0.003798      -0.000017       0.000000
      0.003759      -0.000020       0.000000
      0.003798      -0.000017       0.000000
      0.004810      -0.000023       0.000000
      0.004816      -0.000034       0.000000
      0.003798      -0.000017       0.000000
      0.003810       0.000000       0.000000
      0.004808       0.000000       0.000000
      0.004810      -0.000023       0.000000
      0.002223       0.000453       0.000000
      0.002290       0.000442       0.000000
      0.002614       0.000488       0.000000
      0.002508       0.000501       0.000000
      0.002290       0.000442       0.000000
      0.002363       0.000373       0.000000
      0.002735       0.000380       0.000000
      0.002614       0.000488       0.000000
      0.002508       0.000501       0.000000
      0.002614       0.000488       0.000000
      0.002988       0.000520       0.000000
      0.002788       0.000543       0.000000
      0.002614       0.000488       0.000000
      0.002735       0.000380       0.000000
      0.003203       0.000346       0.000000
      0.002988       0.000520       0.000000
      0.002363       0.000373       0.000000
      0.002450       0.000280       0.000000
      0.002866       0.000257       0.000000
      0.002735       0.000380       0.000000
      0.002450       0.000280       0.000000
      0.002539       0.000192       0.000000
      0.002986       0.000157       0.000000
      0.002866       0.000257       0.000000
      0.002735       0.000380       0.000000
      0.002866       0.000257       0.000000
      0.003386       0.000200       0.000000