# vtk DataFile Version 2.0
time_10.vtk
ASCII
DATASET UNSTRUCTURED_GRID
POINTS  1152 float
      0.000000       0.000000       0.000000
      0.083333       0.000000       0.000000
      0.083333       0.083333       0.000000
      0.000000       0.083333       0.000000
      0.083333       0.000000       0.000000
      0.166667       0.000000       0.000000
      0.166667       0.083333       0.000000
      0.083333       0.083333       0.000000
      0.000000       0.083333       0.000000
      0.083333       0.083333       0.000000
      0.083333       0.166667       0.000000
      0.000000       0.166667       0.000000
      0.083333       0.083333       0.000000
      0.166667       0.083333       0.000000
      0.166667       0.166667       0.000000
      0.083333       0.166667       0.000000
      0.166667       0.000000       0.000000
      0.250000       0.000000       0.000000
      0.250000       0.083333       0.000000
      0.166667       0.083333       0.000000
      0.250000       0.000000       0.000000
      0.333333       0.000000       0.000000
      0.333333       0.083333       0.000000
      0.250000       0.083333       0.000000
      0.166667       0.083333       0.000000
      0.250000       0.083333       0.000000
      0.250000       0.166667       0.000000
      0.166667       0.166667       0.000000
      0.250000       0.083333       0.000000
      0.333333       0.083333       0.000000
      0.333333       0.166667       0.000000
      0.250000       0.166667       0.000000
      0.333333       0.000000       0.000000
      0.416667       0.000000       0.000000
      0.416667       0.083333       0.000000
      0.333333       0.083333       0.000000
      0.416667       0.000000       0.000000
      0.500000       0.000000       0.000000
      0.500000       0.083333       0.000000
      0.416667       0.083333       0.000000
      0.333333       0.083333       0.000000
      0.416667       0.083333       0.000000
      0.416667       0.166667       0.000000
      0.333333       0.166667       0.000000
      0.416667       0.083333       0.000000
      0.500000       0.083333       0.000000
      0.500000       0.166667       0.000000
      0.416667       0.166667       0.000000
      0.000000       0.166667       0.000000
      0.083333       0.166667       0.000000
      0.083333       0.250000       0.000000
      0.000000       0.250000       0.000000
      0.083333       0.166667       0.000000
      0.166667       0.166667       0.000000
      0.166667       0.250000       0.000000
      0.083333       0.250000       0.000000
      0.000000       0.250000       0.000000
      0.083333       0.250000       0.000000
      0.083333       0.333333       0.000000
      0.000000       0.333333       0.000000
      0.083333       0.250000       0.000000
      0.166667       0.250000       0.000000
      0.166667       0.333333       0.000000
      0.083333       0.333333       0.000000
      0.166667       0.166667       0.000000
      0.250000       0.166667       0.000000
      0.250000       0.250000       0.000000
      0.166667       0.250000       0.000000
      0.250000       0.166667       0.000000
      0.333333       0.166667       0.000000
      0.333333       0.250000       0.000000
      0.250000       0.250000       0.000000
      0.166667       0.250000       0.000000
      0.250000       0.250000       0.000000
      0.250000       0.333333       0.000000
      0.166667       0.333333       0.000000
      0.250000       0.250000       0.000000
      0.333333       0.250000       0.000000
      0.333333       0.333333       0.000000
      0.250000       0.333333       0.000000
      0.333333       0.166667       0.000000
      0.416667       0.166667       0.000000
      0.416667       0.250000       0.000000
      0.333333       0.250000       0.000000
      0.416667       0.166667       0.000000
      0.500000       0.166667       0.000000
      0.500000       0.250000       0.000000
      0.416667       0.250000       0.000000
      0.333333       0.250000       0.000000
      0.416667       0.250000       0.000000
      0.416667       0.333333       0.000000
      0.333333       0.333333       0.000000
      0.416667       0.250000       0.000000
      0.500000       0.250000       0.000000
      0.500000       0.333333       0.000000
      0.416667       0.333333       0.000000
      0.000000       0.333333       0.000000
      0.083333       0.333333       0.000000
      0.083333       0.416667       0.000000
      0.000000       0.416667       0.000000
      0.083333       0.333333       0.000000
      0.166667       0.333333       0.000000
      0.166667       0.416667       0.000000
      0.083333       0.416667       0.000000
      0.000000       0.416667       0.000000
      0.083333       0.416667       0.000000
      0.083333       0.500000       0.000000
      0.000000       0.500000       0.000000
      0.083333       0.416667       0.000000
      0.166667       0.416667       0.000000
      0.166667       0.500000       0.000000
      0.083333       0.500000       0.000000
      0.166667       0.333333       0.000000
      0.250000       0.333333       0.000000
      0.250000       0.416667       0.000000
      0.166667       0.416667       0.000000
      0.250000       0.333333       0.000000
      0.333333       0.333333       0.000000
      0.333333       0.416667       0.000000
      0.250000       0.416667       0.000000
      0.166667       0.416667       0.000000
      0.250000       0.416667       0.000000
      0.250000       0.500000       0.000000
      0.166667       0.500000       0.000000
      0.250000       0.416667       0.000000
      0.333333       0.416667       0.000000
      0.333333       0.500000       0.000000
      0.250000       0.500000       0.000000
      0.333333       0.333333       0.000000
      0.375000       0.333333       0.000000
      0.375000       0.375000       0.000000
      0.333333       0.375000       0.000000
      0.375000       0.333333       0.000000
      0.416667       0.333333       0.000000
      0.416667       0.375000       0.000000
      0.375000       0.375000       0.000000
      0.333333       0.375000       0.000000
      0.375000       0.375000       0.000000
      0.375000       0.416667       0.000000
      0.333333       0.416667       0.000000
      0.375000       0.375000       0.000000
      0.416667       0.375000       0.000000
      0.416667       0.416667       0.000000
      0.375000       0.416667       0.000000
      0.416667       0.333333       0.000000
      0.458333       0.333333       0.000000
      0.458333       0.375000       0.000000
      0.416667       0.375000       0.000000
      0.458333       0.333333       0.000000
      0.500000       0.333333       0.000000
      0.500000       0.375000       0.000000
      0.458333       0.375000       0.000000
      0.416667       0.375000       0.000000
      0.458333       0.375000       0.000000
      0.458333       0.416667       0.000000
      0.416667       0.416667       0.000000
      0.458333       0.375000       0.000000
      0.500000       0.375000       0.000000
      0.500000       0.416667       0.000000
      0.458333       0.416667       0.000000
      0.333333       0.416667       0.000000
      0.375000       0.416667       0.000000
      0.375000       0.458333       0.000000
      0.333333       0.458333       0.000000
      0.375000       0.416667       0.000000
      0.416667       0.416667       0.000000
      0.416667       0.458333       0.000000
      0.375000       0.458333       0.000000
      0.333333       0.458333       0.000000
      0.375000       0.458333       0.000000
      0.375000       0.500000       0.000000
      0.333333       0.500000       0.000000
      0.375000       0.458333       0.000000
      0.416667       0.458333       0.000000
      0.416667       0.500000       0.000000
      0.375000       0.500000       0.000000
      0.416667       0.416667       0.000000
      0.437500       0.416667       0.000000
      0.437500       0.437500       0.000000
      0.416667       0.437500       0.000000
      0.437500       0.416667       0.000000
      0.458333       0.416667       0.000000
      0.458333       0.437500       0.000000
      0.437500       0.437500       0.000000
      0.416667       0.437500       0.000000
      0.437500       0.437500       0.000000
      0.437500       0.458333       0.000000
      0.416667       0.458333       0.000000
      0.437500       0.437500       0.000000
      0.458333       0.437500       0.000000
      0.458333       0.458333       0.000000
      0.437500       0.458333       0.000000
      0.458333       0.416667       0.000000
      0.479167       0.416667       0.000000
      0.479167       0.437500       0.000000
      0.458333       0.437500       0.000000
      0.479167       0.416667       0.000000
      0.500000       0.416667       0.000000
      0.500000       0.437500       0.000000
      0.479167       0.437500       0.000000
      0.458333       0.437500       0.000000
      0.479167       0.437500       0.000000
      0.479167       0.458333       0.000000
      0.458333       0.458333       0.000000
      0.479167       0.437500       0.000000
      0.500000       0.437500       0.000000
      0.500000       0.458333       0.000000
      0.479167       0.458333       0.000000
      0.416667       0.458333       0.000000
      0.437500       0.458333       0.000000
      0.437500       0.479167       0.000000
      0.416667       0.479167       0.000000
      0.437500       0.458333       0.000000
      0.458333       0.458333       0.000000
      0.458333       0.479167       0.000000
      0.437500       0.479167       0.000000
      0.416667       0.479167       0.000000
      0.437500       0.479167       0.000000
      0.437500       0.500000       0.000000
      0.416667       0.500000       0.000000
[...]
POINT_DATA  1152
VECTORS U float 
      0.000000       0.000000       0.000000
      0.000000       0.000000       0.000000
      0.000404       0.000017       0.000000
      0.000403       0.000000       0.000000
      0.000000       0.000000       0.000000
      0.000000       0.000000       0.000000
      0.000407       0.000034       0.000000
      0.000404       0.000017       0.000000
      0.000403       0.000000       0.000000
      0.000404       0.000017       0.000000
      0.000760       0.000031       0.000000
      0.000756       0.000000       0.000000
      0.000404       0.000017       0.000000
      0.000407       0.000034       0.000000
      0.000771       0.000064       0.000000
      0.000760       0.000031       0.000000
      0.000000       0.000000       0.000000
      0.000000       0.000000       0.000000
      0.000410       0.000051       0.000000
      0.000407       0.000034       0.000000
      0.000000       0.000000       0.000000
      0.000000       0.000000       0.000000
      0.000409       0.000065       0.000000
      0.000410       0.000051       0.000000
      0.000407       0.000034       0.000000
      0.000410       0.000051       0.000000
      0.000786       0.000098       0.000000
      0.000771       0.000064       0.000000
      0.000410       0.000051       0.000000
      0.000409       0.000065       0.000000
      0.000798       0.000129       0.000000
      0.000786       0.000098       0.000000
      0.000000       0.000000       0.000000
      0.000000       0.000000       0.000000
      0.000406       0.000072       0.000000
      0.000409       0.000065       0.000000
      0.000000       0.000000       0.000000
      0.000000       0.000000       0.000000
      0.000402       0.000070       0.000000
      0.000406       0.000072       0.000000
      0.000409       0.000065       0.000000
      0.000406       0.000072       0.000000
      0.000806       0.000146       0.000000
      0.000798       0.000129       0.000000
      0.000406       0.000072       0.000000
      0.000402       0.000070       0.000000
      0.000812       0.000139       0.000000
      0.000806       0.000146       0.000000
      0.000756       0.000000       0.000000
      0.000760       0.000031       0.000000
      0.001059       0.000039       0.000000
      0.001050       0.000000       0.000000
      0.000760       0.000031       0.000000
      0.000771       0.000064       0.000000
      0.001085       0.000082       0.000000
      0.001059       0.000039       0.000000
      0.001050       0.000000       0.000000
      0.001059       0.000039       0.000000
      0.001286       0.000038       0.000000
      0.001272       0.000000       0.000000
      0.001059       0.000039       0.000000
      0.001085       0.000082       0.000000
      0.001330       0.000083       0.000000
      0.001286       0.000038       0.000000
      0.000771       0.000064       0.000000
      0.000786       0.000098       0.000000
      0.001122       0.000131       0.000000
      0.001085       0.000082       0.000000
      0.000786       0.000098       0.000000
      0.000798       0.000129       0.000000
      0.001164       0.000181       0.000000
      0.001122       0.000131       0.000000
      0.001085       0.000082       0.000000
      0.001122       0.000131       0.000000
      0.001401       0.000140       0.000000
      0.001330       0.000083       0.000000
      0.001122       0.000131       0.000000
      0.001164       0.000181       0.000000
      0.001493       0.000208       0.000000
      0.001401       0.000140       0.000000
      0.000798       0.000129       0.000000
      0.000806       0.000146       0.000000
      0.001200       0.000214       0.000000
      0.001164       0.000181       0.000000
      0.000806       0.000146       0.000000
      0.000812       0.000139       0.000000
      0.001231       0.000203       0.000000
      0.001200       0.000214       0.000000
      0.001164       0.000181       0.000000
      0.001200       0.000214       0.000000
      0.001588       0.000267       0.000000
      0.001493       0.000208       0.000000
      0.001200       0.000214       0.000000
      0.001231       0.000203       0.000000
      0.001668       0.000257       0.000000
      0.001588       0.000267       0.000000
      0.001272       0.000000       0.000000
      0.001286       0.000038       0.000000
      0.001425       0.000028       0.000000
      0.001406       0.000000       0.000000
      0.001286       0.000038       0.000000
      0.001330       0.000083       0.000000
      0.001484       0.000063       0.000000
      0.001425       0.000028       0.000000
      0.001406       0.000000       0.000000
      0.001425       0.000028       0.000000
      0.001463       0.000011       0.000000
      0.001443       0.000000       0.000000
      0.001425       0.000028       0.000000
      0.001484       0.000063       0.000000
      0.001524       0.000028       0.000000
      0.001463       0.000011       0.000000
      0.001330       0.000083       0.000000
      0.001401       0.000140       0.000000
      0.001588       0.000112       0.000000
      0.001484       0.000063       0.000000
      0.001401       0.000140       0.000000
      0.001493       0.000208       0.000000
      0.001744       0.000183       0.000000
      0.001588       0.000112       0.000000
      0.001484       0.000063       0.000000
      0.001588       0.000112       0.000000
      0.001635       0.000055       0.000000
      0.001524       0.000028       0.000000
      0.001588       0.000112       0.000000
      0.001744       0.000183       0.000000
      0.001819       0.000097       0.000000
      0.001635       0.000055       0.000000
      0.001493       0.000208       0.000000
      0.001542       0.000241       0.000000
      0.001705       0.000245       0.000000
      0.001633       0.000203       0.000000
      0.001542       0.000241       0.000000
      0.001588       0.000267       0.000000
      0.001777       0.000281       0.000000
      0.001705       0.000245       0.000000
      0.001633       0.000203       0.000000
      0.001705       0.000245       0.000000
      0.001844       0.000228       0.000000
      0.001744       0.000183       0.000000
      0.001705       0.000245       0.000000
      0.001777       0.000281       0.000000
      0.001954       0.000277       0.000000
      0.001844       0.000228       0.000000
      0.001588       0.000267       0.000000
      0.001629       0.000275       0.000000
      0.001842       0.000299       0.000000
      0.001777       0.000281       0.000000
      0.001629       0.000275       0.000000
      0.001668       0.000257       0.000000
      0.001901       0.000278       0.000000
      0.001842       0.000299       0.000000
      0.001777       0.000281       0.000000
      0.001842       0.000299       0.000000
      0.002062       0.000315       0.000000
      0.001954       0.000277       0.000000
      0.001842       0.000299       0.000000
      0.001901       0.000278       0.000000
      0.002157       0.000295       0.000000
      0.002062       0.000315       0.000000
      0.001744       0.000183       0.000000
      0.001844       0.000228       0.000000
      0.001936       0.000187       0.000000
      0.001811       0.000146       0.000000
      0.001844       0.000228       0.000000
      0.001954       0.000277       0.000000
      0.002093       0.000239       0.000000
      0.001936       0.000187       0.000000
      0.001811       0.000146       0.000000
      0.001936       0.000187       0.000000
      0.001952       0.000125       0.000000
      0.001819       0.000097       0.000000
      0.001936       0.000187       0.000000
      0.002093       0.000239       0.000000
      0.002131       0.000158       0.000000
      0.001952       0.000125       0.000000
      0.001954       0.000277       0.000000
      0.002009       0.000300       0.000000
      0.002103       0.000291       0.000000
      0.002031       0.000264       0.000000
      0.002009       0.000300       0.000000
      0.002062       0.000315       0.000000
      0.002174       0.000314       0.000000
      0.002103       0.000291       0.000000
      0.002031       0.000264       0.000000
      0.002103       0.000291       0.000000
      0.002184       0.000270       0.000000
      0.002093       0.000239       0.000000
      0.002103       0.000291       0.000000
      0.002174       0.000314       0.000000
      0.002283       0.000302       0.000000
      0.002184       0.000270       0.000000
      0.002062       0.000315       0.000000
      0.002111       0.000315       0.000000
      0.002241       0.000322       0.000000
      0.002174       0.000314       0.000000
      0.002111       0.000315       0.000000
      0.002157       0.000295       0.000000
      0.002301       0.000300       0.000000
      0.002241       0.000322       0.000000
      0.002174       0.000314       0.000000
      0.002241       0.000322       0.000000
      0.002381       0.000324       0.000000
      0.002283       0.000302       0.000000
      0.002241       0.000322       0.000000
      0.002301       0.000300       0.000000
      0.002467       0.000303       0.000000
      0.002381       0.000324       0.000000
      0.002093       0.000239       0.000000
      0.002184       0.000270       0.000000
      0.002239       0.000231       0.000000
      0.002129       0.000202       0.000000
      0.002184       0.000270       0.000000
      0.002283       0.000302       0.000000
      0.002373       0.000266       0.000000
      0.002239       0.000231       0.000000
      0.002129       0.000202       0.000000
      0.002239       0.000231       0.000000
      0.002248       0.000177       0.000000
      0.002131       0.000158       0.000000
      0.002239       0.000231       0.000000
      0.002373       0.000266       0.000000
      0.002399       0.000198       0.000000
      0.002248       0.000177       0.000000
      0.002283       0.000302       0.000000
      0.002333       0.000316       0.000000
      0.002395       0.000306       0.000000
      0.002333       0.000288       0.000000
      0.002333       0.000316       0.000000
      0.002381       0.000324       0.000000
      0.002456       0.000321       0.000000
      0.002395       0.000306       0.000000
      0.002333       0.000288       0.000000
      0.002395       0.000306       0.000000
      0.002450       0.000287       0.000000
      0.002373       0.000266       0.000000
      0.002395       0.000306       0.000000
      0.002456       0.000321       0.000000
      0.002533       0.000309       0.000000
      0.002450       0.000287       0.000000
      0.002381       0.000324       0.000000
      0.002425       0.000321       0.000000
      0.002513       0.000323       0.000000
      0.002456       0.000321       0.000000
      0.002425       0.000321       0.000000
      0.002467       0.000303       0.000000
      0.002566       0.000302       0.000000
      0.002513       0.000323       0.000000
      0.002456       0.000321       0.000000
      0.002513       0.000323       0.000000
      0.002613       0.000321       0.000000
      0.002533       0.000309       0.000000
      0.002513       0.000323       0.000000
      0.002566       0.000302       0.000000
      0.002685       0.000299       0.000000
      0.002613       0.000321       0.000000
      0.002373       0.000266       0.000000
      0.002450       0.000287       0.000000
      0.002490       0.000254       0.000000
      0.002398       0.000235       0.000000
      0.002450       0.000287       0.000000
      0.002533       0.000309       0.000000
      0.002600       0.000279       0.000000
      0.002490       0.000254       0.000000
      0.002398       0.000235       0.000000
      0.002490       0.000254       0.000000
      0.002497       0.000209       0.000000
      0.002399       0.000198       0.000000
      0.002490       0.000254       0.000000
      0.002600       0.000279       0.000000
      0.002623       0.000222       0.000000
      0.002497       0.000209       0.000000
      0.002533       0.000309       0.000000
      0.002613       0.000321       0.000000
      0.002729       0.000309       0.000000
      0.002600       0.000279       0.000000
      0.002613       0.000321       0.000000
      0.002685       0.000299       0.000000
      0.002851       0.000291       0.000000
      0.002729       0.000309       0.000000
      0.002600       0.000279       0.000000
      0.002729       0.000309       0.000000
      0.002804       0.000240       0.000000
      0.002623       0.000222       0.000000
      0.002729       0.000309       0.000000
      0.002851       0.000291       0.000000
      0.003266       0.000246       0.000000
      0.002804       0.000240       0.000000
      0.000000       0.000000       0.000000
      0.000000       0.000000       0.000000
      0.000402       0.000057       0.000000
      0.000402       0.000070       0.000000
      0.000000       0.000000       0.000000
      0.000000       0.000000       0.000000
      0.000410       0.000040       0.000000
      0.000402       0.000057       0.000000
      0.000402       0.000070       0.000000
      0.000402       0.000057       0.000000
      0.000825       0.000109       0.000000
      0.000812       0.000139       0.000000
      0.000402       0.000057       0.000000
      0.000410       0.000040       0.000000
      0.000849       0.000070       0.000000
      0.000825       0.000109       0.000000
      0.000000       0.000000       0.000000
      0.000000       0.000000       0.000000
      0.000422       0.000025       0.000000
      0.000410       0.000040       0.000000
      0.000000       0.000000       0.000000
      0.000000       0.000000       0.000000
      0.000436       0.000014       0.000000
      0.000422       0.000025       0.000000
      0.000410       0.000040       0.000000
      0.000422       0.000025       0.000000
      0.000879       0.000039       0.000000
      0.000849       0.000070       0.000000
      0.000422       0.000025       0.000000
      0.000436       0.000014       0.000000
      0.000905       0.000018       0.000000
      0.000879       0.000039       0.000000
      0.000000       0.000000       0.000000
      0.000000       0.000000       0.000000
      0.000445       0.000006       0.000000
      0.000436       0.000014       0.000000
      0.000000       0.000000       0.000000
      0.000000       0.000000       0.000000
      0.000448       0.000000       0.000000
      0.000445       0.000006       0.000000
      0.000436       0.000014       0.000000
      0.000445       0.000006       0.000000
      0.000923       0.000007       0.000000
      0.000905       0.000018       0.000000
      0.000445       0.000006       0.000000
      0.000448       0.000000       0.000000
      0.000929       0.000000       0.000000
      0.000923       0.000007       0.000000
      0.000812       0.000139       0.000000
      0.000825       0.000109       0.000000
      0.001271       0.000147       0.000000
      0.001231       0.000203       0.000000
      0.000825       0.000109       0.000000
      0.000849       0.000070       0.000000
      0.001324       0.000083       0.000000
      0.001271       0.000147       0.000000
      0.001231       0.000203       0.000000
      0.001271       0.000147       0.000000
      0.001757       0.000160       0.000000
      0.001668       0.000257       0.000000
      0.001271       0.000147       0.000000
      0.001324       0.000083       0.000000
      0.001854       0.000067       0.000000
      0.001757       0.000160       0.000000
      0.000849       0.000070       0.000000
      0.000879       0.000039       0.000000
      0.001376       0.000037       0.000000
      0.001324       0.000083       0.000000
      0.000879       0.000039       0.000000
      0.000905       0.000018       0.000000
      0.001417       0.000012       0.000000
      0.001376       0.000037       0.000000
      0.001324       0.000083       0.000000
      0.001376       0.000037       0.000000
      0.001930       0.000017       0.000000
      0.001854       0.000067       0.000000
      0.001376       0.000037       0.000000
      0.001417       0.000012       0.000000
      0.001980      -0.000003       0.000000
      0.001930       0.000017       0.000000
      0.000905       0.000018       0.000000
      0.000923       0.000007       0.000000
      0.001442       0.000003       0.000000
      0.001417       0.000012       0.000000
      0.000923       0.000007       0.000000
      0.000929       0.000000       0.000000
      0.001450       0.000000       0.000000
      0.001442       0.000003       0.000000
      0.001417       0.000012       0.000000
      0.001442       0.000003       0.000000
      0.002007      -0.000005       0.000000
      0.001980      -0.000003       0.000000
      0.001442       0.000003       0.000000
      0.001450       0.000000       0.000000
      0.002016       0.000000       0.000000
      0.002007      -0.000005       0.000000
      0.001854       0.000067       0.000000
      0.001930       0.000017       0.000000
      0.002558      -0.000015       0.000000
      0.002486       0.000020       0.000000
      0.001930       0.000017       0.000000
      0.001980      -0.000003       0.000000
      0.002597      -0.000022       0.000000
      0.002558      -0.000015       0.000000
      0.002486       0.000020       0.000000
      0.002558      -0.000015       0.000000
      0.003253      -0.000032       0.000000
      0.003254      -0.000014       0.000000
      0.002558      -0.000015       0.000000
      0.002597      -0.000022       0.000000
      0.003252      -0.000030       0.000000
      0.003253      -0.000032       0.000000
      0.001980      -0.000003       0.000000
      0.002007      -0.000005       0.000000
      0.002616      -0.000014       0.000000
      0.002597      -0.000022       0.000000
      0.002007      -0.000005       0.000000
      0.002016       0.000000       0.000000
      0.002622       0.000000       0.000000
      0.002616      -0.000014       0.000000
      0.002597      -0.000022       0.000000
      0.002616      -0.000014       0.000000
      0.003252      -0.000017       0.000000
      0.003252      -0.000030       0.000000
      0.002616      -0.000014       0.000000
      0.002622       0.000000       0.000000
      0.003252       0.000000       0.000000
      0.003252      -0.000017       0.000000
      0.001668       0.000257       0.000000
      0.001710       0.000214       0.000000
      0.001963       0.000219       0.000000
      0.001901       0.000278       0.000000
      0.001710       0.000214       0.000000
      0.001757       0.000160       0.000000
      0.002031       0.000149       0.000000
      0.001963       0.000219       0.000000
      0.001901       0.000278       0.000000
      0.001963       0.000219       0.000000
      0.002253       0.000208       0.000000
      0.002157       0.000295       0.000000
      0.001963       0.000219       0.000000
      0.002031       0.000149       0.000000
      0.002350       0.000119       0.000000
      0.002253       0.000208       0.000000
      0.001757       0.000160       0.000000
      0.001807       0.000109       0.000000
      0.002097       0.000089       0.000000
      0.002031       0.000149       0.000000
      0.001807       0.000109       0.000000
      0.001854       0.000067       0.000000
      0.002154       0.000047       0.000000
      0.002097       0.000089       0.000000
      0.002031       0.000149       0.000000
      0.002097       0.000089       0.000000
      0.002429       0.000058       0.000000