# vtk DataFile Version 2.0
time_10.vtk
ASCII
DATASET UNSTRUCTURED_GRID
POINTS  1428 float
      0.000000       0.000000       0.000000
      0.083333       0.000000       0.000000
      0.083333       0.083333       0.000000
      0.000000       0.083333       0.000000
      0.083333       0.000000       0.000000
      0.166667       0.000000       0.000000
      0.166667       0.083333       0.000000
      0.083333       0.083333       0.000000
      0.000000       0.083333       0.000000
      0.083333       0.083333       0.000000
      0.083333       0.166667       0.000000
      0.000000       0.166667       0.000000
      0.083333       0.083333       0.000000
      0.166667       0.083333       0.000000
      0.166667       0.166667       0.000000
      0.083333       0.166667       0.000000
      0.166667       0.000000       0.000000
      0.250000       0.000000       0.000000
      0.250000       0.083333       0.000000
      0.166667       0.083333       0.000000
      0.250000       0.000000       0.000000
      0.333333       0.000000       0.000000
      0.333333       0.083333       0.000000
      0.250000       0.083333       0.000000
      0.166667       0.083333       0.000000
      0.250000       0.083333       0.000000
      0.250000       0.166667       0.000000
      0.166667       0.166667       0.000000
      0.250000       0.083333       0.000000
      0.333333       0.083333       0.000000
      0.333333       0.166667       0.000000
      0.250000       0.166667       0.000000
      0.333333       0.000000       0.000000
      0.416667       0.000000       0.000000
      0.416667       0.083333       0.000000
      0.333333       0.083333       0.000000
      0.416667       0.000000       0.000000
      0.500000       0.000000       0.000000
      0.500000       0.083333       0.000000
      0.416667       0.083333       0.000000
      0.333333       0.083333       0.000000
      0.416667       0.083333       0.000000
      0.416667       0.166667       0.000000
      0.333333       0.166667       0.000000
      0.416667       0.083333       0.000000
      0.500000       0.083333       0.000000
      0.500000       0.166667       0.000000
      0.416667       0.166667       0.000000
      0.000000       0.166667       0.000000
      0.083333       0.166667       0.000000
      0.083333       0.250000       0.000000
      0.000000       0.250000       0.000000
      0.083333       0.166667       0.000000
      0.166667       0.166667       0.000000
      0.166667       0.250000       0.000000
      0.083333       0.250000       0.000000
      0.000000       0.250000       0.000000
      0.083333       0.250000       0.000000
      0.083333       0.333333       0.000000
      0.000000       0.333333       0.000000
      0.083333       0.250000       0.000000
      0.166667       0.250000       0.000000
      0.166667       0.333333       0.000000
      0.083333       0.333333       0.000000
      0.166667       0.166667       0.000000
      0.250000       0.166667       0.000000
      0.250000       0.250000       0.000000
      0.166667       0.250000       0.000000
      0.250000       0.166667       0.000000
      0.333333       0.166667       0.000000
      0.333333       0.250000       0.000000
      0.250000       0.250000       0.000000
      0.166667       0.250000       0.000000
      0.250000       0.250000       0.000000
      0.250000       0.333333       0.000000
      0.166667       0.333333       0.000000
      0.250000       0.250000       0.000000
      0.333333       0.250000       0.000000
      0.333333       0.333333       0.000000
      0.250000       0.333333       0.000000
      0.333333       0.166667       0.000000
      0.416667       0.166667       0.000000
      0.416667       0.250000       0.000000
      0.333333       0.250000       0.000000
      0.416667       0.166667       0.000000
      0.500000       0.166667       0.000000
      0.500000       0.250000       0.000000
      0.416667       0.250000       0.000000
      0.333333       0.250000       0.000000
      0.416667       0.250000       0.000000
      0.416667       0.333333       0.000000
      0.333333       0.333333       0.000000
      0.000000       0.333333       0.000000
      0.083333       0.333333       0.000000
      0.083333       0.416667       0.000000
      0.000000       0.416667       0.000000
      0.083333       0.333333       0.000000
      0.166667       0.333333       0.000000
      0.166667       0.416667       0.000000
      0.083333       0.416667       0.000000
      0.000000       0.416667       0.000000
      0.083333       0.416667       0.000000
      0.083333       0.500000       0.000000
      0.000000       0.500000       0.000000
      0.083333       0.416667       0.000000
      0.166667       0.416667       0.000000
      0.166667       0.500000       0.000000
      0.083333       0.500000       0.000000
      0.166667       0.333333       0.000000
      0.250000       0.333333       0.000000
      0.250000       0.416667       0.000000
      0.166667       0.416667       0.000000
      0.250000       0.333333       0.000000
      0.333333       0.333333       0.000000
      0.333333       0.416667       0.000000
      0.250000       0.416667       0.000000
      0.166667       0.416667       0.000000
      0.250000       0.416667       0.000000
      0.250000       0.500000       0.000000
      0.166667       0.500000       0.000000
      0.250000       0.416667       0.000000
      0.333333       0.416667       0.000000
      0.333333       0.500000       0.000000
      0.250000       0.500000       0.000000
      0.333333       0.333333       0.000000
      0.375000       0.333333       0.000000
      0.375000       0.375000       0.000000
      0.333333       0.375000       0.000000
      0.375000       0.333333       0.000000
      0.416667       0.333333       0.000000
      0.416667       0.375000       0.000000
      0.375000       0.375000       0.000000
      0.333333       0.375000       0.000000
      0.375000       0.375000       0.000000
      0.375000       0.416667       0.000000
      0.333333       0.416667       0.000000
      0.375000       0.375000       0.000000
      0.416667       0.375000       0.000000
      0.416667       0.416667       0.000000
      0.375000       0.416667       0.000000
      0.416667       0.333333       0.000000
      0.458333       0.333333       0.000000
      0.458333       0.375000       0.000000
      0.416667       0.375000       0.000000
      0.416667       0.375000       0.000000
      0.458333       0.375000       0.000000
      0.458333       0.416667       0.000000
      0.416667       0.416667       0.000000
      0.333333       0.416667       0.000000
      0.375000       0.416667       0.000000
      0.375000       0.458333       0.000000
      0.333333       0.458333       0.000000
      0.375000       0.416667       0.000000
      0.416667       0.416667       0.000000
      0.416667       0.458333       0.000000
      0.375000       0.458333       0.000000
      0.333333       0.458333       0.000000
      0.375000       0.458333       0.000000
      0.375000       0.500000       0.000000
      0.333333       0.500000       0.000000
      0.375000       0.458333       0.000000
      0.416667       0.458333       0.000000
      0.416667       0.500000       0.000000
      0.375000       0.500000       0.000000
      0.416667       0.416667       0.000000
      0.437500       0.416667       0.000000
      0.437500       0.437500       0.000000
      0.416667       0.437500       0.000000
      0.437500       0.416667       0.000000
      0.458333       0.416667       0.000000
      0.458333       0.437500       0.000000
      0.437500       0.437500       0.000000
      0.416667       0.437500       0.000000
      0.437500       0.437500       0.000000
      0.437500       0.458333       0.000000
      0.416667       0.458333       0.000000
      0.437500       0.437500       0.000000
      0.458333       0.437500       0.000000
      0.458333       0.458333       0.000000
      0.437500       0.458333       0.000000
      0.458333       0.416667       0.000000
      0.479167       0.416667       0.000000
      0.479167       0.437500       0.000000
      0.458333       0.437500       0.000000
      0.458333       0.437500       0.000000
      0.479167       0.437500       0.000000
      0.479167       0.458333       0.000000
      0.458333       0.458333       0.000000
      0.416667       0.458333       0.000000
      0.437500       0.458333       0.000000
      0.437500       0.479167       0.000000
      0.416667       0.479167       0.000000
      0.437500       0.458333       0.000000
      0.458333       0.458333       0.000000
      0.458333       0.479167       0.000000
      0.437500       0.479167       0.000000
      0.416667       0.479167       0.000000
      0.437500       0.479167       0.000000
      0.437500       0.500000       0.000000
      0.416667       0.500000       0.000000
      0.437500       0.479167       0.000000
      0.458333       0.479167       0.000000
      0.458333       0.500000       0.000000
      0.437500       0.500000       0.000000
      0.458333       0.458333       0.000000
      0.468750       0.458333       0.000000
      0.468750       0.468750       0.000000
      0.458333       0.468750       0.000000
      0.468750       0.458333       0.000000
      0.479167       0.458333       0.000000
      0.479167       0.468750       0.000000
      0.468750       0.468750       0.000000
      0.458333       0.468750       0.000000
      0.468750       0.468750       0.000000
      0.468750       0.479167       0.000000
      0.458333       0.479167       0.000000
      0.468750       0.468750       0.000000
      0.479167       0.468750       0.000000
      0.479167       0.479167       0.000000
      0.468750       0.479167       0.000000
[...]
POINT_DATA  1428
VECTORS U float 
      0.000000       0.000000       0.000000
      0.000000       0.000000       0.000000
      0.000433       0.000009       0.000000
      0.000425       0.000000       0.000000
      0.000000       0.000000       0.000000
      0.000000       0.000000       0.000000
      0.000455       0.000022       0.000000
      0.000433       0.000009       0.000000
      0.000425       0.000000       0.000000
      0.000433       0.000009       0.000000
      0.000799       0.000008       0.000000
      0.000786       0.000000       0.000000
      0.000433       0.000009       0.000000
      0.000455       0.000022       0.000000
      0.000839       0.000023       0.000000
      0.000799       0.000008       0.000000
      0.000000       0.000000       0.000000
      0.000000       0.000000       0.000000
      0.000490       0.000041       0.000000
      0.000455       0.000022       0.000000
      0.000000       0.000000       0.000000
      0.000000       0.000000       0.000000
      0.000530       0.000072       0.000000
      0.000490       0.000041       0.000000
      0.000455       0.000022       0.000000
      0.000490       0.000041       0.000000
      0.000903       0.000054       0.000000
      0.000839       0.000023       0.000000
      0.000490       0.000041       0.000000
      0.000530       0.000072       0.000000
      0.000986       0.000111       0.000000
      0.000903       0.000054       0.000000
      0.000000       0.000000       0.000000
      0.000000       0.000000       0.000000
      0.000562       0.000113       0.000000
      0.000530       0.000072       0.000000
      0.000000       0.000000       0.000000
      0.000000       0.000000       0.000000
      0.000574       0.000149       0.000000
      0.000562       0.000113       0.000000
      0.000530       0.000072       0.000000
      0.000562       0.000113       0.000000
      0.001069       0.000200       0.000000
      0.000986       0.000111       0.000000
      0.000562       0.000113       0.000000
      0.000574       0.000149       0.000000
      0.001128       0.000293       0.000000
      0.001069       0.000200       0.000000
      0.000786       0.000000       0.000000
      0.000799       0.000008       0.000000
      0.001085      -0.000002       0.000000
      0.001069       0.000000       0.000000
      0.000799       0.000008       0.000000
      0.000839       0.000023       0.000000
      0.001135       0.000006       0.000000
      0.001085      -0.000002       0.000000
      0.001069       0.000000       0.000000
      0.001085      -0.000002       0.000000
      0.001284      -0.000016       0.000000
      0.001268       0.000000       0.000000
      0.001085      -0.000002       0.000000
      0.001135       0.000006       0.000000
      0.001334      -0.000023       0.000000
      0.001284      -0.000016       0.000000
      0.000839       0.000023       0.000000
      0.000903       0.000054       0.000000
      0.001222       0.000034       0.000000
      0.001135       0.000006       0.000000
      0.000903       0.000054       0.000000
      0.000986       0.000111       0.000000
      0.001347       0.000103       0.000000
      0.001222       0.000034       0.000000
      0.001135       0.000006       0.000000
      0.001222       0.000034       0.000000
      0.001423      -0.000010       0.000000
      0.001334      -0.000023       0.000000
      0.001222       0.000034       0.000000
      0.001347       0.000103       0.000000
      0.001565       0.000044       0.000000
      0.001423      -0.000010       0.000000
      0.000986       0.000111       0.000000
      0.001069       0.000200       0.000000
      0.001507       0.000235       0.000000
      0.001347       0.000103       0.000000
      0.001069       0.000200       0.000000
      0.001128       0.000293       0.000000
      0.001662       0.000417       0.000000
      0.001507       0.000235       0.000000
      0.001347       0.000103       0.000000
      0.001507       0.000235       0.000000
      0.001784       0.000178       0.000000
      0.001565       0.000044       0.000000
      0.001268       0.000000       0.000000
      0.001284      -0.000016       0.000000
      0.001404      -0.000029       0.000000
      0.001391       0.000000       0.000000
      0.001284      -0.000016       0.000000
      0.001334      -0.000023       0.000000
      0.001443      -0.000051       0.000000
      0.001404      -0.000029       0.000000
      0.001391       0.000000       0.000000
      0.001404      -0.000029       0.000000
      0.001463      -0.000038       0.000000
      0.001454       0.000000       0.000000
      0.001404      -0.000029       0.000000
      0.001443      -0.000051       0.000000
      0.001488      -0.000069       0.000000
      0.001463      -0.000038       0.000000
      0.001334      -0.000023       0.000000
      0.001423      -0.000010       0.000000
      0.001509      -0.000057       0.000000
      0.001443      -0.000051       0.000000
      0.001423      -0.000010       0.000000
      0.001565       0.000044       0.000000
      0.001610      -0.000030       0.000000
      0.001509      -0.000057       0.000000
      0.001443      -0.000051       0.000000
      0.001509      -0.000057       0.000000
      0.001524      -0.000084       0.000000
      0.001488      -0.000069       0.000000
      0.001509      -0.000057       0.000000
      0.001610      -0.000030       0.000000
      0.001561      -0.000064       0.000000
      0.001524      -0.000084       0.000000
      0.001565       0.000044       0.000000
      0.001662       0.000097       0.000000
      0.001696       0.000048       0.000000
      0.001607       0.000005       0.000000
      0.001662       0.000097       0.000000
      0.001784       0.000178       0.000000
      0.001810       0.000118       0.000000
      0.001696       0.000048       0.000000
      0.001607       0.000005       0.000000
      0.001696       0.000048       0.000000
      0.001676       0.000006       0.000000
      0.001610      -0.000030       0.000000
      0.001696       0.000048       0.000000
      0.001810       0.000118       0.000000
      0.001756       0.000066       0.000000
      0.001676       0.000006       0.000000
      0.001784       0.000178       0.000000
      0.001936       0.000300       0.000000
      0.001964       0.000229       0.000000
      0.001810       0.000118       0.000000
      0.001810       0.000118       0.000000
      0.001964       0.000229       0.000000
      0.001852       0.000162       0.000000
      0.001756       0.000066       0.000000
      0.001610      -0.000030       0.000000
      0.001676       0.000006       0.000000
      0.001626      -0.000020       0.000000
      0.001588      -0.000053       0.000000
      0.001676       0.000006       0.000000
      0.001756       0.000066       0.000000
      0.001664       0.000040       0.000000
      0.001626      -0.000020       0.000000
      0.001588      -0.000053       0.000000
      0.001626      -0.000020       0.000000
      0.001572      -0.000030       0.000000
      0.001561      -0.000064       0.000000
      0.001626      -0.000020       0.000000
      0.001664       0.000040       0.000000
      0.001575       0.000033       0.000000
      0.001572      -0.000030       0.000000
      0.001756       0.000066       0.000000
      0.001801       0.000109       0.000000
      0.001742       0.000092       0.000000
      0.001711       0.000050       0.000000
      0.001801       0.000109       0.000000
      0.001852       0.000162       0.000000
      0.001772       0.000146       0.000000
      0.001742       0.000092       0.000000
      0.001711       0.000050       0.000000
      0.001742       0.000092       0.000000
      0.001681       0.000084       0.000000
      0.001664       0.000040       0.000000
      0.001742       0.000092       0.000000
      0.001772       0.000146       0.000000
      0.001697       0.000139       0.000000
      0.001681       0.000084       0.000000
      0.001852       0.000162       0.000000
      0.001909       0.000231       0.000000
      0.001802       0.000215       0.000000
      0.001772       0.000146       0.000000
      0.001772       0.000146       0.000000
      0.001802       0.000215       0.000000
      0.001710       0.000210       0.000000
      0.001697       0.000139       0.000000
      0.001664       0.000040       0.000000
      0.001681       0.000084       0.000000
      0.001625       0.000080       0.000000
      0.001618       0.000034       0.000000
      0.001681       0.000084       0.000000
      0.001697       0.000139       0.000000
      0.001632       0.000137       0.000000
      0.001625       0.000080       0.000000
      0.001618       0.000034       0.000000
      0.001625       0.000080       0.000000
      0.001573       0.000079       0.000000
      0.001575       0.000033       0.000000
      0.001625       0.000080       0.000000
      0.001632       0.000137       0.000000
      0.001571       0.000136       0.000000
      0.001573       0.000079       0.000000
      0.001697       0.000139       0.000000
      0.001704       0.000172       0.000000
      0.001668       0.000171       0.000000
      0.001663       0.000138       0.000000
      0.001704       0.000172       0.000000
      0.001710       0.000210       0.000000
      0.001672       0.000208       0.000000
      0.001668       0.000171       0.000000
      0.001663       0.000138       0.000000
      0.001668       0.000171       0.000000
      0.001634       0.000170       0.000000
      0.001632       0.000137       0.000000
      0.001668       0.000171       0.000000
      0.001672       0.000208       0.000000
      0.001638       0.000206       0.000000
      0.001634       0.000170       0.000000
      0.001710       0.000210       0.000000
      0.001718       0.000252       0.000000
      0.001678       0.000249       0.000000
      0.001672       0.000208       0.000000
      0.001718       0.000252       0.000000
      0.001727       0.000301       0.000000
      0.001692       0.000302       0.000000
      0.001678       0.000249       0.000000
      0.001672       0.000208       0.000000
      0.001678       0.000249       0.000000
      0.001643       0.000244       0.000000
      0.001638       0.000206       0.000000
      0.001678       0.000249       0.000000
      0.001692       0.000302       0.000000
      0.001647       0.000303       0.000000
      0.001643       0.000244       0.000000
      0.001632       0.000137       0.000000
      0.001634       0.000170       0.000000
      0.001603       0.000169       0.000000
      0.001602       0.000136       0.000000
      0.001634       0.000170       0.000000
      0.001638       0.000206       0.000000
      0.001606       0.000203       0.000000
      0.001603       0.000169       0.000000
      0.001602       0.000136       0.000000
      0.001603       0.000169       0.000000
      0.001572       0.000169       0.000000
      0.001571       0.000136       0.000000
      0.001603       0.000169       0.000000
      0.001606       0.000203       0.000000
      0.001578       0.000205       0.000000
      0.001572       0.000169       0.000000
      0.001638       0.000206       0.000000
      0.001643       0.000244       0.000000
      0.001610       0.000235       0.000000
      0.001606       0.000203       0.000000
      0.001643       0.000244       0.000000
      0.001647       0.000303       0.000000
      0.001373       0.000243       0.000000
      0.001610       0.000235       0.000000
      0.001606       0.000203       0.000000
      0.001610       0.000235       0.000000
      0.001622       0.000249       0.000000
      0.001578       0.000205       0.000000
      0.001610       0.000235       0.000000
      0.001373       0.000243       0.000000
      0.007531       0.000683       0.000000
      0.001622       0.000249       0.000000
      0.001802       0.000215       0.000000
      0.001817       0.000258       0.000000
      0.001763       0.000255       0.000000
      0.001753       0.000212       0.000000
      0.001817       0.000258       0.000000
      0.001832       0.000308       0.000000
      0.001774       0.000306       0.000000
      0.001763       0.000255       0.000000
      0.001753       0.000212       0.000000
      0.001763       0.000255       0.000000
      0.001718       0.000252       0.000000
      0.001710       0.000210       0.000000
      0.001763       0.000255       0.000000
      0.001774       0.000306       0.000000
      0.001727       0.000301       0.000000
      0.001718       0.000252       0.000000
      0.001964       0.000229       0.000000
      0.002065       0.000310       0.000000
      0.002008       0.000265       0.000000
      0.001922       0.000191       0.000000
      0.002065       0.000310       0.000000
      0.002195       0.000421       0.000000
      0.002126       0.000365       0.000000
      0.002008       0.000265       0.000000
      0.001922       0.000191       0.000000
      0.002008       0.000265       0.000000
      0.001909       0.000231       0.000000
      0.001852       0.000162       0.000000
      0.001909       0.000231       0.000000
      0.001942       0.000273       0.000000
      0.001877       0.000263       0.000000
      0.001855       0.000221       0.000000
      0.001942       0.000273       0.000000
      0.001980       0.000322       0.000000
      0.001901       0.000313       0.000000
      0.001877       0.000263       0.000000
      0.001855       0.000221       0.000000
      0.001877       0.000263       0.000000
      0.001817       0.000258       0.000000
      0.001802       0.000215       0.000000
      0.001877       0.000263       0.000000
      0.001901       0.000313       0.000000
      0.001832       0.000308       0.000000
      0.001817       0.000258       0.000000
      0.002008       0.000265       0.000000
      0.002061       0.000311       0.000000
      0.002006       0.000289       0.000000
      0.001962       0.000245       0.000000
      0.002061       0.000311       0.000000
      0.002126       0.000365       0.000000
      0.002058       0.000340       0.000000
      0.002006       0.000289       0.000000
      0.001962       0.000245       0.000000
      0.002006       0.000289       0.000000
      0.001942       0.000273       0.000000
      0.001909       0.000231       0.000000
      0.002006       0.000289       0.000000
      0.002058       0.000340       0.000000
      0.001980       0.000322       0.000000
      0.001942       0.000273       0.000000
      0.001507       0.000235       0.000000
      0.001590       0.000326       0.000000
      0.001794       0.000331       0.000000
      0.001675       0.000220       0.000000
      0.001590       0.000326       0.000000
      0.001662       0.000417       0.000000
      0.001910       0.000461       0.000000
      0.001794       0.000331       0.000000
      0.001675       0.000220       0.000000
      0.001794       0.000331       0.000000
      0.001936       0.000300       0.000000
      0.001784       0.000178       0.000000
      0.001794       0.000331       0.000000
      0.001910       0.000461       0.000000
      0.002117       0.000474       0.000000
      0.001936       0.000300       0.000000
      0.001936       0.000300       0.000000
      0.002024       0.000381       0.000000
      0.002068       0.000352       0.000000
      0.001968       0.000268       0.000000
      0.002024       0.000381       0.000000
      0.002117       0.000474       0.000000
      0.002182       0.000459       0.000000
      0.002068       0.000352       0.000000
      0.001968       0.000268       0.000000
      0.002068       0.000352       0.000000
      0.002065       0.000310       0.000000
      0.001964       0.000229       0.000000
      0.002068       0.000352       0.000000
      0.002182       0.000459       0.000000
      0.002195       0.000421       0.000000
      0.002065       0.000310       0.000000
      0.000000       0.000000       0.000000
      0.000000       0.000000       0.000000
      0.000570       0.000158       0.000000
      0.000574       0.000149       0.000000
      0.000000       0.000000       0.000000
      0.000000       0.000000       0.000000
      0.000569       0.000131       0.000000
      0.000570       0.000158       0.000000
      0.000574       0.000149       0.000000
      0.000570       0.000158       0.000000
      0.001157       0.000318       0.000000
      0.001128       0.000293       0.000000
      0.000570       0.000158       0.000000
      0.000569       0.000131       0.000000
      0.001193       0.000249       0.000000
      0.001157       0.000318       0.000000
      0.000000       0.000000       0.000000
      0.000000       0.000000       0.000000
      0.000586       0.000088       0.000000
      0.000569       0.000131       0.000000
      0.000000       0.000000       0.000000
      0.000000       0.000000       0.000000
      0.000613       0.000049       0.000000
      0.000586       0.000088       0.000000
      0.000569       0.000131       0.000000
      0.000586       0.000088       0.000000
      0.001257       0.000149       0.000000
      0.001193       0.000249       0.000000
      0.000586       0.000088       0.000000
      0.000613       0.000049       0.000000
      0.001325       0.000074       0.000000
      0.001257       0.000149       0.000000
      0.000000       0.000000       0.000000
      0.000000       0.000000       0.000000
      0.000636       0.000021       0.000000
      0.000613       0.000049       0.000000
      0.000000       0.000000       0.000000
      0.000000       0.000000       0.000000
      0.000644       0.000000       0.000000
      0.000636       0.000021       0.000000
      0.000613       0.000049       0.000000
      0.000636       0.000021       0.000000
      0.001374       0.000028       0.000000
      0.001325       0.000074       0.000000
      0.000636       0.000021       0.000000
      0.000644       0.000000       0.000000
      0.001391       0.000000       0.000000
      0.001374       0.000028       0.000000
      0.001128       0.000293       0.000000
      0.001157       0.000318       0.000000
      0.001766       0.000474       0.000000
      0.001662       0.000417       0.000000
      0.001157       0.000318       0.000000
      0.001193       0.000249       0.000000
      0.001892       0.000323       0.000000
      0.001766       0.000474       0.000000
      0.001766       0.000474       0.000000
      0.001892       0.000323       0.000000
      0.002793       0.000295       0.000000
      0.002443       0.000615       0.000000
      0.001193       0.000249       0.000000
      0.001257       0.000149       0.000000
      0.002046       0.000161       0.000000
      0.001892       0.000323       0.000000
      0.001257       0.000149       0.000000
      0.001325       0.000074       0.000000
      0.002169       0.000064       0.000000
      0.002046       0.000161       0.000000
      0.001892       0.000323       0.000000
      0.002046       0.000161       0.000000
      0.003050       0.000103       0.000000
      0.002793       0.000295       0.000000
      0.002046       0.000161       0.000000
      0.002169       0.000064       0.000000
      0.003198       0.000022       0.000000
      0.003050       0.000103       0.000000
      0.001325       0.000074       0.000000
      0.001374       0.000028       0.000000
      0.002244       0.000020       0.000000
      0.002169       0.000064       0.000000
      0.001374       0.000028       0.000000
      0.001391       0.000000       0.000000
      0.002269       0.000000       0.000000