# vtk DataFile Version 2.0
time_10.vtk
ASCII
DATASET UNSTRUCTURED_GRID
POINTS  1152 float
      0.000000       0.000000       0.000000
      0.083333       0.000000       0.000000
      0.083333       0.083333       0.000000
      0.000000       0.083333       0.000000
      0.083333       0.000000       0.000000
      0.166667       0.000000       0.000000
      0.166667       0.083333       0.000000
      0.083333       0.083333       0.000000
      0.000000       0.083333       0.000000
      0.083333       0.083333       0.000000
      0.083333       0.166667       0.000000
      0.000000       0.166667       0.000000
      0.083333       0.083333       0.000000
      0.166667       0.083333       0.000000
      0.166667       0.166667       0.000000
      0.083333       0.166667       0.000000
      0.166667       0.000000       0.000000
      0.250000       0.000000       0.000000
      0.250000       0.083333       0.000000
      0.166667       0.083333       0.000000
      0.250000       0.000000       0.000000
      0.333333       0.000000       0.000000
      0.333333       0.083333       0.000000
      0.250000       0.083333       0.000000
      0.166667       0.083333       0.000000
      0.250000       0.083333       0.000000
      0.250000       0.166667       0.000000
      0.166667       0.166667       0.000000
      0.250000       0.083333       0.000000
      0.333333       0.083333       0.000000
      0.333333       0.166667       0.000000
      0.250000       0.166667       0.000000
      0.333333       0.000000       0.000000
      0.416667       0.000000       0.000000
      0.416667       0.083333       0.000000
      0.333333       0.083333       0.000000
      0.416667       0.000000       0.000000
      0.500000       0.000000       0.000000
      0.500000       0.083333       0.000000
      0.416667       0.083333       0.000000
      0.333333       0.083333       0.000000
      0.416667       0.083333       0.000000
      0.416667       0.166667       0.000000
      0.333333       0.166667       0.000000
      0.416667       0.083333       0.000000
      0.500000       0.083333       0.000000
      0.500000       0.166667       0.000000
      0.416667       0.166667       0.000000
      0.000000       0.166667       0.000000
      0.083333       0.166667       0.000000
      0.083333       0.250000       0.000000
      0.000000       0.250000       0.000000
      0.083333       0.166667       0.000000
      0.166667       0.166667       0.000000
      0.166667       0.250000       0.000000
      0.083333       0.250000       0.000000
      0.000000       0.250000       0.000000
      0.083333       0.250000       0.000000
      0.083333       0.333333       0.000000
      0.000000       0.333333       0.000000
      0.083333       0.250000       0.000000
      0.166667       0.250000       0.000000
      0.166667       0.333333       0.000000
      0.083333       0.333333       0.000000
      0.166667       0.166667       0.000000
      0.250000       0.166667       0.000000
      0.250000       0.250000       0.000000
      0.166667       0.250000       0.000000
      0.250000       0.166667       0.000000
      0.333333       0.166667       0.000000
      0.333333       0.250000       0.000000
      0.250000       0.250000       0.000000
      0.166667       0.250000       0.000000
      0.250000       0.250000       0.000000
      0.250000       0.333333       0.000000
      0.166667       0.333333       0.000000
      0.250000       0.250000       0.000000
      0.333333       0.250000       0.000000
      0.333333       0.333333       0.000000
      0.250000       0.333333       0.000000
      0.333333       0.166667       0.000000
      0.416667       0.166667       0.000000
      0.416667       0.250000       0.000000
      0.333333       0.250000       0.000000
      0.416667       0.166667       0.000000
      0.500000       0.166667       0.000000
      0.500000       0.250000       0.000000
      0.416667       0.250000       0.000000
      0.333333       0.250000       0.000000
      0.416667       0.250000       0.000000
      0.416667       0.333333       0.000000
      0.333333       0.333333       0.000000
      0.416667       0.250000       0.000000
      0.500000       0.250000       0.000000
      0.500000       0.333333       0.000000
      0.416667       0.333333       0.000000
      0.000000       0.333333       0.000000
      0.083333       0.333333       0.000000
      0.083333       0.416667       0.000000
      0.000000       0.416667       0.000000
      0.083333       0.333333       0.000000
      0.166667       0.333333       0.000000
      0.166667       0.416667       0.000000
      0.083333       0.416667       0.000000
      0.000000       0.416667       0.000000
      0.083333       0.416667       0.000000
      0.083333       0.500000       0.000000
      0.000000       0.500000       0.000000
      0.083333       0.416667       0.000000
      0.166667       0.416667       0.000000
      0.166667       0.500000       0.000000
      0.083333       0.500000       0.000000
      0.166667       0.333333       0.000000
      0.250000       0.333333       0.000000
      0.250000       0.416667       0.000000
      0.166667       0.416667       0.000000
      0.250000       0.333333       0.000000
      0.333333       0.333333       0.000000
      0.333333       0.416667       0.000000
      0.250000       0.416667       0.000000
      0.166667       0.416667       0.000000
      0.250000       0.416667       0.000000
      0.250000       0.500000       0.000000
      0.166667       0.500000       0.000000
      0.250000       0.416667       0.000000
      0.333333       0.416667       0.000000
      0.333333       0.500000       0.000000
      0.250000       0.500000       0.000000
      0.333333       0.333333       0.000000
      0.375000       0.333333       0.000000
      0.375000       0.375000       0.000000
      0.333333       0.375000       0.000000
      0.375000       0.333333       0.000000
      0.416667       0.333333       0.000000
      0.416667       0.375000       0.000000
      0.375000       0.375000       0.000000
      0.333333       0.375000       0.000000
      0.375000       0.375000       0.000000
      0.375000       0.416667       0.000000
      0.333333       0.416667       0.000000
      0.375000       0.375000       0.000000
      0.416667       0.375000       0.000000
      0.416667       0.416667       0.000000
      0.375000       0.416667       0.000000
      0.416667       0.333333       0.000000
      0.458333       0.333333       0.000000
      0.458333       0.375000       0.000000
      0.416667       0.375000       0.000000
      0.458333       0.333333       0.000000
      0.500000       0.333333       0.000000
      0.500000       0.375000       0.000000
      0.458333       0.375000       0.000000
      0.416667       0.375000       0.000000
      0.458333       0.375000       0.000000
      0.458333       0.416667       0.000000
      0.416667       0.416667       0.000000
      0.458333       0.375000       0.000000
      0.500000       0.375000       0.000000
      0.500000       0.416667       0.000000
      0.458333       0.416667       0.000000
      0.333333       0.416667       0.000000
      0.375000       0.416667       0.000000
      0.375000       0.458333       0.000000
      0.333333       0.458333       0.000000
      0.375000       0.416667       0.000000
      0.416667       0.416667       0.000000
      0.416667       0.458333       0.000000
      0.375000       0.458333       0.000000
      0.333333       0.458333       0.000000
      0.375000       0.458333       0.000000
      0.375000       0.500000       0.000000
      0.333333       0.500000       0.000000
      0.375000       0.458333       0.000000
      0.416667       0.458333       0.000000
      0.416667       0.500000       0.000000
      0.375000       0.500000       0.000000
      0.416667       0.416667       0.000000
      0.437500       0.416667       0.000000
      0.437500       0.437500       0.000000
      0.416667       0.437500       0.000000
      0.437500       0.416667       0.000000
      0.458333       0.416667       0.000000
      0.458333       0.437500       0.000000
      0.437500       0.437500       0.000000
      0.416667       0.437500       0.000000
      0.437500       0.437500       0.000000
      0.437500       0.458333       0.000000
      0.416667       0.458333       0.000000
      0.437500       0.437500       0.000000
      0.458333       0.437500       0.000000
      0.458333       0.458333       0.000000
      0.437500       0.458333       0.000000
      0.458333       0.416667       0.000000
      0.479167       0.416667       0.000000
      0.479167       0.437500       0.000000
      0.458333       0.437500       0.000000
      0.479167       0.416667       0.000000
      0.500000       0.416667       0.000000
      0.500000       0.437500       0.000000
      0.479167       0.437500       0.000000
      0.458333       0.437500       0.000000
      0.479167       0.437500       0.000000
      0.479167       0.458333       0.000000
      0.458333       0.458333       0.000000
      0.479167       0.437500       0.000000
      0.500000       0.437500       0.000000
      0.500000       0.458333       0.000000
      0.479167       0.458333       0.000000
      0.416667       0.458333       0.000000
      0.437500       0.458333       0.000000
      0.437500       0.479167       0.000000
      0.416667       0.479167       0.000000
      0.437500       0.458333       0.000000
      0.458333       0.458333       0.000000
      0.458333       0.479167       0.000000
      0.437500       0.479167       0.000000
      0.416667       0.479167       0.000000
      0.437500       0.479167       0.000000
      0.437500       0.500000       0.000000
      0.416667       0.500000       0.000000
[...]
POINT_DATA  1152
VECTORS U float 
      0.000000       0.000000       0.000000
      0.000000       0.000000       0.000000
      0.000315       0.000013       0.000000
      0.000315       0.000000       0.000000
      0.000000       0.000000       0.000000
      0.000000       0.000000       0.000000
      0.000317       0.000027       0.000000
      0.000315       0.000013       0.000000
      0.000315       0.000000       0.000000
      0.000315       0.000013       0.000000
      0.000594       0.000025       0.000000
      0.000591       0.000000       0.000000
      0.000315       0.000013       0.000000
      0.000317       0.000027       0.000000
      0.000602       0.000051       0.000000
      0.000594       0.000025       0.000000
      0.000000       0.000000       0.000000
      0.000000       0.000000       0.000000
      0.000319       0.000040       0.000000
      0.000317       0.000027       0.000000
      0.000000       0.000000       0.000000
      0.000000       0.000000       0.000000
      0.000318       0.000051       0.000000
      0.000319       0.000040       0.000000
      0.000317       0.000027       0.000000
      0.000319       0.000040       0.000000
      0.000612       0.000077       0.000000
      0.000602       0.000051       0.000000
      0.000319       0.000040       0.000000
      0.000318       0.000051       0.000000
      0.000621       0.000100       0.000000
      0.000612       0.000077       0.000000
      0.000000       0.000000       0.000000
      0.000000       0.000000       0.000000
      0.000315       0.000056       0.000000
      0.000318       0.000051       0.000000
      0.000000       0.000000       0.000000
      0.000000       0.000000       0.000000
      0.000312       0.000053       0.000000
      0.000315       0.000056       0.000000
      0.000318       0.000051       0.000000
      0.000315       0.000056       0.000000
      0.000626       0.000112       0.000000
      0.000621       0.000100       0.000000
      0.000315       0.000056       0.000000
      0.000312       0.000053       0.000000
      0.000631       0.000105       0.000000
      0.000626       0.000112       0.000000
      0.000591       0.000000       0.000000
      0.000594       0.000025       0.000000
      0.000828       0.000031       0.000000
      0.000821       0.000000       0.000000
      0.000594       0.000025       0.000000
      0.000602       0.000051       0.000000
      0.000847       0.000066       0.000000
      0.000828       0.000031       0.000000
      0.000821       0.000000       0.000000
      0.000828       0.000031       0.000000
      0.001006       0.000031       0.000000
      0.000995       0.000000       0.000000
      0.000828       0.000031       0.000000
      0.000847       0.000066       0.000000
      0.001040       0.000067       0.000000
      0.001006       0.000031       0.000000
      0.000602       0.000051       0.000000
      0.000612       0.000077       0.000000
      0.000876       0.000104       0.000000
      0.000847       0.000066       0.000000
      0.000612       0.000077       0.000000
      0.000621       0.000100       0.000000
      0.000907       0.000142       0.000000
      0.000876       0.000104       0.000000
      0.000847       0.000066       0.000000
      0.000876       0.000104       0.000000
      0.001096       0.000112       0.000000
      0.001040       0.000067       0.000000
      0.000876       0.000104       0.000000
      0.000907       0.000142       0.000000
      0.001166       0.000164       0.000000
      0.001096       0.000112       0.000000
      0.000621       0.000100       0.000000
      0.000626       0.000112       0.000000
      0.000933       0.000165       0.000000
      0.000907       0.000142       0.000000
      0.000626       0.000112       0.000000
      0.000631       0.000105       0.000000
      0.000957       0.000153       0.000000
      0.000933       0.000165       0.000000
      0.000907       0.000142       0.000000
      0.000933       0.000165       0.000000
      0.001237       0.000207       0.000000
      0.001166       0.000164       0.000000
      0.000933       0.000165       0.000000
      0.000957       0.000153       0.000000
      0.001297       0.000193       0.000000
      0.001237       0.000207       0.000000
      0.000995       0.000000       0.000000
      0.001006       0.000031       0.000000
      0.001115       0.000023       0.000000
      0.001100       0.000000       0.000000
      0.001006       0.000031       0.000000
      0.001040       0.000067       0.000000
      0.001162       0.000051       0.000000
      0.001115       0.000023       0.000000
      0.001100       0.000000       0.000000
      0.001115       0.000023       0.000000
      0.001145       0.000010       0.000000
      0.001129       0.000000       0.000000
      0.001115       0.000023       0.000000
      0.001162       0.000051       0.000000
      0.001193       0.000024       0.000000
      0.001145       0.000010       0.000000
      0.001040       0.000067       0.000000
      0.001096       0.000112       0.000000
      0.001244       0.000091       0.000000
      0.001162       0.000051       0.000000
      0.001096       0.000112       0.000000
      0.001166       0.000164       0.000000
      0.001367       0.000147       0.000000
      0.001244       0.000091       0.000000
      0.001162       0.000051       0.000000
      0.001244       0.000091       0.000000
      0.001282       0.000046       0.000000
      0.001193       0.000024       0.000000
      0.001244       0.000091       0.000000
      0.001367       0.000147       0.000000
      0.001429       0.000080       0.000000
      0.001282       0.000046       0.000000
      0.001166       0.000164       0.000000
      0.001203       0.000189       0.000000
      0.001332       0.000193       0.000000
      0.001278       0.000162       0.000000
      0.001203       0.000189       0.000000
      0.001237       0.000207       0.000000
      0.001387       0.000219       0.000000
      0.001332       0.000193       0.000000
      0.001278       0.000162       0.000000
      0.001332       0.000193       0.000000
      0.001444       0.000182       0.000000
      0.001367       0.000147       0.000000
      0.001332       0.000193       0.000000
      0.001387       0.000219       0.000000
      0.001529       0.000218       0.000000
      0.001444       0.000182       0.000000
      0.001237       0.000207       0.000000
      0.001268       0.000210       0.000000
      0.001435       0.000229       0.000000
      0.001387       0.000219       0.000000
      0.001268       0.000210       0.000000
      0.001297       0.000193       0.000000
      0.001479       0.000209       0.000000
      0.001435       0.000229       0.000000
      0.001387       0.000219       0.000000
      0.001435       0.000229       0.000000
      0.001610       0.000242       0.000000
      0.001529       0.000218       0.000000
      0.001435       0.000229       0.000000
      0.001479       0.000209       0.000000
      0.001679       0.000220       0.000000
      0.001610       0.000242       0.000000
      0.001367       0.000147       0.000000
      0.001444       0.000182       0.000000
      0.001521       0.000150       0.000000
      0.001422       0.000118       0.000000
      0.001444       0.000182       0.000000
      0.001529       0.000218       0.000000
      0.001643       0.000190       0.000000
      0.001521       0.000150       0.000000
      0.001422       0.000118       0.000000
      0.001521       0.000150       0.000000
      0.001535       0.000102       0.000000
      0.001429       0.000080       0.000000
      0.001521       0.000150       0.000000
      0.001643       0.000190       0.000000
      0.001678       0.000127       0.000000
      0.001535       0.000102       0.000000
      0.001529       0.000218       0.000000
      0.001570       0.000234       0.000000
      0.001646       0.000228       0.000000
      0.001592       0.000209       0.000000
      0.001570       0.000234       0.000000
      0.001610       0.000242       0.000000
      0.001700       0.000243       0.000000
      0.001646       0.000228       0.000000
      0.001592       0.000209       0.000000
      0.001646       0.000228       0.000000
      0.001714       0.000213       0.000000
      0.001643       0.000190       0.000000
      0.001646       0.000228       0.000000
      0.001700       0.000243       0.000000
      0.001789       0.000236       0.000000
      0.001714       0.000213       0.000000
      0.001610       0.000242       0.000000
      0.001645       0.000239       0.000000
      0.001748       0.000245       0.000000
      0.001700       0.000243       0.000000
      0.001645       0.000239       0.000000
      0.001679       0.000220       0.000000
      0.001792       0.000223       0.000000
      0.001748       0.000245       0.000000
      0.001700       0.000243       0.000000
      0.001748       0.000245       0.000000
      0.001860       0.000247       0.000000
      0.001789       0.000236       0.000000
      0.001748       0.000245       0.000000
      0.001792       0.000223       0.000000
      0.001922       0.000224       0.000000
      0.001860       0.000247       0.000000
      0.001643       0.000190       0.000000
      0.001714       0.000213       0.000000
      0.001761       0.000184       0.000000
      0.001675       0.000162       0.000000
      0.001714       0.000213       0.000000
      0.001789       0.000236       0.000000
      0.001864       0.000209       0.000000
      0.001761       0.000184       0.000000
      0.001675       0.000162       0.000000
      0.001761       0.000184       0.000000
      0.001771       0.000142       0.000000
      0.001678       0.000127       0.000000
      0.001761       0.000184       0.000000
      0.001864       0.000209       0.000000
      0.001889       0.000158       0.000000
      0.001771       0.000142       0.000000
      0.001789       0.000236       0.000000
      0.001825       0.000244       0.000000
      0.001876       0.000238       0.000000
      0.001830       0.000226       0.000000
      0.001825       0.000244       0.000000
      0.001860       0.000247       0.000000
      0.001920       0.000245       0.000000
      0.001876       0.000238       0.000000
      0.001830       0.000226       0.000000
      0.001876       0.000238       0.000000
      0.001922       0.000224       0.000000
      0.001864       0.000209       0.000000
      0.001876       0.000238       0.000000
      0.001920       0.000245       0.000000
      0.001982       0.000238       0.000000
      0.001922       0.000224       0.000000
      0.001860       0.000247       0.000000
      0.001892       0.000242       0.000000
      0.001961       0.000243       0.000000
      0.001920       0.000245       0.000000
      0.001892       0.000242       0.000000
      0.001922       0.000224       0.000000
      0.001998       0.000224       0.000000
      0.001961       0.000243       0.000000
      0.001920       0.000245       0.000000
      0.001961       0.000243       0.000000
      0.002039       0.000243       0.000000
      0.001982       0.000238       0.000000
      0.001961       0.000243       0.000000
      0.001998       0.000224       0.000000
      0.002089       0.000221       0.000000
      0.002039       0.000243       0.000000
      0.001864       0.000209       0.000000
      0.001922       0.000224       0.000000
      0.001956       0.000200       0.000000
      0.001886       0.000186       0.000000
      0.001922       0.000224       0.000000
      0.001982       0.000238       0.000000
      0.002038       0.000216       0.000000
      0.001956       0.000200       0.000000
      0.001886       0.000186       0.000000
      0.001956       0.000200       0.000000
      0.001964       0.000166       0.000000
      0.001889       0.000158       0.000000
      0.001956       0.000200       0.000000
      0.002038       0.000216       0.000000
      0.002058       0.000176       0.000000
      0.001964       0.000166       0.000000
      0.001982       0.000238       0.000000
      0.002039       0.000243       0.000000
      0.002129       0.000235       0.000000
      0.002038       0.000216       0.000000
      0.002039       0.000243       0.000000
      0.002089       0.000221       0.000000
      0.002212       0.000215       0.000000
      0.002129       0.000235       0.000000
      0.002038       0.000216       0.000000
      0.002129       0.000235       0.000000
      0.002189       0.000187       0.000000
      0.002058       0.000176       0.000000
      0.002129       0.000235       0.000000
      0.002212       0.000215       0.000000
      0.002505       0.000183       0.000000
      0.002189       0.000187       0.000000
      0.000000       0.000000       0.000000
      0.000000       0.000000       0.000000
      0.000312       0.000043       0.000000
      0.000312       0.000053       0.000000
      0.000000       0.000000       0.000000
      0.000000       0.000000       0.000000
      0.000319       0.000030       0.000000
      0.000312       0.000043       0.000000
      0.000312       0.000053       0.000000
      0.000312       0.000043       0.000000
      0.000641       0.000081       0.000000
      0.000631       0.000105       0.000000
      0.000312       0.000043       0.000000
      0.000319       0.000030       0.000000
      0.000660       0.000052       0.000000
      0.000641       0.000081       0.000000
      0.000000       0.000000       0.000000
      0.000000       0.000000       0.000000
      0.000329       0.000018       0.000000
      0.000319       0.000030       0.000000
      0.000000       0.000000       0.000000
      0.000000       0.000000       0.000000
      0.000339       0.000010       0.000000
      0.000329       0.000018       0.000000
      0.000319       0.000030       0.000000
      0.000329       0.000018       0.000000
      0.000683       0.000028       0.000000
      0.000660       0.000052       0.000000
      0.000329       0.000018       0.000000
      0.000339       0.000010       0.000000
      0.000703       0.000013       0.000000
      0.000683       0.000028       0.000000
      0.000000       0.000000       0.000000
      0.000000       0.000000       0.000000
      0.000346       0.000004       0.000000
      0.000339       0.000010       0.000000
      0.000000       0.000000       0.000000
      0.000000       0.000000       0.000000
      0.000349       0.000000       0.000000
      0.000346       0.000004       0.000000
      0.000339       0.000010       0.000000
      0.000346       0.000004       0.000000
      0.000717       0.000005       0.000000
      0.000703       0.000013       0.000000
      0.000346       0.000004       0.000000
      0.000349       0.000000       0.000000
      0.000722       0.000000       0.000000
      0.000717       0.000005       0.000000
      0.000631       0.000105       0.000000
      0.000641       0.000081       0.000000
      0.000988       0.000109       0.000000
      0.000957       0.000153       0.000000
      0.000641       0.000081       0.000000
      0.000660       0.000052       0.000000
      0.001028       0.000060       0.000000
      0.000988       0.000109       0.000000
      0.000957       0.000153       0.000000
      0.000988       0.000109       0.000000
      0.001365       0.000116       0.000000
      0.001297       0.000193       0.000000
      0.000988       0.000109       0.000000
      0.001028       0.000060       0.000000
      0.001438       0.000047       0.000000
      0.001365       0.000116       0.000000
      0.000660       0.000052       0.000000
      0.000683       0.000028       0.000000
      0.001068       0.000026       0.000000
      0.001028       0.000060       0.000000
      0.000683       0.000028       0.000000
      0.000703       0.000013       0.000000
      0.001099       0.000008       0.000000
      0.001068       0.000026       0.000000
      0.001028       0.000060       0.000000
      0.001068       0.000026       0.000000
      0.001495       0.000010       0.000000
      0.001438       0.000047       0.000000
      0.001068       0.000026       0.000000
      0.001099       0.000008       0.000000
      0.001531      -0.000003       0.000000
      0.001495       0.000010       0.000000
      0.000703       0.000013       0.000000
      0.000717       0.000005       0.000000
      0.001118       0.000002       0.000000
      0.001099       0.000008       0.000000
      0.000717       0.000005       0.000000
      0.000722       0.000000       0.000000
      0.001124       0.000000       0.000000
      0.001118       0.000002       0.000000
      0.001099       0.000008       0.000000
      0.001118       0.000002       0.000000
      0.001552      -0.000005       0.000000
      0.001531      -0.000003       0.000000
      0.001118       0.000002       0.000000
      0.001124       0.000000       0.000000
      0.001558       0.000000       0.000000
      0.001552      -0.000005       0.000000
      0.001438       0.000047       0.000000
      0.001495       0.000010       0.000000
      0.001975      -0.000013       0.000000
      0.001923       0.000012       0.000000
      0.001495       0.000010       0.000000
      0.001531      -0.000003       0.000000
      0.002003      -0.000017       0.000000
      0.001975      -0.000013       0.000000
      0.001923       0.000012       0.000000
      0.001975      -0.000013       0.000000
      0.002501      -0.000025       0.000000
      0.002501      -0.000013       0.000000
      0.001975      -0.000013       0.000000
      0.002003      -0.000017       0.000000
      0.002501      -0.000023       0.000000
      0.002501      -0.000025       0.000000
      0.001531      -0.000003       0.000000
      0.001552      -0.000005       0.000000
      0.002017      -0.000011       0.000000
      0.002003      -0.000017       0.000000
      0.001552      -0.000005       0.000000
      0.001558       0.000000       0.000000
      0.002021       0.000000       0.000000
      0.002017      -0.000011       0.000000
      0.002003      -0.000017       0.000000
      0.002017      -0.000011       0.000000
      0.002501      -0.000013       0.000000
      0.002501      -0.000023       0.000000
      0.002017      -0.000011       0.000000
      0.002021       0.000000       0.000000
      0.002501       0.000000       0.000000
      0.002501      -0.000013       0.000000
      0.001297       0.000193       0.000000
      0.001329       0.000158       0.000000
      0.001526       0.000161       0.000000
      0.001479       0.000209       0.000000
      0.001329       0.000158       0.000000
      0.001365       0.000116       0.000000
      0.001578       0.000107       0.000000
      0.001526       0.000161       0.000000
      0.001479       0.000209       0.000000
      0.001526       0.000161       0.000000
      0.001752       0.000150       0.000000
      0.001679       0.000220       0.000000
      0.001526       0.000161       0.000000
      0.001578       0.000107       0.000000
      0.001824       0.000084       0.000000
      0.001752       0.000150       0.000000
      0.001365       0.000116       0.000000
      0.001403       0.000078       0.000000
      0.001627       0.000063       0.000000
      0.001578       0.000107       0.000000
      0.001403       0.000078       0.000000
      0.001438       0.000047       0.000000
      0.001669       0.000032       0.000000
      0.001627       0.000063       0.000000
      0.001578       0.000107       0.000000
      0.001627       0.000063       0.000000
      0.001881       0.000039       0.000000