# vtk DataFile Version 2.0
time_10.vtk
ASCII
DATASET UNSTRUCTURED_GRID
POINTS  1344 float
      0.000000       0.000000       0.000000
      0.083333       0.000000       0.000000
      0.083333       0.083333       0.000000
      0.000000       0.083333       0.000000
      0.083333       0.000000       0.000000
      0.166667       0.000000       0.000000
      0.166667       0.083333       0.000000
      0.083333       0.083333       0.000000
      0.000000       0.083333       0.000000
      0.083333       0.083333       0.000000
      0.083333       0.166667       0.000000
      0.000000       0.166667       0.000000
      0.083333       0.083333       0.000000
      0.166667       0.083333       0.000000
      0.166667       0.166667       0.000000
      0.083333       0.166667       0.000000
      0.166667       0.000000       0.000000
      0.250000       0.000000       0.000000
      0.250000       0.083333       0.000000
      0.166667       0.083333       0.000000
      0.250000       0.000000       0.000000
      0.333333       0.000000       0.000000
      0.333333       0.083333       0.000000
      0.250000       0.083333       0.000000
      0.166667       0.083333       0.000000
      0.250000       0.083333       0.000000
      0.250000       0.166667       0.000000
      0.166667       0.166667       0.000000
      0.250000       0.083333       0.000000
      0.333333       0.083333       0.000000
      0.333333       0.166667       0.000000
      0.250000       0.166667       0.000000
      0.333333       0.000000       0.000000
      0.416667       0.000000       0.000000
      0.416667       0.083333       0.000000
      0.333333       0.083333       0.000000
      0.416667       0.000000       0.000000
      0.500000       0.000000       0.000000
      0.500000       0.083333       0.000000
      0.416667       0.083333       0.000000
      0.333333       0.083333       0.000000
      0.416667       0.083333       0.000000
      0.416667       0.166667       0.000000
      0.333333       0.166667       0.000000
      0.416667       0.083333       0.000000
      0.500000       0.083333       0.000000
      0.500000       0.166667       0.000000
      0.416667       0.166667       0.000000
      0.000000       0.166667       0.000000
      0.083333       0.166667       0.000000
      0.083333       0.250000       0.000000
      0.000000       0.250000       0.000000
      0.083333       0.166667       0.000000
      0.166667       0.166667       0.000000
      0.166667       0.250000       0.000000
      0.083333       0.250000       0.000000
      0.000000       0.250000       0.000000
      0.083333       0.250000       0.000000
      0.083333       0.333333       0.000000
      0.000000       0.333333       0.000000
      0.083333       0.250000       0.000000
      0.166667       0.250000       0.000000
      0.166667       0.333333       0.000000
      0.083333       0.333333       0.000000
      0.166667       0.166667       0.000000
      0.250000       0.166667       0.000000
      0.250000       0.250000       0.000000
      0.166667       0.250000       0.000000
      0.250000       0.166667       0.000000
      0.333333       0.166667       0.000000
      0.333333       0.250000       0.000000
      0.250000       0.250000       0.000000
      0.166667       0.250000       0.000000
      0.250000       0.250000       0.000000
      0.250000       0.333333       0.000000
      0.166667       0.333333       0.000000
      0.250000       0.250000       0.000000
      0.333333       0.250000       0.000000
      0.333333       0.333333       0.000000
      0.250000       0.333333       0.000000
      0.333333       0.166667       0.000000
      0.416667       0.166667       0.000000
      0.416667       0.250000       0.000000
      0.333333       0.250000       0.000000
      0.416667       0.166667       0.000000
      0.500000       0.166667       0.000000
      0.500000       0.250000       0.000000
      0.416667       0.250000       0.000000
      0.333333       0.250000       0.000000
      0.416667       0.250000       0.000000
      0.416667       0.333333       0.000000
      0.333333       0.333333       0.000000
      0.416667       0.250000       0.000000
      0.500000       0.250000       0.000000
      0.500000       0.333333       0.000000
      0.416667       0.333333       0.000000
      0.000000       0.333333       0.000000
      0.083333       0.333333       0.000000
      0.083333       0.416667       0.000000
      0.000000       0.416667       0.000000
      0.083333       0.333333       0.000000
      0.166667       0.333333       0.000000
      0.166667       0.416667       0.000000
      0.083333       0.416667       0.000000
      0.000000       0.416667       0.000000
      0.083333       0.416667       0.000000
      0.083333       0.500000       0.000000
      0.000000       0.500000       0.000000
      0.083333       0.416667       0.000000
      0.166667       0.416667       0.000000
      0.166667       0.500000       0.000000
      0.083333       0.500000       0.000000
      0.166667       0.333333       0.000000
      0.250000       0.333333       0.000000
      0.250000       0.416667       0.000000
      0.166667       0.416667       0.000000
      0.250000       0.333333       0.000000
      0.333333       0.333333       0.000000
      0.333333       0.416667       0.000000
      0.250000       0.416667       0.000000
      0.166667       0.416667       0.000000
      0.250000       0.416667       0.000000
      0.250000       0.500000       0.000000
      0.166667       0.500000       0.000000
      0.250000       0.416667       0.000000
      0.333333       0.416667       0.000000
      0.333333       0.500000       0.000000
      0.250000       0.500000       0.000000
      0.333333       0.333333       0.000000
      0.375000       0.333333       0.000000
      0.375000       0.375000       0.000000
      0.333333       0.375000       0.000000
      0.375000       0.333333       0.000000
      0.416667       0.333333       0.000000
      0.416667       0.375000       0.000000
      0.375000       0.375000       0.000000
      0.333333       0.375000       0.000000
      0.375000       0.375000       0.000000
      0.375000       0.416667       0.000000
      0.333333       0.416667       0.000000
      0.375000       0.375000       0.000000
      0.416667       0.375000       0.000000
      0.416667       0.416667       0.000000
      0.375000       0.416667       0.000000
      0.416667       0.333333       0.000000
      0.458333       0.333333       0.000000
      0.458333       0.375000       0.000000
      0.416667       0.375000       0.000000
      0.458333       0.333333       0.000000
      0.500000       0.333333       0.000000
      0.500000       0.375000       0.000000
      0.458333       0.375000       0.000000
      0.416667       0.375000       0.000000
      0.458333       0.375000       0.000000
      0.458333       0.416667       0.000000
      0.416667       0.416667       0.000000
      0.333333       0.416667       0.000000
      0.375000       0.416667       0.000000
      0.375000       0.458333       0.000000
      0.333333       0.458333       0.000000
      0.375000       0.416667       0.000000
      0.416667       0.416667       0.000000
      0.416667       0.458333       0.000000
      0.375000       0.458333       0.000000
      0.333333       0.458333       0.000000
      0.375000       0.458333       0.000000
      0.375000       0.500000       0.000000
      0.333333       0.500000       0.000000
      0.375000       0.458333       0.000000
      0.416667       0.458333       0.000000
      0.416667       0.500000       0.000000
      0.375000       0.500000       0.000000
      0.416667       0.416667       0.000000
      0.437500       0.416667       0.000000
      0.437500       0.437500       0.000000
      0.416667       0.437500       0.000000
      0.437500       0.416667       0.000000
      0.458333       0.416667       0.000000
      0.458333       0.437500       0.000000
      0.437500       0.437500       0.000000
      0.416667       0.437500       0.000000
      0.437500       0.437500       0.000000
      0.437500       0.458333       0.000000
      0.416667       0.458333       0.000000
      0.437500       0.437500       0.000000
      0.458333       0.437500       0.000000
      0.458333       0.458333       0.000000
      0.437500       0.458333       0.000000
      0.458333       0.416667       0.000000
      0.479167       0.416667       0.000000
      0.479167       0.437500       0.000000
      0.458333       0.437500       0.000000
      0.458333       0.437500       0.000000
      0.479167       0.437500       0.000000
      0.479167       0.458333       0.000000
      0.458333       0.458333       0.000000
      0.416667       0.458333       0.000000
      0.437500       0.458333       0.000000
      0.437500       0.479167       0.000000
      0.416667       0.479167       0.000000
      0.437500       0.458333       0.000000
      0.458333       0.458333       0.000000
      0.458333       0.479167       0.000000
      0.437500       0.479167       0.000000
      0.416667       0.479167       0.000000
      0.437500       0.479167       0.000000
      0.437500       0.500000       0.000000
      0.416667       0.500000       0.000000
      0.437500       0.479167       0.000000
      0.458333       0.479167       0.000000
      0.458333       0.500000       0.000000
      0.437500       0.500000       0.000000
      0.458333       0.458333       0.000000
      0.468750       0.458333       0.000000
      0.468750       0.468750       0.000000
      0.458333       0.468750       0.000000
      0.468750       0.458333       0.000000
      0.479167       0.458333       0.000000
      0.479167       0.468750       0.000000
      0.468750       0.468750       0.000000
[...]
POINT_DATA  1344
VECTORS U float 
      0.000000       0.000000       0.000000
      0.000000       0.000000       0.000000
      0.000448       0.000010       0.000000
      0.000440       0.000000       0.000000
      0.000000       0.000000       0.000000
      0.000000       0.000000       0.000000
      0.000469       0.000024       0.000000
      0.000448       0.000010       0.000000
      0.000440       0.000000       0.000000
      0.000448       0.000010       0.000000
      0.000829       0.000011       0.000000
      0.000816       0.000000       0.000000
      0.000448       0.000010       0.000000
      0.000469       0.000024       0.000000
      0.000867       0.000028       0.000000
      0.000829       0.000011       0.000000
      0.000000       0.000000       0.000000
      0.000000       0.000000       0.000000
      0.000502       0.000045       0.000000
      0.000469       0.000024       0.000000
      0.000000       0.000000       0.000000
      0.000000       0.000000       0.000000
      0.000537       0.000075       0.000000
      0.000502       0.000045       0.000000
      0.000469       0.000024       0.000000
      0.000502       0.000045       0.000000
      0.000928       0.000062       0.000000
      0.000867       0.000028       0.000000
      0.000502       0.000045       0.000000
      0.000537       0.000075       0.000000
      0.001005       0.000121       0.000000
      0.000928       0.000062       0.000000
      0.000000       0.000000       0.000000
      0.000000       0.000000       0.000000
      0.000565       0.000114       0.000000
      0.000537       0.000075       0.000000
      0.000000       0.000000       0.000000
      0.000000       0.000000       0.000000
      0.000574       0.000146       0.000000
      0.000565       0.000114       0.000000
      0.000537       0.000075       0.000000
      0.000565       0.000114       0.000000
      0.001081       0.000206       0.000000
      0.001005       0.000121       0.000000
      0.000565       0.000114       0.000000
      0.000574       0.000146       0.000000
      0.001132       0.000289       0.000000
      0.001081       0.000206       0.000000
      0.000816       0.000000       0.000000
      0.000829       0.000011       0.000000
      0.001127       0.000003       0.000000
      0.001111       0.000000       0.000000
      0.000829       0.000011       0.000000
      0.000867       0.000028       0.000000
      0.001177       0.000014       0.000000
      0.001127       0.000003       0.000000
      0.001111       0.000000       0.000000
      0.001127       0.000003       0.000000
      0.001338      -0.000011       0.000000
      0.001321       0.000000       0.000000
      0.001127       0.000003       0.000000
      0.001177       0.000014       0.000000
      0.001389      -0.000013       0.000000
      0.001338      -0.000011       0.000000
      0.000867       0.000028       0.000000
      0.000928       0.000062       0.000000
      0.001263       0.000047       0.000000
      0.001177       0.000014       0.000000
      0.000928       0.000062       0.000000
      0.001005       0.000121       0.000000
      0.001385       0.000120       0.000000
      0.001263       0.000047       0.000000
      0.001177       0.000014       0.000000
      0.001263       0.000047       0.000000
      0.001482       0.000005       0.000000
      0.001389      -0.000013       0.000000
      0.001263       0.000047       0.000000
      0.001385       0.000120       0.000000
      0.001628       0.000065       0.000000
      0.001482       0.000005       0.000000
      0.001005       0.000121       0.000000
      0.001081       0.000206       0.000000
      0.001536       0.000252       0.000000
      0.001385       0.000120       0.000000
      0.001081       0.000206       0.000000
      0.001132       0.000289       0.000000
      0.001675       0.000417       0.000000
      0.001536       0.000252       0.000000
      0.001385       0.000120       0.000000
      0.001536       0.000252       0.000000
      0.001851       0.000207       0.000000
      0.001628       0.000065       0.000000
      0.001536       0.000252       0.000000
      0.001675       0.000417       0.000000
      0.002164       0.000497       0.000000
      0.001851       0.000207       0.000000
      0.001321       0.000000       0.000000
      0.001338      -0.000011       0.000000
      0.001464      -0.000025       0.000000
      0.001450       0.000000       0.000000
      0.001338      -0.000011       0.000000
      0.001389      -0.000013       0.000000
      0.001506      -0.000042       0.000000
      0.001464      -0.000025       0.000000
      0.001450       0.000000       0.000000
      0.001464      -0.000025       0.000000
      0.001523      -0.000035       0.000000
      0.001513       0.000000       0.000000
      0.001464      -0.000025       0.000000
      0.001506      -0.000042       0.000000
      0.001553      -0.000063       0.000000
      0.001523      -0.000035       0.000000
      0.001389      -0.000013       0.000000
      0.001482       0.000005       0.000000
      0.001580      -0.000044       0.000000
      0.001506      -0.000042       0.000000
      0.001482       0.000005       0.000000
      0.001628       0.000065       0.000000
      0.001692      -0.000012       0.000000
      0.001580      -0.000044       0.000000
      0.001506      -0.000042       0.000000
      0.001580      -0.000044       0.000000
      0.001597      -0.000075       0.000000
      0.001553      -0.000063       0.000000
      0.001580      -0.000044       0.000000
      0.001692      -0.000012       0.000000
      0.001646      -0.000054       0.000000
      0.001597      -0.000075       0.000000
      0.001628       0.000065       0.000000
      0.001728       0.000122       0.000000
      0.001777       0.000072       0.000000
      0.001681       0.000025       0.000000
      0.001728       0.000122       0.000000
      0.001851       0.000207       0.000000
      0.001900       0.000148       0.000000
      0.001777       0.000072       0.000000
      0.001681       0.000025       0.000000
      0.001777       0.000072       0.000000
      0.001767       0.000025       0.000000
      0.001692      -0.000012       0.000000
      0.001777       0.000072       0.000000
      0.001900       0.000148       0.000000
      0.001860       0.000088       0.000000
      0.001767       0.000025       0.000000
      0.001851       0.000207       0.000000
      0.002000       0.000333       0.000000
      0.002066       0.000269       0.000000
      0.001900       0.000148       0.000000
      0.002000       0.000333       0.000000
      0.002164       0.000497       0.000000
      0.002306       0.000475       0.000000
      0.002066       0.000269       0.000000
      0.001900       0.000148       0.000000
      0.002066       0.000269       0.000000
      0.001979       0.000190       0.000000
      0.001860       0.000088       0.000000
      0.001692      -0.000012       0.000000
      0.001767       0.000025       0.000000
      0.001719      -0.000006       0.000000
      0.001673      -0.000039       0.000000
      0.001767       0.000025       0.000000
      0.001860       0.000088       0.000000
      0.001767       0.000054       0.000000
      0.001719      -0.000006       0.000000
      0.001673      -0.000039       0.000000
      0.001719      -0.000006       0.000000
      0.001665      -0.000019       0.000000
      0.001646      -0.000054       0.000000
      0.001719      -0.000006       0.000000
      0.001767       0.000054       0.000000
      0.001674       0.000044       0.000000
      0.001665      -0.000019       0.000000
      0.001860       0.000088       0.000000
      0.001915       0.000133       0.000000
      0.001855       0.000111       0.000000
      0.001816       0.000068       0.000000
      0.001915       0.000133       0.000000
      0.001979       0.000190       0.000000
      0.001895       0.000167       0.000000
      0.001855       0.000111       0.000000
      0.001816       0.000068       0.000000
      0.001855       0.000111       0.000000
      0.001790       0.000099       0.000000
      0.001767       0.000054       0.000000
      0.001855       0.000111       0.000000
      0.001895       0.000167       0.000000
      0.001812       0.000156       0.000000
      0.001790       0.000099       0.000000
      0.001979       0.000190       0.000000
      0.002056       0.000265       0.000000
      0.001939       0.000240       0.000000
      0.001895       0.000167       0.000000
      0.001895       0.000167       0.000000
      0.001939       0.000240       0.000000
      0.001831       0.000231       0.000000
      0.001812       0.000156       0.000000
      0.001767       0.000054       0.000000
      0.001790       0.000099       0.000000
      0.001729       0.000093       0.000000
      0.001718       0.000047       0.000000
      0.001790       0.000099       0.000000
      0.001812       0.000156       0.000000
      0.001738       0.000153       0.000000
      0.001729       0.000093       0.000000
      0.001718       0.000047       0.000000
      0.001729       0.000093       0.000000
      0.001674       0.000091       0.000000
      0.001674       0.000044       0.000000
      0.001729       0.000093       0.000000
      0.001738       0.000153       0.000000
      0.001673       0.000151       0.000000
      0.001674       0.000091       0.000000
      0.001812       0.000156       0.000000
      0.001822       0.000191       0.000000
      0.001780       0.000189       0.000000
      0.001774       0.000154       0.000000
      0.001822       0.000191       0.000000
      0.001831       0.000231       0.000000
      0.001786       0.000229       0.000000
      0.001780       0.000189       0.000000
      0.001774       0.000154       0.000000
      0.001780       0.000189       0.000000
      0.001742       0.000188       0.000000
      0.001738       0.000153       0.000000
      0.001780       0.000189       0.000000
      0.001786       0.000229       0.000000
      0.001747       0.000226       0.000000
      0.001742       0.000188       0.000000
      0.001831       0.000231       0.000000
      0.001841       0.000277       0.000000
      0.001794       0.000274       0.000000
      0.001786       0.000229       0.000000
      0.001841       0.000277       0.000000
      0.001853       0.000331       0.000000
      0.001809       0.000332       0.000000
      0.001794       0.000274       0.000000
      0.001786       0.000229       0.000000
      0.001794       0.000274       0.000000
      0.001753       0.000269       0.000000
      0.001747       0.000226       0.000000
      0.001794       0.000274       0.000000
      0.001809       0.000332       0.000000
      0.001758       0.000333       0.000000
      0.001753       0.000269       0.000000
      0.001738       0.000153       0.000000
      0.001742       0.000188       0.000000
      0.001708       0.000187       0.000000
      0.001705       0.000152       0.000000
      0.001742       0.000188       0.000000
      0.001747       0.000226       0.000000
      0.001711       0.000224       0.000000
      0.001708       0.000187       0.000000
      0.001705       0.000152       0.000000
      0.001708       0.000187       0.000000
      0.001674       0.000187       0.000000
      0.001673       0.000151       0.000000
      0.001708       0.000187       0.000000
      0.001711       0.000224       0.000000
      0.001679       0.000226       0.000000
      0.001674       0.000187       0.000000
      0.001747       0.000226       0.000000
      0.001753       0.000269       0.000000
      0.001715       0.000260       0.000000
      0.001711       0.000224       0.000000
      0.001753       0.000269       0.000000
      0.001758       0.000333       0.000000
      0.001492       0.000268       0.000000
      0.001715       0.000260       0.000000
      0.001711       0.000224       0.000000
      0.001715       0.000260       0.000000
      0.001722       0.000273       0.000000
      0.001679       0.000226       0.000000
      0.001715       0.000260       0.000000
      0.001492       0.000268       0.000000
      0.007388       0.000656       0.000000
      0.001722       0.000273       0.000000
      0.001939       0.000240       0.000000
      0.001962       0.000285       0.000000
      0.001897       0.000280       0.000000
      0.001882       0.000234       0.000000
      0.001962       0.000285       0.000000
      0.001987       0.000339       0.000000
      0.001913       0.000335       0.000000
      0.001897       0.000280       0.000000
      0.001882       0.000234       0.000000
      0.001897       0.000280       0.000000
      0.001841       0.000277       0.000000
      0.001831       0.000231       0.000000
      0.001897       0.000280       0.000000
      0.001913       0.000335       0.000000
      0.001853       0.000331       0.000000
      0.001841       0.000277       0.000000
      0.002066       0.000269       0.000000
      0.002175       0.000358       0.000000
      0.002145       0.000310       0.000000
      0.002041       0.000227       0.000000
      0.002175       0.000358       0.000000
      0.002306       0.000475       0.000000
      0.002286       0.000426       0.000000
      0.002145       0.000310       0.000000
      0.002041       0.000227       0.000000
      0.002145       0.000310       0.000000
      0.002056       0.000265       0.000000
      0.001979       0.000190       0.000000
      0.002056       0.000265       0.000000
      0.002104       0.000312       0.000000
      0.002033       0.000295       0.000000
      0.001998       0.000250       0.000000
      0.002104       0.000312       0.000000
      0.002163       0.000367       0.000000
      0.002074       0.000348       0.000000
      0.002033       0.000295       0.000000
      0.001998       0.000250       0.000000
      0.002033       0.000295       0.000000
      0.001962       0.000285       0.000000
      0.001939       0.000240       0.000000
      0.002033       0.000295       0.000000
      0.002074       0.000348       0.000000
      0.001987       0.000339       0.000000
      0.001962       0.000285       0.000000
      0.002145       0.000310       0.000000
      0.002209       0.000362       0.000000
      0.002165       0.000335       0.000000
      0.002107       0.000286       0.000000
      0.002209       0.000362       0.000000
      0.002286       0.000426       0.000000
      0.002237       0.000395       0.000000
      0.002165       0.000335       0.000000
      0.002107       0.000286       0.000000
      0.002165       0.000335       0.000000
      0.002104       0.000312       0.000000
      0.002056       0.000265       0.000000
      0.002165       0.000335       0.000000
      0.002237       0.000395       0.000000
      0.002163       0.000367       0.000000
      0.002104       0.000312       0.000000
      0.000000       0.000000       0.000000
      0.000000       0.000000       0.000000
      0.000569       0.000152       0.000000
      0.000574       0.000146       0.000000
      0.000000       0.000000       0.000000
      0.000000       0.000000       0.000000
      0.000569       0.000125       0.000000
      0.000569       0.000152       0.000000
      0.000574       0.000146       0.000000
      0.000569       0.000152       0.000000
      0.001156       0.000305       0.000000
      0.001132       0.000289       0.000000
      0.000569       0.000152       0.000000
      0.000569       0.000125       0.000000
      0.001191       0.000235       0.000000
      0.001156       0.000305       0.000000
      0.000000       0.000000       0.000000
      0.000000       0.000000       0.000000
      0.000585       0.000083       0.000000
      0.000569       0.000125       0.000000
      0.000000       0.000000       0.000000
      0.000000       0.000000       0.000000
      0.000610       0.000046       0.000000
      0.000585       0.000083       0.000000
      0.000569       0.000125       0.000000
      0.000585       0.000083       0.000000
      0.001251       0.000142       0.000000
      0.001191       0.000235       0.000000
      0.000585       0.000083       0.000000
      0.000610       0.000046       0.000000
      0.001315       0.000070       0.000000
      0.001251       0.000142       0.000000
      0.000000       0.000000       0.000000
      0.000000       0.000000       0.000000
      0.000632       0.000020       0.000000
      0.000610       0.000046       0.000000
      0.000000       0.000000       0.000000
      0.000000       0.000000       0.000000
      0.000640       0.000000       0.000000
      0.000632       0.000020       0.000000
      0.000610       0.000046       0.000000
      0.000632       0.000020       0.000000
      0.001360       0.000027       0.000000
      0.001315       0.000070       0.000000
      0.000632       0.000020       0.000000
      0.000640       0.000000       0.000000
      0.001377       0.000000       0.000000
      0.001360       0.000027       0.000000
      0.001132       0.000289       0.000000
      0.001156       0.000305       0.000000
      0.001767       0.000451       0.000000
      0.001675       0.000417       0.000000
      0.001156       0.000305       0.000000
      0.001191       0.000235       0.000000
      0.001885       0.000306       0.000000
      0.001767       0.000451       0.000000
      0.001675       0.000417       0.000000
      0.001767       0.000451       0.000000
      0.002442       0.000580       0.000000
      0.002164       0.000497       0.000000
      0.001767       0.000451       0.000000
      0.001885       0.000306       0.000000
      0.002758       0.000283       0.000000
      0.002442       0.000580       0.000000
      0.001191       0.000235       0.000000
      0.001251       0.000142       0.000000
      0.002027       0.000154       0.000000
      0.001885       0.000306       0.000000
      0.001251       0.000142       0.000000
      0.001315       0.000070       0.000000
      0.002144       0.000062       0.000000
      0.002027       0.000154       0.000000
      0.001885       0.000306       0.000000
      0.002027       0.000154       0.000000
      0.003000       0.000100       0.000000
      0.002758       0.000283       0.000000
      0.002027       0.000154       0.000000
      0.002144       0.000062       0.000000
      0.003145       0.000022       0.000000
      0.003000       0.000100       0.000000
      0.001315       0.000070       0.000000
      0.001360       0.000027       0.000000
      0.002214       0.000019       0.000000
      0.002144       0.000062       0.000000
      0.001360       0.000027       0.000000
      0.001377       0.000000       0.000000
      0.002238       0.000000       0.000000
      0.002214       0.000019       0.000000
      0.002144       0.000062       0.000000
      0.002214       0.000019       0.000000
      0.003220      -0.000001       0.000000
      0.003145       0.000022       0.000000
      0.002214       0.000019       0.000000
      0.002238       0.000000       0.000000
      0.003243       0.000000       0.000000
      0.003220      -0.000001       0.000000
      0.002758       0.000283       0.000000
      0.003000       0.000100       0.000000
      0.004272       0.000026       0.000000
      0.004136       0.000158       0.000000
      0.003000       0.000100       0.000000
      0.003145       0.000022       0.000000
      0.004337      -0.000017       0.000000
      0.004272       0.000026       0.000000
      0.004136       0.000158       0.000000
      0.004272       0.000026       0.000000
      0.005699       0.000041       0.000000