# vtk DataFile Version 2.0
time_10.vtk
ASCII
DATASET UNSTRUCTURED_GRID
POINTS  1152 float
      0.000000       0.000000       0.000000
      0.083333       0.000000       0.000000
      0.083333       0.083333       0.000000
      0.000000       0.083333       0.000000
      0.083333       0.000000       0.000000
      0.166667       0.000000       0.000000
      0.166667       0.083333       0.000000
      0.083333       0.083333       0.000000
      0.000000       0.083333       0.000000
      0.083333       0.083333       0.000000
      0.083333       0.166667       0.000000
      0.000000       0.166667       0.000000
      0.083333       0.083333       0.000000
      0.166667       0.083333       0.000000
      0.166667       0.166667       0.000000
      0.083333       0.166667       0.000000
      0.166667       0.000000       0.000000
      0.250000       0.000000       0.000000
      0.250000       0.083333       0.000000
      0.166667       0.083333       0.000000
      0.250000       0.000000       0.000000
      0.333333       0.000000       0.000000
      0.333333       0.083333       0.000000
      0.250000       0.083333       0.000000
      0.166667       0.083333       0.000000
      0.250000       0.083333       0.000000
      0.250000       0.166667       0.000000
      0.166667       0.166667       0.000000
      0.250000       0.083333       0.000000
      0.333333       0.083333       0.000000
      0.333333       0.166667       0.000000
      0.250000       0.166667       0.000000
      0.333333       0.000000       0.000000
      0.416667       0.000000       0.000000
      0.416667       0.083333       0.000000
      0.333333       0.083333       0.000000
      0.416667       0.000000       0.000000
      0.500000       0.000000       0.000000
      0.500000       0.083333       0.000000
      0.416667       0.083333       0.000000
      0.333333       0.083333       0.000000
      0.416667       0.083333       0.000000
      0.416667       0.166667       0.000000
      0.333333       0.166667       0.000000
      0.416667       0.083333       0.000000
      0.500000       0.083333       0.000000
      0.500000       0.166667       0.000000
      0.416667       0.166667       0.000000
      0.000000       0.166667       0.000000
      0.083333       0.166667       0.000000
      0.083333       0.250000       0.000000
      0.000000       0.250000       0.000000
      0.083333       0.166667       0.000000
      0.166667       0.166667       0.000000
      0.166667       0.250000       0.000000
      0.083333       0.250000       0.000000
      0.000000       0.250000       0.000000
      0.083333       0.250000       0.000000
      0.083333       0.333333       0.000000
      0.000000       0.333333       0.000000
      0.083333       0.250000       0.000000
      0.166667       0.250000       0.000000
      0.166667       0.333333       0.000000
      0.083333       0.333333       0.000000
      0.166667       0.166667       0.000000
      0.250000       0.166667       0.000000
      0.250000       0.250000       0.000000
      0.166667       0.250000       0.000000
      0.250000       0.166667       0.000000
      0.333333       0.166667       0.000000
      0.333333       0.250000       0.000000
      0.250000       0.250000       0.000000
      0.166667       0.250000       0.000000
      0.250000       0.250000       0.000000
      0.250000       0.333333       0.000000
      0.166667       0.333333       0.000000
      0.250000       0.250000       0.000000
      0.333333       0.250000       0.000000
      0.333333       0.333333       0.000000
      0.250000       0.333333       0.000000
      0.333333       0.166667       0.000000
      0.416667       0.166667       0.000000
      0.416667       0.250000       0.000000
      0.333333       0.250000       0.000000
      0.416667       0.166667       0.000000
      0.500000       0.166667       0.000000
      0.500000       0.250000       0.000000
      0.416667       0.250000       0.000000
      0.333333       0.250000       0.000000
      0.416667       0.250000       0.000000
      0.416667       0.333333       0.000000
      0.333333       0.333333       0.000000
      0.416667       0.250000       0.000000
      0.500000       0.250000       0.000000
      0.500000       0.333333       0.000000
      0.416667       0.333333       0.000000
      0.000000       0.333333       0.000000
      0.083333       0.333333       0.000000
      0.083333       0.416667       0.000000
      0.000000       0.416667       0.000000
      0.083333       0.333333       0.000000
      0.166667       0.333333       0.000000
      0.166667       0.416667       0.000000
      0.083333       0.416667       0.000000
      0.000000       0.416667       0.000000
      0.083333       0.416667       0.000000
      0.083333       0.500000       0.000000
      0.000000       0.500000       0.000000
      0.083333       0.416667       0.000000
      0.166667       0.416667       0.000000
      0.166667       0.500000       0.000000
      0.083333       0.500000       0.000000
      0.166667       0.333333       0.000000
      0.250000       0.333333       0.000000
      0.250000       0.416667       0.000000
      0.166667       0.416667       0.000000
      0.250000       0.333333       0.000000
      0.333333       0.333333       0.000000
      0.333333       0.416667       0.000000
      0.250000       0.416667       0.000000
      0.166667       0.416667       0.000000
      0.250000       0.416667       0.000000
      0.250000       0.500000       0.000000
      0.166667       0.500000       0.000000
      0.250000       0.416667       0.000000
      0.333333       0.416667       0.000000
      0.333333       0.500000       0.000000
      0.250000       0.500000       0.000000
      0.333333       0.333333       0.000000
      0.375000       0.333333       0.000000
      0.375000       0.375000       0.000000
      0.333333       0.375000       0.000000
      0.375000       0.333333       0.000000
      0.416667       0.333333       0.000000
      0.416667       0.375000       0.000000
      0.375000       0.375000       0.000000
      0.333333       0.375000       0.000000
      0.375000       0.375000       0.000000
      0.375000       0.416667       0.000000
      0.333333       0.416667       0.000000
      0.375000       0.375000       0.000000
      0.416667       0.375000       0.000000
      0.416667       0.416667       0.000000
      0.375000       0.416667       0.000000
      0.416667       0.333333       0.000000
      0.458333       0.333333       0.000000
      0.458333       0.375000       0.000000
      0.416667       0.375000       0.000000
      0.458333       0.333333       0.000000
      0.500000       0.333333       0.000000
      0.500000       0.375000       0.000000
      0.458333       0.375000       0.000000
      0.416667       0.375000       0.000000
      0.458333       0.375000       0.000000
      0.458333       0.416667       0.000000
      0.416667       0.416667       0.000000
      0.458333       0.375000       0.000000
      0.500000       0.375000       0.000000
      0.500000       0.416667       0.000000
      0.458333       0.416667       0.000000
      0.333333       0.416667       0.000000
      0.375000       0.416667       0.000000
      0.375000       0.458333       0.000000
      0.333333       0.458333       0.000000
      0.375000       0.416667       0.000000
      0.416667       0.416667       0.000000
      0.416667       0.458333       0.000000
      0.375000       0.458333       0.000000
      0.333333       0.458333       0.000000
      0.375000       0.458333       0.000000
      0.375000       0.500000       0.000000
      0.333333       0.500000       0.000000
      0.375000       0.458333       0.000000
      0.416667       0.458333       0.000000
      0.416667       0.500000       0.000000
      0.375000       0.500000       0.000000
      0.416667       0.416667       0.000000
      0.437500       0.416667       0.000000
      0.437500       0.437500       0.000000
      0.416667       0.437500       0.000000
      0.437500       0.416667       0.000000
      0.458333       0.416667       0.000000
      0.458333       0.437500       0.000000
      0.437500       0.437500       0.000000
      0.416667       0.437500       0.000000
      0.437500       0.437500       0.000000
      0.437500       0.458333       0.000000
      0.416667       0.458333       0.000000
      0.437500       0.437500       0.000000
      0.458333       0.437500       0.000000
      0.458333       0.458333       0.000000
      0.437500       0.458333       0.000000
      0.458333       0.416667       0.000000
      0.479167       0.416667       0.000000
      0.479167       0.437500       0.000000
      0.458333       0.437500       0.000000
      0.479167       0.416667       0.000000
      0.500000       0.416667       0.000000
      0.500000       0.437500       0.000000
      0.479167       0.437500       0.000000
      0.458333       0.437500       0.000000
      0.479167       0.437500       0.000000
      0.479167       0.458333       0.000000
      0.458333       0.458333       0.000000
      0.479167       0.437500       0.000000
      0.500000       0.437500       0.000000
      0.500000       0.458333       0.000000
      0.479167       0.458333       0.000000
      0.416667       0.458333       0.000000
      0.437500       0.458333       0.000000
      0.437500       0.479167       0.000000
      0.416667       0.479167       0.000000
      0.437500       0.458333       0.000000
      0.458333       0.458333       0.000000
      0.458333       0.479167       0.000000
      0.437500       0.479167       0.000000
      0.416667       0.479167       0.000000
      0.437500       0.479167       0.000000
      0.437500       0.500000       0.000000
      0.416667       0.500000       0.000000
[...]
POINT_DATA  1152
VECTORS U float 
      0.000000       0.000000       0.000000
      0.000000       0.000000       0.000000
      0.000511       0.000018       0.000000
      0.000507       0.000000       0.000000
      0.000000       0.000000       0.000000
      0.000000       0.000000       0.000000
      0.000522       0.000038       0.000000
      0.000511       0.000018       0.000000
      0.000507       0.000000       0.000000
      0.000511       0.000018       0.000000
      0.000956       0.000030       0.000000
      0.000947       0.000000       0.000000
      0.000511       0.000018       0.000000
      0.000522       0.000038       0.000000
      0.000980       0.000064       0.000000
      0.000956       0.000030       0.000000
      0.000000       0.000000       0.000000
      0.000000       0.000000       0.000000
      0.000536       0.000060       0.000000
      0.000522       0.000038       0.000000
      0.000000       0.000000       0.000000
      0.000000       0.000000       0.000000
      0.000548       0.000085       0.000000
      0.000536       0.000060       0.000000
      0.000522       0.000038       0.000000
      0.000536       0.000060       0.000000
      0.001015       0.000107       0.000000
      0.000980       0.000064       0.000000
      0.000536       0.000060       0.000000
      0.000548       0.000085       0.000000
      0.001054       0.000159       0.000000
      0.001015       0.000107       0.000000
      0.000000       0.000000       0.000000
      0.000000       0.000000       0.000000
      0.000553       0.000107       0.000000
      0.000548       0.000085       0.000000
      0.000000       0.000000       0.000000
      0.000000       0.000000       0.000000
      0.000549       0.000116       0.000000
      0.000553       0.000107       0.000000
      0.000548       0.000085       0.000000
      0.000553       0.000107       0.000000
      0.001084       0.000209       0.000000
      0.001054       0.000159       0.000000
      0.000553       0.000107       0.000000
      0.000549       0.000116       0.000000
      0.001100       0.000234       0.000000
      0.001084       0.000209       0.000000
      0.000947       0.000000       0.000000
      0.000956       0.000030       0.000000
      0.001320       0.000033       0.000000
      0.001306       0.000000       0.000000
      0.000956       0.000030       0.000000
      0.000980       0.000064       0.000000
      0.001361       0.000074       0.000000
      0.001320       0.000033       0.000000
      0.001306       0.000000       0.000000
      0.001320       0.000033       0.000000
      0.001590       0.000027       0.000000
      0.001571       0.000000       0.000000
      0.001320       0.000033       0.000000
      0.001361       0.000074       0.000000
      0.001647       0.000063       0.000000
      0.001590       0.000027       0.000000
      0.000980       0.000064       0.000000
      0.001015       0.000107       0.000000
      0.001426       0.000129       0.000000
      0.001361       0.000074       0.000000
      0.001015       0.000107       0.000000
      0.001054       0.000159       0.000000
      0.001509       0.000205       0.000000
      0.001426       0.000129       0.000000
      0.001361       0.000074       0.000000
      0.001426       0.000129       0.000000
      0.001743       0.000117       0.000000
      0.001647       0.000063       0.000000
      0.001426       0.000129       0.000000
      0.001509       0.000205       0.000000
      0.001883       0.000203       0.000000
      0.001743       0.000117       0.000000
      0.001054       0.000159       0.000000
      0.001084       0.000209       0.000000
      0.001592       0.000293       0.000000
      0.001509       0.000205       0.000000
      0.001084       0.000209       0.000000
      0.001100       0.000234       0.000000
      0.001655       0.000346       0.000000
      0.001592       0.000293       0.000000
      0.001509       0.000205       0.000000
      0.001592       0.000293       0.000000
      0.002058       0.000331       0.000000
      0.001883       0.000203       0.000000
      0.001592       0.000293       0.000000
      0.001655       0.000346       0.000000
      0.002218       0.000449       0.000000
      0.002058       0.000331       0.000000
      0.001571       0.000000       0.000000
      0.001590       0.000027       0.000000
      0.001753       0.000013       0.000000
      0.001732       0.000000       0.000000
      0.001590       0.000027       0.000000
      0.001647       0.000063       0.000000
      0.001819       0.000034       0.000000
      0.001753       0.000013       0.000000
      0.001732       0.000000       0.000000
      0.001753       0.000013       0.000000
      0.001808      -0.000005       0.000000
      0.001788       0.000000       0.000000
      0.001753       0.000013       0.000000
      0.001819       0.000034       0.000000
      0.001870      -0.000003       0.000000
      0.001808      -0.000005       0.000000
      0.001647       0.000063       0.000000
      0.001743       0.000117       0.000000
      0.001933       0.000072       0.000000
      0.001819       0.000034       0.000000
      0.001743       0.000117       0.000000
      0.001883       0.000203       0.000000
      0.002110       0.000139       0.000000
      0.001933       0.000072       0.000000
      0.001819       0.000034       0.000000
      0.001933       0.000072       0.000000
      0.001978       0.000013       0.000000
      0.001870      -0.000003       0.000000
      0.001933       0.000072       0.000000
      0.002110       0.000139       0.000000
      0.002143       0.000050       0.000000
      0.001978       0.000013       0.000000
      0.001883       0.000203       0.000000
      0.001967       0.000262       0.000000
      0.002126       0.000237       0.000000
      0.002019       0.000178       0.000000
      0.001967       0.000262       0.000000
      0.002058       0.000331       0.000000
      0.002250       0.000317       0.000000
      0.002126       0.000237       0.000000
      0.002019       0.000178       0.000000
      0.002126       0.000237       0.000000
      0.002230       0.000191       0.000000
      0.002110       0.000139       0.000000
      0.002126       0.000237       0.000000
      0.002250       0.000317       0.000000
      0.002382       0.000267       0.000000
      0.002230       0.000191       0.000000
      0.002058       0.000331       0.000000
      0.002144       0.000403       0.000000
      0.002383       0.000416       0.000000
      0.002250       0.000317       0.000000
      0.002144       0.000403       0.000000
      0.002218       0.000449       0.000000
      0.002502       0.000497       0.000000
      0.002383       0.000416       0.000000
      0.002250       0.000317       0.000000
      0.002383       0.000416       0.000000
      0.002575       0.000389       0.000000
      0.002382       0.000267       0.000000
      0.002383       0.000416       0.000000
      0.002502       0.000497       0.000000
      0.002785       0.000538       0.000000
      0.002575       0.000389       0.000000
      0.002110       0.000139       0.000000
      0.002230       0.000191       0.000000
      0.002267       0.000134       0.000000
      0.002149       0.000094       0.000000
      0.002230       0.000191       0.000000
      0.002382       0.000267       0.000000
      0.002415       0.000190       0.000000
      0.002267       0.000134       0.000000
      0.002149       0.000094       0.000000
      0.002267       0.000134       0.000000
      0.002249       0.000081       0.000000
      0.002143       0.000050       0.000000
      0.002267       0.000134       0.000000
      0.002415       0.000190       0.000000
      0.002368       0.000126       0.000000
      0.002249       0.000081       0.000000
      0.002382       0.000267       0.000000
      0.002473       0.000321       0.000000
      0.002509       0.000280       0.000000
      0.002412       0.000230       0.000000
      0.002473       0.000321       0.000000
      0.002575       0.000389       0.000000
      0.002627       0.000350       0.000000
      0.002509       0.000280       0.000000
      0.002412       0.000230       0.000000
      0.002509       0.000280       0.000000
      0.002507       0.000232       0.000000
      0.002415       0.000190       0.000000
      0.002509       0.000280       0.000000
      0.002627       0.000350       0.000000
      0.002624       0.000292       0.000000
      0.002507       0.000232       0.000000
      0.002575       0.000389       0.000000
      0.002682       0.000469       0.000000
      0.002767       0.000448       0.000000
      0.002627       0.000350       0.000000
      0.002682       0.000469       0.000000
      0.002785       0.000538       0.000000
      0.002920       0.000554       0.000000
      0.002767       0.000448       0.000000
      0.002627       0.000350       0.000000
      0.002767       0.000448       0.000000
      0.002789       0.000394       0.000000
      0.002624       0.000292       0.000000
      0.002767       0.000448       0.000000
      0.002920       0.000554       0.000000
      0.003039       0.000555       0.000000
      0.002789       0.000394       0.000000
      0.002415       0.000190       0.000000
      0.002507       0.000232       0.000000
      0.002472       0.000188       0.000000
      0.002396       0.000155       0.000000
      0.002507       0.000232       0.000000
      0.002624       0.000292       0.000000
      0.002561       0.000235       0.000000
      0.002472       0.000188       0.000000
      0.002396       0.000155       0.000000
      0.002472       0.000188       0.000000
      0.002430       0.000157       0.000000
      0.002368       0.000126       0.000000
      0.002472       0.000188       0.000000
      0.002561       0.000235       0.000000
      0.002490       0.000200       0.000000
      0.002430       0.000157       0.000000
      0.002624       0.000292       0.000000
      0.002698       0.000336       0.000000
      0.002667       0.000300       0.000000
      0.002598       0.000261       0.000000
      0.002698       0.000336       0.000000
      0.002789       0.000394       0.000000
      0.002756       0.000353       0.000000
      0.002667       0.000300       0.000000
      0.002598       0.000261       0.000000
      0.002667       0.000300       0.000000
      0.002616       0.000267       0.000000
      0.002561       0.000235       0.000000
      0.002667       0.000300       0.000000
      0.002756       0.000353       0.000000
      0.002689       0.000311       0.000000
      0.002616       0.000267       0.000000
      0.002789       0.000394       0.000000
      0.002903       0.000471       0.000000
      0.002885       0.000432       0.000000
      0.002756       0.000353       0.000000
      0.002903       0.000471       0.000000
      0.003039       0.000555       0.000000
      0.003079       0.000542       0.000000
      0.002885       0.000432       0.000000
      0.002756       0.000353       0.000000
      0.002885       0.000432       0.000000
      0.002805       0.000378       0.000000
      0.002689       0.000311       0.000000
      0.002885       0.000432       0.000000
      0.003079       0.000542       0.000000
      0.003073       0.000499       0.000000
      0.002805       0.000378       0.000000
      0.002561       0.000235       0.000000
      0.002616       0.000267       0.000000
      0.002561       0.000243       0.000000
      0.002522       0.000214       0.000000
      0.002616       0.000267       0.000000
      0.002689       0.000311       0.000000
      0.002606       0.000280       0.000000
      0.002561       0.000243       0.000000
      0.002522       0.000214       0.000000
      0.002561       0.000243       0.000000
      0.002519       0.000229       0.000000
      0.002490       0.000200       0.000000
      0.002561       0.000243       0.000000
      0.002606       0.000280       0.000000
      0.002548       0.000267       0.000000
      0.002519       0.000229       0.000000
      0.002689       0.000311       0.000000
      0.002805       0.000378       0.000000
      0.002672       0.000330       0.000000
      0.002606       0.000280       0.000000
      0.002805       0.000378       0.000000
      0.003073       0.000499       0.000000
      0.002890       0.000349       0.000000
      0.002672       0.000330       0.000000
      0.002606       0.000280       0.000000
      0.002672       0.000330       0.000000
      0.002600       0.000323       0.000000
      0.002548       0.000267       0.000000
      0.002672       0.000330       0.000000
      0.002890       0.000349       0.000000
      0.006067       0.000435       0.000000
      0.002600       0.000323       0.000000
      0.000000       0.000000       0.000000
      0.000000       0.000000       0.000000
      0.000545       0.000107       0.000000
      0.000549       0.000116       0.000000
      0.000000       0.000000       0.000000
      0.000000       0.000000       0.000000
      0.000549       0.000083       0.000000
      0.000545       0.000107       0.000000
      0.000549       0.000116       0.000000
      0.000545       0.000107       0.000000
      0.001114       0.000211       0.000000
      0.001100       0.000234       0.000000
      0.000545       0.000107       0.000000
      0.000549       0.000083       0.000000
      0.001142       0.000153       0.000000
      0.001114       0.000211       0.000000
      0.000000       0.000000       0.000000
      0.000000       0.000000       0.000000
      0.000563       0.000054       0.000000
      0.000549       0.000083       0.000000
      0.000000       0.000000       0.000000
      0.000000       0.000000       0.000000
      0.000581       0.000031       0.000000
      0.000563       0.000054       0.000000
      0.000549       0.000083       0.000000
      0.000563       0.000054       0.000000
      0.001184       0.000092       0.000000
      0.001142       0.000153       0.000000
      0.000563       0.000054       0.000000
      0.000581       0.000031       0.000000
      0.001226       0.000047       0.000000
      0.001184       0.000092       0.000000
      0.000000       0.000000       0.000000
      0.000000       0.000000       0.000000
      0.000596       0.000014       0.000000
      0.000581       0.000031       0.000000
      0.000000       0.000000       0.000000
      0.000000       0.000000       0.000000
      0.000601       0.000000       0.000000
      0.000596       0.000014       0.000000
      0.000581       0.000031       0.000000
      0.000596       0.000014       0.000000
      0.001256       0.000019       0.000000
      0.001226       0.000047       0.000000
      0.000596       0.000014       0.000000
      0.000601       0.000000       0.000000
      0.001266       0.000000       0.000000
      0.001256       0.000019       0.000000
      0.001100       0.000234       0.000000
      0.001114       0.000211       0.000000
      0.001710       0.000303       0.000000
      0.001655       0.000346       0.000000
      0.001114       0.000211       0.000000
      0.001142       0.000153       0.000000
      0.001788       0.000197       0.000000
      0.001710       0.000303       0.000000
      0.001655       0.000346       0.000000
      0.001710       0.000303       0.000000
      0.002356       0.000367       0.000000
      0.002218       0.000449       0.000000
      0.001710       0.000303       0.000000
      0.001788       0.000197       0.000000
      0.002529       0.000189       0.000000
      0.002356       0.000367       0.000000
      0.001142       0.000153       0.000000
      0.001184       0.000092       0.000000
      0.001876       0.000102       0.000000
      0.001788       0.000197       0.000000
      0.001184       0.000092       0.000000
      0.001226       0.000047       0.000000
      0.001951       0.000043       0.000000
      0.001876       0.000102       0.000000
      0.001788       0.000197       0.000000
      0.001876       0.000102       0.000000
      0.002680       0.000071       0.000000
      0.002529       0.000189       0.000000
      0.001876       0.000102       0.000000
      0.001951       0.000043       0.000000
      0.002781       0.000016       0.000000
      0.002680       0.000071       0.000000
      0.001226       0.000047       0.000000
      0.001256       0.000019       0.000000
      0.001998       0.000014       0.000000
      0.001951       0.000043       0.000000
      0.001256       0.000019       0.000000
      0.001266       0.000000       0.000000
      0.002014       0.000000       0.000000
      0.001998       0.000014       0.000000
      0.001951       0.000043       0.000000
      0.001998       0.000014       0.000000
      0.002837      -0.000000       0.000000
      0.002781       0.000016       0.000000
      0.001998       0.000014       0.000000
      0.002014       0.000000       0.000000
      0.002855       0.000000       0.000000
      0.002837      -0.000000       0.000000
      0.002529       0.000189       0.000000
      0.002680       0.000071       0.000000
      0.003657       0.000008       0.000000
      0.003499       0.000102       0.000000
      0.002680       0.000071       0.000000
      0.002781       0.000016       0.000000
      0.003738      -0.000020       0.000000
      0.003657       0.000008       0.000000
      0.003499       0.000102       0.000000
      0.003657       0.000008       0.000000
      0.004800      -0.000021       0.000000
      0.004829       0.000040       0.000000
      0.003657       0.000008       0.000000
      0.003738      -0.000020       0.000000
      0.004787      -0.000035       0.000000
      0.004800      -0.000021       0.000000
      0.002781       0.000016       0.000000
      0.002837      -0.000000       0.000000
      0.003777      -0.000017       0.000000
      0.003738      -0.000020       0.000000
      0.002837      -0.000000       0.000000
      0.002855       0.000000       0.000000
      0.003789       0.000000       0.000000
      0.003777      -0.000017       0.000000
      0.003738      -0.000020       0.000000
      0.003777      -0.000017       0.000000
      0.004781      -0.000023       0.000000
      0.004787      -0.000035       0.000000
      0.003777      -0.000017       0.000000
      0.003789       0.000000       0.000000
      0.004779       0.000000       0.000000
      0.004781      -0.000023       0.000000
      0.002218       0.000449       0.000000
      0.002283       0.000436       0.000000
      0.002607       0.000480       0.000000
      0.002502       0.000497       0.000000
      0.002283       0.000436       0.000000
      0.002356       0.000367       0.000000
      0.002726       0.000374       0.000000
      0.002607       0.000480       0.000000
      0.002502       0.000497       0.000000
      0.002607       0.000480       0.000000
      0.002980       0.000511       0.000000
      0.002785       0.000538       0.000000
      0.002607       0.000480       0.000000
      0.002726       0.000374       0.000000
      0.003190       0.000340       0.000000
      0.002980       0.000511       0.000000
      0.002356       0.000367       0.000000
      0.002441       0.000275       0.000000
      0.002855       0.000252       0.000000
      0.002726       0.000374       0.000000
      0.002441       0.000275       0.000000
      0.002529       0.000189       0.000000
      0.002972       0.000154       0.000000
      0.002855       0.000252       0.000000
      0.002726       0.000374       0.000000
      0.002855       0.000252       0.000000
      0.003369       0.000196       0.000000