# vtk DataFile Version 2.0
time_10.vtk
ASCII
DATASET UNSTRUCTURED_GRID
POINTS  1152 float
      0.000000       0.000000       0.000000
      0.083333       0.000000       0.000000
      0.083333       0.083333       0.000000
      0.000000       0.083333       0.000000
      0.083333       0.000000       0.000000
      0.166667       0.000000       0.000000
      0.166667       0.083333       0.000000
      0.083333       0.083333       0.000000
      0.000000       0.083333       0.000000
      0.083333       0.083333       0.000000
      0.083333       0.166667       0.000000
      0.000000       0.166667       0.000000
      0.083333       0.083333       0.000000
      0.166667       0.083333       0.000000
      0.166667       0.166667       0.000000
      0.083333       0.166667       0.000000
      0.166667       0.000000       0.000000
      0.250000       0.000000       0.000000
      0.250000       0.083333       0.000000
      0.166667       0.083333       0.000000
      0.250000       0.000000       0.000000
      0.333333       0.000000       0.000000
      0.333333       0.083333       0.000000
      0.250000       0.083333       0.000000
      0.166667       0.083333       0.000000
      0.250000       0.083333       0.000000
      0.250000       0.166667       0.000000
      0.166667       0.166667       0.000000
      0.250000       0.083333       0.000000
      0.333333       0.083333       0.000000
      0.333333       0.166667       0.000000
      0.250000       0.166667       0.000000
      0.333333       0.000000       0.000000
      0.416667       0.000000       0.000000
      0.416667       0.083333       0.000000
      0.333333       0.083333       0.000000
      0.416667       0.000000       0.000000
      0.500000       0.000000       0.000000
      0.500000       0.083333       0.000000
      0.416667       0.083333       0.000000
      0.333333       0.083333       0.000000
      0.416667       0.083333       0.000000
      0.416667       0.166667       0.000000
      0.333333       0.166667       0.000000
      0.416667       0.083333       0.000000
      0.500000       0.083333       0.000000
      0.500000       0.166667       0.000000
      0.416667       0.166667       0.000000
      0.000000       0.166667       0.000000
      0.083333       0.166667       0.000000
      0.083333       0.250000       0.000000
      0.000000       0.250000       0.000000
      0.083333       0.166667       0.000000
      0.166667       0.166667       0.000000
      0.166667       0.250000       0.000000
      0.083333       0.250000       0.000000
      0.000000       0.250000       0.000000
      0.083333       0.250000       0.000000
      0.083333       0.333333       0.000000
      0.000000       0.333333       0.000000
      0.083333       0.250000       0.000000
      0.166667       0.250000       0.000000
      0.166667       0.333333       0.000000
      0.083333       0.333333       0.000000
      0.166667       0.166667       0.000000
      0.250000       0.166667       0.000000
      0.250000       0.250000       0.000000
      0.166667       0.250000       0.000000
      0.250000       0.166667       0.000000
      0.333333       0.166667       0.000000
      0.333333       0.250000       0.000000
      0.250000       0.250000       0.000000
      0.166667       0.250000       0.000000
      0.250000       0.250000       0.000000
      0.250000       0.333333       0.000000
      0.166667       0.333333       0.000000
      0.250000       0.250000       0.000000
      0.333333       0.250000       0.000000
      0.333333       0.333333       0.000000
      0.250000       0.333333       0.000000
      0.333333       0.166667       0.000000
      0.416667       0.166667       0.000000
      0.416667       0.250000       0.000000
      0.333333       0.250000       0.000000
      0.416667       0.166667       0.000000
      0.500000       0.166667       0.000000
      0.500000       0.250000       0.000000
      0.416667       0.250000       0.000000
      0.333333       0.250000       0.000000
      0.416667       0.250000       0.000000
      0.416667       0.333333       0.000000
      0.333333       0.333333       0.000000
      0.416667       0.250000       0.000000
      0.500000       0.250000       0.000000
      0.500000       0.333333       0.000000
      0.416667       0.333333       0.000000
      0.000000       0.333333       0.000000
      0.083333       0.333333       0.000000
      0.083333       0.416667       0.000000
      0.000000       0.416667       0.000000
      0.083333       0.333333       0.000000
      0.166667       0.333333       0.000000
      0.166667       0.416667       0.000000
      0.083333       0.416667       0.000000
      0.000000       0.416667       0.000000
      0.083333       0.416667       0.000000
      0.083333       0.500000       0.000000
      0.000000       0.500000       0.000000
      0.083333       0.416667       0.000000
      0.166667       0.416667       0.000000
      0.166667       0.500000       0.000000
      0.083333       0.500000       0.000000
      0.166667       0.333333       0.000000
      0.250000       0.333333       0.000000
      0.250000       0.416667       0.000000
      0.166667       0.416667       0.000000
      0.250000       0.333333       0.000000
      0.333333       0.333333       0.000000
      0.333333       0.416667       0.000000
      0.250000       0.416667       0.000000
      0.166667       0.416667       0.000000
      0.250000       0.416667       0.000000
      0.250000       0.500000       0.000000
      0.166667       0.500000       0.000000
      0.250000       0.416667       0.000000
      0.333333       0.416667       0.000000
      0.333333       0.500000       0.000000
      0.250000       0.500000       0.000000
      0.333333       0.333333       0.000000
      0.375000       0.333333       0.000000
      0.375000       0.375000       0.000000
      0.333333       0.375000       0.000000
      0.375000       0.333333       0.000000
      0.416667       0.333333       0.000000
      0.416667       0.375000       0.000000
      0.375000       0.375000       0.000000
      0.333333       0.375000       0.000000
      0.375000       0.375000       0.000000
      0.375000       0.416667       0.000000
      0.333333       0.416667       0.000000
      0.375000       0.375000       0.000000
      0.416667       0.375000       0.000000
      0.416667       0.416667       0.000000
      0.375000       0.416667       0.000000
      0.416667       0.333333       0.000000
      0.458333       0.333333       0.000000
      0.458333       0.375000       0.000000
      0.416667       0.375000       0.000000
      0.458333       0.333333       0.000000
      0.500000       0.333333       0.000000
      0.500000       0.375000       0.000000
      0.458333       0.375000       0.000000
      0.416667       0.375000       0.000000
      0.458333       0.375000       0.000000
      0.458333       0.416667       0.000000
      0.416667       0.416667       0.000000
      0.458333       0.375000       0.000000
      0.500000       0.375000       0.000000
      0.500000       0.416667       0.000000
      0.458333       0.416667       0.000000
      0.333333       0.416667       0.000000
      0.375000       0.416667       0.000000
      0.375000       0.458333       0.000000
      0.333333       0.458333       0.000000
      0.375000       0.416667       0.000000
      0.416667       0.416667       0.000000
      0.416667       0.458333       0.000000
      0.375000       0.458333       0.000000
      0.333333       0.458333       0.000000
      0.375000       0.458333       0.000000
      0.375000       0.500000       0.000000
      0.333333       0.500000       0.000000
      0.375000       0.458333       0.000000
      0.416667       0.458333       0.000000
      0.416667       0.500000       0.000000
      0.375000       0.500000       0.000000
      0.416667       0.416667       0.000000
      0.437500       0.416667       0.000000
      0.437500       0.437500       0.000000
      0.416667       0.437500       0.000000
      0.437500       0.416667       0.000000
      0.458333       0.416667       0.000000
      0.458333       0.437500       0.000000
      0.437500       0.437500       0.000000
      0.416667       0.437500       0.000000
      0.437500       0.437500       0.000000
      0.437500       0.458333       0.000000
      0.416667       0.458333       0.000000
      0.437500       0.437500       0.000000
      0.458333       0.437500       0.000000
      0.458333       0.458333       0.000000
      0.437500       0.458333       0.000000
      0.458333       0.416667       0.000000
      0.479167       0.416667       0.000000
      0.479167       0.437500       0.000000
      0.458333       0.437500       0.000000
      0.479167       0.416667       0.000000
      0.500000       0.416667       0.000000
      0.500000       0.437500       0.000000
      0.479167       0.437500       0.000000
      0.458333       0.437500       0.000000
      0.479167       0.437500       0.000000
      0.479167       0.458333       0.000000
      0.458333       0.458333       0.000000
      0.479167       0.437500       0.000000
      0.500000       0.437500       0.000000
      0.500000       0.458333       0.000000
      0.479167       0.458333       0.000000
      0.416667       0.458333       0.000000
      0.437500       0.458333       0.000000
      0.437500       0.479167       0.000000
      0.416667       0.479167       0.000000
      0.437500       0.458333       0.000000
      0.458333       0.458333       0.000000
      0.458333       0.479167       0.000000
      0.437500       0.479167       0.000000
      0.416667       0.479167       0.000000
      0.437500       0.479167       0.000000
      0.437500       0.500000       0.000000
      0.416667       0.500000       0.000000
[...]
POINT_DATA  1152
VECTORS U float 
      0.000000       0.000000       0.000000
      0.000000       0.000000       0.000000
      0.000513       0.000018       0.000000
      0.000509       0.000000       0.000000
      0.000000       0.000000       0.000000
      0.000000       0.000000       0.000000
      0.000523       0.000039       0.000000
      0.000513       0.000018       0.000000
      0.000509       0.000000       0.000000
      0.000513       0.000018       0.000000
      0.000959       0.000031       0.000000
      0.000951       0.000000       0.000000
      0.000513       0.000018       0.000000
      0.000523       0.000039       0.000000
      0.000982       0.000066       0.000000
      0.000959       0.000031       0.000000
      0.000000       0.000000       0.000000
      0.000000       0.000000       0.000000
      0.000536       0.000061       0.000000
      0.000523       0.000039       0.000000
      0.000000       0.000000       0.000000
      0.000000       0.000000       0.000000
      0.000546       0.000085       0.000000
      0.000536       0.000061       0.000000
      0.000523       0.000039       0.000000
      0.000536       0.000061       0.000000
      0.001016       0.000110       0.000000
      0.000982       0.000066       0.000000
      0.000536       0.000061       0.000000
      0.000546       0.000085       0.000000
      0.001052       0.000160       0.000000
      0.001016       0.000110       0.000000
      0.000000       0.000000       0.000000
      0.000000       0.000000       0.000000
      0.000550       0.000106       0.000000
      0.000546       0.000085       0.000000
      0.000000       0.000000       0.000000
      0.000000       0.000000       0.000000
      0.000546       0.000114       0.000000
      0.000550       0.000106       0.000000
      0.000546       0.000085       0.000000
      0.000550       0.000106       0.000000
      0.001079       0.000207       0.000000
      0.001052       0.000160       0.000000
      0.000550       0.000106       0.000000
      0.000546       0.000114       0.000000
      0.001095       0.000229       0.000000
      0.001079       0.000207       0.000000
      0.000951       0.000000       0.000000
      0.000959       0.000031       0.000000
      0.001326       0.000035       0.000000
      0.001313       0.000000       0.000000
      0.000959       0.000031       0.000000
      0.000982       0.000066       0.000000
      0.001366       0.000078       0.000000
      0.001326       0.000035       0.000000
      0.001313       0.000000       0.000000
      0.001326       0.000035       0.000000
      0.001598       0.000029       0.000000
      0.001580       0.000000       0.000000
      0.001326       0.000035       0.000000
      0.001366       0.000078       0.000000
      0.001655       0.000068       0.000000
      0.001598       0.000029       0.000000
      0.000982       0.000066       0.000000
      0.001016       0.000110       0.000000
      0.001429       0.000134       0.000000
      0.001366       0.000078       0.000000
      0.001016       0.000110       0.000000
      0.001052       0.000160       0.000000
      0.001509       0.000209       0.000000
      0.001429       0.000134       0.000000
      0.001366       0.000078       0.000000
      0.001429       0.000134       0.000000
      0.001751       0.000125       0.000000
      0.001655       0.000068       0.000000
      0.001429       0.000134       0.000000
      0.001509       0.000209       0.000000
      0.001888       0.000211       0.000000
      0.001751       0.000125       0.000000
      0.001052       0.000160       0.000000
      0.001079       0.000207       0.000000
      0.001588       0.000292       0.000000
      0.001509       0.000209       0.000000
      0.001079       0.000207       0.000000
      0.001095       0.000229       0.000000
      0.001648       0.000338       0.000000
      0.001588       0.000292       0.000000
      0.001509       0.000209       0.000000
      0.001588       0.000292       0.000000
      0.002057       0.000335       0.000000
      0.001888       0.000211       0.000000
      0.001588       0.000292       0.000000
      0.001648       0.000338       0.000000
      0.002210       0.000439       0.000000
      0.002057       0.000335       0.000000
      0.001580       0.000000       0.000000
      0.001598       0.000029       0.000000
      0.001764       0.000015       0.000000
      0.001742       0.000000       0.000000
      0.001598       0.000029       0.000000
      0.001655       0.000068       0.000000
      0.001830       0.000039       0.000000
      0.001764       0.000015       0.000000
      0.001742       0.000000       0.000000
      0.001764       0.000015       0.000000
      0.001818      -0.000003       0.000000
      0.001797       0.000000       0.000000
      0.001764       0.000015       0.000000
      0.001830       0.000039       0.000000
      0.001881       0.000002       0.000000
      0.001818      -0.000003       0.000000
      0.001655       0.000068       0.000000
      0.001751       0.000125       0.000000
      0.001947       0.000080       0.000000
      0.001830       0.000039       0.000000
      0.001751       0.000125       0.000000
      0.001888       0.000211       0.000000
      0.002127       0.000151       0.000000
      0.001947       0.000080       0.000000
      0.001830       0.000039       0.000000
      0.001947       0.000080       0.000000
      0.001994       0.000020       0.000000
      0.001881       0.000002       0.000000
      0.001947       0.000080       0.000000
      0.002127       0.000151       0.000000
      0.002167       0.000059       0.000000
      0.001994       0.000020       0.000000
      0.001888       0.000211       0.000000
      0.001971       0.000269       0.000000
      0.002135       0.000248       0.000000
      0.002030       0.000188       0.000000
      0.001971       0.000269       0.000000
      0.002057       0.000335       0.000000
      0.002256       0.000325       0.000000
      0.002135       0.000248       0.000000
      0.002030       0.000188       0.000000
      0.002135       0.000248       0.000000
      0.002248       0.000204       0.000000
      0.002127       0.000151       0.000000
      0.002135       0.000248       0.000000
      0.002256       0.000325       0.000000
      0.002399       0.000279       0.000000
      0.002248       0.000204       0.000000
      0.002057       0.000335       0.000000
      0.002140       0.000401       0.000000
      0.002384       0.000417       0.000000
      0.002256       0.000325       0.000000
      0.002140       0.000401       0.000000
      0.002210       0.000439       0.000000
      0.002497       0.000485       0.000000
      0.002384       0.000417       0.000000
      0.002256       0.000325       0.000000
      0.002384       0.000417       0.000000
      0.002588       0.000396       0.000000
      0.002399       0.000279       0.000000
      0.002384       0.000417       0.000000
      0.002497       0.000485       0.000000
      0.002785       0.000527       0.000000
      0.002588       0.000396       0.000000
      0.002127       0.000151       0.000000
      0.002248       0.000204       0.000000
      0.002294       0.000147       0.000000
      0.002171       0.000105       0.000000
      0.002248       0.000204       0.000000
      0.002399       0.000279       0.000000
      0.002448       0.000204       0.000000
      0.002294       0.000147       0.000000
      0.002171       0.000105       0.000000
      0.002294       0.000147       0.000000
      0.002280       0.000091       0.000000
      0.002167       0.000059       0.000000
      0.002294       0.000147       0.000000
      0.002448       0.000204       0.000000
      0.002412       0.000135       0.000000
      0.002280       0.000091       0.000000
      0.002399       0.000279       0.000000
      0.002489       0.000331       0.000000
      0.002535       0.000293       0.000000
      0.002437       0.000244       0.000000
      0.002489       0.000331       0.000000
      0.002588       0.000396       0.000000
      0.002652       0.000360       0.000000
      0.002535       0.000293       0.000000
      0.002437       0.000244       0.000000
      0.002535       0.000293       0.000000
      0.002545       0.000245       0.000000
      0.002448       0.000204       0.000000
      0.002535       0.000293       0.000000
      0.002652       0.000360       0.000000
      0.002666       0.000305       0.000000
      0.002545       0.000245       0.000000
      0.002588       0.000396       0.000000
      0.002689       0.000469       0.000000
      0.002787       0.000452       0.000000
      0.002652       0.000360       0.000000
      0.002689       0.000469       0.000000
      0.002785       0.000527       0.000000
      0.002928       0.000543       0.000000
      0.002787       0.000452       0.000000
      0.002652       0.000360       0.000000
      0.002787       0.000452       0.000000
      0.002833       0.000406       0.000000
      0.002666       0.000305       0.000000
      0.002787       0.000452       0.000000
      0.002928       0.000543       0.000000
      0.003063       0.000550       0.000000
      0.002833       0.000406       0.000000
      0.002448       0.000204       0.000000
      0.002545       0.000245       0.000000
      0.002520       0.000200       0.000000
      0.002436       0.000167       0.000000
      0.002545       0.000245       0.000000
      0.002666       0.000305       0.000000
      0.002620       0.000245       0.000000
      0.002520       0.000200       0.000000
      0.002436       0.000167       0.000000
      0.002520       0.000200       0.000000
      0.002484       0.000165       0.000000
      0.002412       0.000135       0.000000
      0.002520       0.000200       0.000000
      0.002620       0.000245       0.000000
      0.002558       0.000204       0.000000
      0.002484       0.000165       0.000000
      0.002666       0.000305       0.000000
      0.002742       0.000349       0.000000
      0.002723       0.000312       0.000000
      0.002649       0.000274       0.000000
      0.002742       0.000349       0.000000
      0.002833       0.000406       0.000000
      0.002819       0.000367       0.000000
      0.002723       0.000312       0.000000
      0.002649       0.000274       0.000000
      0.002723       0.000312       0.000000
      0.002683       0.000276       0.000000
      0.002620       0.000245       0.000000
      0.002723       0.000312       0.000000
      0.002819       0.000367       0.000000
      0.002768       0.000321       0.000000
      0.002683       0.000276       0.000000
      0.002833       0.000406       0.000000
      0.002941       0.000478       0.000000
      0.002948       0.000446       0.000000
      0.002819       0.000367       0.000000
      0.002941       0.000478       0.000000
      0.003063       0.000550       0.000000
      0.003123       0.000544       0.000000
      0.002948       0.000446       0.000000
      0.002819       0.000367       0.000000
      0.002948       0.000446       0.000000
      0.002903       0.000394       0.000000
      0.002768       0.000321       0.000000
      0.002948       0.000446       0.000000
      0.003123       0.000544       0.000000
      0.003168       0.000520       0.000000
      0.002903       0.000394       0.000000
      0.002620       0.000245       0.000000
      0.002683       0.000276       0.000000
      0.002634       0.000248       0.000000
      0.002586       0.000221       0.000000
      0.002683       0.000276       0.000000
      0.002768       0.000321       0.000000
      0.002692       0.000282       0.000000
      0.002634       0.000248       0.000000
      0.002586       0.000221       0.000000
      0.002634       0.000248       0.000000
      0.002595       0.000229       0.000000
      0.002558       0.000204       0.000000
      0.002634       0.000248       0.000000
      0.002692       0.000282       0.000000
      0.002636       0.000262       0.000000
      0.002595       0.000229       0.000000
      0.002768       0.000321       0.000000
      0.002903       0.000394       0.000000
      0.002787       0.000331       0.000000
      0.002692       0.000282       0.000000
      0.002903       0.000394       0.000000
      0.003168       0.000520       0.000000
      0.003173       0.000414       0.000000
      0.002787       0.000331       0.000000
      0.002692       0.000282       0.000000
      0.002787       0.000331       0.000000
      0.002701       0.000310       0.000000
      0.002636       0.000262       0.000000
      0.002787       0.000331       0.000000
      0.003173       0.000414       0.000000
      0.005928       0.000411       0.000000
      0.002701       0.000310       0.000000
      0.000000       0.000000       0.000000
      0.000000       0.000000       0.000000
      0.000542       0.000104       0.000000
      0.000546       0.000114       0.000000
      0.000000       0.000000       0.000000
      0.000000       0.000000       0.000000
      0.000546       0.000080       0.000000
      0.000542       0.000104       0.000000
      0.000546       0.000114       0.000000
      0.000542       0.000104       0.000000
      0.001108       0.000205       0.000000
      0.001095       0.000229       0.000000
      0.000542       0.000104       0.000000
      0.000546       0.000080       0.000000
      0.001136       0.000148       0.000000
      0.001108       0.000205       0.000000
      0.000000       0.000000       0.000000
      0.000000       0.000000       0.000000
      0.000560       0.000053       0.000000
      0.000546       0.000080       0.000000
      0.000000       0.000000       0.000000
      0.000000       0.000000       0.000000
      0.000578       0.000030       0.000000
      0.000560       0.000053       0.000000
      0.000546       0.000080       0.000000
      0.000560       0.000053       0.000000
      0.001177       0.000089       0.000000
      0.001136       0.000148       0.000000
      0.000560       0.000053       0.000000
      0.000578       0.000030       0.000000
      0.001218       0.000045       0.000000
      0.001177       0.000089       0.000000
      0.000000       0.000000       0.000000
      0.000000       0.000000       0.000000
      0.000592       0.000013       0.000000
      0.000578       0.000030       0.000000
      0.000000       0.000000       0.000000
      0.000000       0.000000       0.000000
      0.000597       0.000000       0.000000
      0.000592       0.000013       0.000000
      0.000578       0.000030       0.000000
      0.000592       0.000013       0.000000
      0.001247       0.000018       0.000000
      0.001218       0.000045       0.000000
      0.000592       0.000013       0.000000
      0.000597       0.000000       0.000000
      0.001257       0.000000       0.000000
      0.001247       0.000018       0.000000
      0.001095       0.000229       0.000000
      0.001108       0.000205       0.000000
      0.001701       0.000293       0.000000
      0.001648       0.000338       0.000000
      0.001108       0.000205       0.000000
      0.001136       0.000148       0.000000
      0.001777       0.000190       0.000000
      0.001701       0.000293       0.000000
      0.001648       0.000338       0.000000
      0.001701       0.000293       0.000000
      0.002344       0.000353       0.000000
      0.002210       0.000439       0.000000
      0.001701       0.000293       0.000000
      0.001777       0.000190       0.000000
      0.002511       0.000181       0.000000
      0.002344       0.000353       0.000000
      0.001136       0.000148       0.000000
      0.001177       0.000089       0.000000
      0.001863       0.000098       0.000000
      0.001777       0.000190       0.000000
      0.001177       0.000089       0.000000
      0.001218       0.000045       0.000000
      0.001935       0.000041       0.000000
      0.001863       0.000098       0.000000
      0.001777       0.000190       0.000000
      0.001863       0.000098       0.000000
      0.002656       0.000067       0.000000
      0.002511       0.000181       0.000000
      0.001863       0.000098       0.000000
      0.001935       0.000041       0.000000
      0.002754       0.000015       0.000000
      0.002656       0.000067       0.000000
      0.001218       0.000045       0.000000
      0.001247       0.000018       0.000000
      0.001981       0.000013       0.000000
      0.001935       0.000041       0.000000
      0.001247       0.000018       0.000000
      0.001257       0.000000       0.000000
      0.001996       0.000000       0.000000
      0.001981       0.000013       0.000000
      0.001935       0.000041       0.000000
      0.001981       0.000013       0.000000
      0.002808      -0.000001       0.000000
      0.002754       0.000015       0.000000
      0.001981       0.000013       0.000000
      0.001996       0.000000       0.000000
      0.002826       0.000000       0.000000
      0.002808      -0.000001       0.000000
      0.002511       0.000181       0.000000
      0.002656       0.000067       0.000000
      0.003616       0.000007       0.000000
      0.003462       0.000098       0.000000
      0.002656       0.000067       0.000000
      0.002754       0.000015       0.000000
      0.003694      -0.000020       0.000000
      0.003616       0.000007       0.000000
      0.003462       0.000098       0.000000
      0.003616       0.000007       0.000000
      0.004735      -0.000023       0.000000
      0.004758       0.000034       0.000000
      0.003616       0.000007       0.000000
      0.003694      -0.000020       0.000000
      0.004725      -0.000035       0.000000
      0.004735      -0.000023       0.000000
      0.002754       0.000015       0.000000
      0.002808      -0.000001       0.000000
      0.003733      -0.000017       0.000000
      0.003694      -0.000020       0.000000
      0.002808      -0.000001       0.000000
      0.002826       0.000000       0.000000
      0.003744       0.000000       0.000000
      0.003733      -0.000017       0.000000
      0.003694      -0.000020       0.000000
      0.003733      -0.000017       0.000000
      0.004720      -0.000023       0.000000
      0.004725      -0.000035       0.000000
      0.003733      -0.000017       0.000000
      0.003744       0.000000       0.000000
      0.004718       0.000000       0.000000
      0.004720      -0.000023       0.000000
      0.002210       0.000439       0.000000
      0.002274       0.000422       0.000000
      0.002597       0.000463       0.000000
      0.002497       0.000485       0.000000
      0.002274       0.000422       0.000000
      0.002344       0.000353       0.000000
      0.002711       0.000359       0.000000
      0.002597       0.000463       0.000000
      0.002497       0.000485       0.000000
      0.002597       0.000463       0.000000
      0.002967       0.000490       0.000000
      0.002785       0.000527       0.000000
      0.002597       0.000463       0.000000
      0.002711       0.000359       0.000000
      0.003165       0.000326       0.000000
      0.002967       0.000490       0.000000
      0.002344       0.000353       0.000000
      0.002426       0.000264       0.000000
      0.002834       0.000242       0.000000
      0.002711       0.000359       0.000000
      0.002426       0.000264       0.000000
      0.002511       0.000181       0.000000
      0.002947       0.000148       0.000000
      0.002834       0.000242       0.000000
      0.002711       0.000359       0.000000
      0.002834       0.000242       0.000000
      0.003336       0.000188       0.000000