# vtk DataFile Version 2.0
time_10.vtk
ASCII
DATASET UNSTRUCTURED_GRID
POINTS  1344 float
      0.000000       0.000000       0.000000
      0.083333       0.000000       0.000000
      0.083333       0.083333       0.000000
      0.000000       0.083333       0.000000
      0.083333       0.000000       0.000000
      0.166667       0.000000       0.000000
      0.166667       0.083333       0.000000
      0.083333       0.083333       0.000000
      0.000000       0.083333       0.000000
      0.083333       0.083333       0.000000
      0.083333       0.166667       0.000000
      0.000000       0.166667       0.000000
      0.083333       0.083333       0.000000
      0.166667       0.083333       0.000000
      0.166667       0.166667       0.000000
      0.083333       0.166667       0.000000
      0.166667       0.000000       0.000000
      0.250000       0.000000       0.000000
      0.250000       0.083333       0.000000
      0.166667       0.083333       0.000000
      0.250000       0.000000       0.000000
      0.333333       0.000000       0.000000
      0.333333       0.083333       0.000000
      0.250000       0.083333       0.000000
      0.166667       0.083333       0.000000
      0.250000       0.083333       0.000000
      0.250000       0.166667       0.000000
      0.166667       0.166667       0.000000
      0.250000       0.083333       0.000000
      0.333333       0.083333       0.000000
      0.333333       0.166667       0.000000
      0.250000       0.166667       0.000000
      0.333333       0.000000       0.000000
      0.416667       0.000000       0.000000
      0.416667       0.083333       0.000000
      0.333333       0.083333       0.000000
      0.416667       0.000000       0.000000
      0.500000       0.000000       0.000000
      0.500000       0.083333       0.000000
      0.416667       0.083333       0.000000
      0.333333       0.083333       0.000000
      0.416667       0.083333       0.000000
      0.416667       0.166667       0.000000
      0.333333       0.166667       0.000000
      0.416667       0.083333       0.000000
      0.500000       0.083333       0.000000
      0.500000       0.166667       0.000000
      0.416667       0.166667       0.000000
      0.000000       0.166667       0.000000
      0.083333       0.166667       0.000000
      0.083333       0.250000       0.000000
      0.000000       0.250000       0.000000
      0.083333       0.166667       0.000000
      0.166667       0.166667       0.000000
      0.166667       0.250000       0.000000
      0.083333       0.250000       0.000000
      0.000000       0.250000       0.000000
      0.083333       0.250000       0.000000
      0.083333       0.333333       0.000000
      0.000000       0.333333       0.000000
      0.083333       0.250000       0.000000
      0.166667       0.250000       0.000000
      0.166667       0.333333       0.000000
      0.083333       0.333333       0.000000
      0.166667       0.166667       0.000000
      0.250000       0.166667       0.000000
      0.250000       0.250000       0.000000
      0.166667       0.250000       0.000000
      0.250000       0.166667       0.000000
      0.333333       0.166667       0.000000
      0.333333       0.250000       0.000000
      0.250000       0.250000       0.000000
      0.166667       0.250000       0.000000
      0.250000       0.250000       0.000000
      0.250000       0.333333       0.000000
      0.166667       0.333333       0.000000
      0.250000       0.250000       0.000000
      0.333333       0.250000       0.000000
      0.333333       0.333333       0.000000
      0.250000       0.333333       0.000000
      0.333333       0.166667       0.000000
      0.416667       0.166667       0.000000
      0.416667       0.250000       0.000000
      0.333333       0.250000       0.000000
      0.416667       0.166667       0.000000
      0.500000       0.166667       0.000000
      0.500000       0.250000       0.000000
      0.416667       0.250000       0.000000
      0.333333       0.250000       0.000000
      0.416667       0.250000       0.000000
      0.416667       0.333333       0.000000
      0.333333       0.333333       0.000000
      0.416667       0.250000       0.000000
      0.500000       0.250000       0.000000
      0.500000       0.333333       0.000000
      0.416667       0.333333       0.000000
      0.000000       0.333333       0.000000
      0.083333       0.333333       0.000000
      0.083333       0.416667       0.000000
      0.000000       0.416667       0.000000
      0.083333       0.333333       0.000000
      0.166667       0.333333       0.000000
      0.166667       0.416667       0.000000
      0.083333       0.416667       0.000000
      0.000000       0.416667       0.000000
      0.083333       0.416667       0.000000
      0.083333       0.500000       0.000000
      0.000000       0.500000       0.000000
      0.083333       0.416667       0.000000
      0.166667       0.416667       0.000000
      0.166667       0.500000       0.000000
      0.083333       0.500000       0.000000
      0.166667       0.333333       0.000000
      0.250000       0.333333       0.000000
      0.250000       0.416667       0.000000
      0.166667       0.416667       0.000000
      0.250000       0.333333       0.000000
      0.333333       0.333333       0.000000
      0.333333       0.416667       0.000000
      0.250000       0.416667       0.000000
      0.166667       0.416667       0.000000
      0.250000       0.416667       0.000000
      0.250000       0.500000       0.000000
      0.166667       0.500000       0.000000
      0.250000       0.416667       0.000000
      0.333333       0.416667       0.000000
      0.333333       0.500000       0.000000
      0.250000       0.500000       0.000000
      0.333333       0.333333       0.000000
      0.375000       0.333333       0.000000
      0.375000       0.375000       0.000000
      0.333333       0.375000       0.000000
      0.375000       0.333333       0.000000
      0.416667       0.333333       0.000000
      0.416667       0.375000       0.000000
      0.375000       0.375000       0.000000
      0.333333       0.375000       0.000000
      0.375000       0.375000       0.000000
      0.375000       0.416667       0.000000
      0.333333       0.416667       0.000000
      0.375000       0.375000       0.000000
      0.416667       0.375000       0.000000
      0.416667       0.416667       0.000000
      0.375000       0.416667       0.000000
      0.416667       0.333333       0.000000
      0.458333       0.333333       0.000000
      0.458333       0.375000       0.000000
      0.416667       0.375000       0.000000
      0.458333       0.333333       0.000000
      0.500000       0.333333       0.000000
      0.500000       0.375000       0.000000
      0.458333       0.375000       0.000000
      0.416667       0.375000       0.000000
      0.458333       0.375000       0.000000
      0.458333       0.416667       0.000000
      0.416667       0.416667       0.000000
      0.333333       0.416667       0.000000
      0.375000       0.416667       0.000000
      0.375000       0.458333       0.000000
      0.333333       0.458333       0.000000
      0.375000       0.416667       0.000000
      0.416667       0.416667       0.000000
      0.416667       0.458333       0.000000
      0.375000       0.458333       0.000000
      0.333333       0.458333       0.000000
      0.375000       0.458333       0.000000
      0.375000       0.500000       0.000000
      0.333333       0.500000       0.000000
      0.375000       0.458333       0.000000
      0.416667       0.458333       0.000000
      0.416667       0.500000       0.000000
      0.375000       0.500000       0.000000
      0.416667       0.416667       0.000000
      0.437500       0.416667       0.000000
      0.437500       0.437500       0.000000
      0.416667       0.437500       0.000000
      0.437500       0.416667       0.000000
      0.458333       0.416667       0.000000
      0.458333       0.437500       0.000000
      0.437500       0.437500       0.000000
      0.416667       0.437500       0.000000
      0.437500       0.437500       0.000000
      0.437500       0.458333       0.000000
      0.416667       0.458333       0.000000
      0.437500       0.437500       0.000000
      0.458333       0.437500       0.000000
      0.458333       0.458333       0.000000
      0.437500       0.458333       0.000000
      0.458333       0.416667       0.000000
      0.479167       0.416667       0.000000
      0.479167       0.437500       0.000000
      0.458333       0.437500       0.000000
      0.458333       0.437500       0.000000
      0.479167       0.437500       0.000000
      0.479167       0.458333       0.000000
      0.458333       0.458333       0.000000
      0.416667       0.458333       0.000000
      0.437500       0.458333       0.000000
      0.437500       0.479167       0.000000
      0.416667       0.479167       0.000000
      0.437500       0.458333       0.000000
      0.458333       0.458333       0.000000
      0.458333       0.479167       0.000000
      0.437500       0.479167       0.000000
      0.416667       0.479167       0.000000
      0.437500       0.479167       0.000000
      0.437500       0.500000       0.000000
      0.416667       0.500000       0.000000
      0.437500       0.479167       0.000000
      0.458333       0.479167       0.000000
      0.458333       0.500000       0.000000
      0.437500       0.500000       0.000000
      0.458333       0.458333       0.000000
      0.468750       0.458333       0.000000
      0.468750       0.468750       0.000000
      0.458333       0.468750       0.000000
      0.468750       0.458333       0.000000
      0.479167       0.458333       0.000000
      0.479167       0.468750       0.000000
      0.468750       0.468750       0.000000
[...]
POINT_DATA  1344
VECTORS U float 
      0.000000       0.000000       0.000000
      0.000000       0.000000       0.000000
      0.000450       0.000011       0.000000
      0.000442       0.000000       0.000000
      0.000000       0.000000       0.000000
      0.000000       0.000000       0.000000
      0.000471       0.000024       0.000000
      0.000450       0.000011       0.000000
      0.000442       0.000000       0.000000
      0.000450       0.000011       0.000000
      0.000833       0.000011       0.000000
      0.000820       0.000000       0.000000
      0.000450       0.000011       0.000000
      0.000471       0.000024       0.000000
      0.000871       0.000029       0.000000
      0.000833       0.000011       0.000000
      0.000000       0.000000       0.000000
      0.000000       0.000000       0.000000
      0.000503       0.000045       0.000000
      0.000471       0.000024       0.000000
      0.000000       0.000000       0.000000
      0.000000       0.000000       0.000000
      0.000538       0.000076       0.000000
      0.000503       0.000045       0.000000
      0.000471       0.000024       0.000000
      0.000503       0.000045       0.000000
      0.000931       0.000063       0.000000
      0.000871       0.000029       0.000000
      0.000503       0.000045       0.000000
      0.000538       0.000076       0.000000
      0.001007       0.000122       0.000000
      0.000931       0.000063       0.000000
      0.000000       0.000000       0.000000
      0.000000       0.000000       0.000000
      0.000564       0.000113       0.000000
      0.000538       0.000076       0.000000
      0.000000       0.000000       0.000000
      0.000000       0.000000       0.000000
      0.000573       0.000145       0.000000
      0.000564       0.000113       0.000000
      0.000538       0.000076       0.000000
      0.000564       0.000113       0.000000
      0.001081       0.000206       0.000000
      0.001007       0.000122       0.000000
      0.000564       0.000113       0.000000
      0.000573       0.000145       0.000000
      0.001130       0.000287       0.000000
      0.001081       0.000206       0.000000
      0.000820       0.000000       0.000000
      0.000833       0.000011       0.000000
      0.001134       0.000003       0.000000
      0.001118       0.000000       0.000000
      0.000833       0.000011       0.000000
      0.000871       0.000029       0.000000
      0.001184       0.000016       0.000000
      0.001134       0.000003       0.000000
      0.001118       0.000000       0.000000
      0.001134       0.000003       0.000000
      0.001346      -0.000010       0.000000
      0.001329       0.000000       0.000000
      0.001134       0.000003       0.000000
      0.001184       0.000016       0.000000
      0.001398      -0.000011       0.000000
      0.001346      -0.000010       0.000000
      0.000871       0.000029       0.000000
      0.000931       0.000063       0.000000
      0.001268       0.000050       0.000000
      0.001184       0.000016       0.000000
      0.000931       0.000063       0.000000
      0.001007       0.000122       0.000000
      0.001390       0.000123       0.000000
      0.001268       0.000050       0.000000
      0.001184       0.000016       0.000000
      0.001268       0.000050       0.000000
      0.001491       0.000008       0.000000
      0.001398      -0.000011       0.000000
      0.001268       0.000050       0.000000
      0.001390       0.000123       0.000000
      0.001637       0.000069       0.000000
      0.001491       0.000008       0.000000
      0.001007       0.000122       0.000000
      0.001081       0.000206       0.000000
      0.001538       0.000254       0.000000
      0.001390       0.000123       0.000000
      0.001081       0.000206       0.000000
      0.001130       0.000287       0.000000
      0.001673       0.000414       0.000000
      0.001538       0.000254       0.000000
      0.001390       0.000123       0.000000
      0.001538       0.000254       0.000000
      0.001860       0.000212       0.000000
      0.001637       0.000069       0.000000
      0.001538       0.000254       0.000000
      0.001673       0.000414       0.000000
      0.002167       0.000498       0.000000
      0.001860       0.000212       0.000000
      0.001329       0.000000       0.000000
      0.001346      -0.000010       0.000000
      0.001474      -0.000023       0.000000
      0.001460       0.000000       0.000000
      0.001346      -0.000010       0.000000
      0.001398      -0.000011       0.000000
      0.001517      -0.000040       0.000000
      0.001474      -0.000023       0.000000
      0.001460       0.000000       0.000000
      0.001474      -0.000023       0.000000
      0.001533      -0.000034       0.000000
      0.001523       0.000000       0.000000
      0.001474      -0.000023       0.000000
      0.001517      -0.000040       0.000000
      0.001563      -0.000061       0.000000
      0.001533      -0.000034       0.000000
      0.001398      -0.000011       0.000000
      0.001491       0.000008       0.000000
      0.001592      -0.000040       0.000000
      0.001517      -0.000040       0.000000
      0.001491       0.000008       0.000000
      0.001637       0.000069       0.000000
      0.001706      -0.000009       0.000000
      0.001592      -0.000040       0.000000
      0.001517      -0.000040       0.000000
      0.001592      -0.000040       0.000000
      0.001610      -0.000072       0.000000
      0.001563      -0.000061       0.000000
      0.001592      -0.000040       0.000000
      0.001706      -0.000009       0.000000
      0.001662      -0.000051       0.000000
      0.001610      -0.000072       0.000000
      0.001637       0.000069       0.000000
      0.001737       0.000127       0.000000
      0.001790       0.000077       0.000000
      0.001693       0.000029       0.000000
      0.001737       0.000127       0.000000
      0.001860       0.000212       0.000000
      0.001915       0.000153       0.000000
      0.001790       0.000077       0.000000
      0.001693       0.000029       0.000000
      0.001790       0.000077       0.000000
      0.001783       0.000029       0.000000
      0.001706      -0.000009       0.000000
      0.001790       0.000077       0.000000
      0.001915       0.000153       0.000000
      0.001879       0.000093       0.000000
      0.001783       0.000029       0.000000
      0.001860       0.000212       0.000000
      0.002008       0.000338       0.000000
      0.002082       0.000276       0.000000
      0.001915       0.000153       0.000000
      0.002008       0.000338       0.000000
      0.002167       0.000498       0.000000
      0.002320       0.000481       0.000000
      0.002082       0.000276       0.000000
      0.001915       0.000153       0.000000
      0.002082       0.000276       0.000000
      0.002002       0.000196       0.000000
      0.001879       0.000093       0.000000
      0.001706      -0.000009       0.000000
      0.001783       0.000029       0.000000
      0.001736      -0.000003       0.000000
      0.001689      -0.000036       0.000000
      0.001783       0.000029       0.000000
      0.001879       0.000093       0.000000
      0.001787       0.000056       0.000000
      0.001736      -0.000003       0.000000
      0.001689      -0.000036       0.000000
      0.001736      -0.000003       0.000000
      0.001683      -0.000017       0.000000
      0.001662      -0.000051       0.000000
      0.001736      -0.000003       0.000000
      0.001787       0.000056       0.000000
      0.001693       0.000045       0.000000
      0.001683      -0.000017       0.000000
      0.001879       0.000093       0.000000
      0.001936       0.000138       0.000000
      0.001876       0.000114       0.000000
      0.001836       0.000071       0.000000
      0.001936       0.000138       0.000000
      0.002002       0.000196       0.000000
      0.001919       0.000170       0.000000
      0.001876       0.000114       0.000000
      0.001836       0.000071       0.000000
      0.001876       0.000114       0.000000
      0.001811       0.000101       0.000000
      0.001787       0.000056       0.000000
      0.001876       0.000114       0.000000
      0.001919       0.000170       0.000000
      0.001834       0.000158       0.000000
      0.001811       0.000101       0.000000
      0.002002       0.000196       0.000000
      0.002084       0.000271       0.000000
      0.001966       0.000243       0.000000
      0.001919       0.000170       0.000000
      0.001919       0.000170       0.000000
      0.001966       0.000243       0.000000
      0.001856       0.000233       0.000000
      0.001834       0.000158       0.000000
      0.001787       0.000056       0.000000
      0.001811       0.000101       0.000000
      0.001750       0.000094       0.000000
      0.001738       0.000048       0.000000
      0.001811       0.000101       0.000000
      0.001834       0.000158       0.000000
      0.001760       0.000154       0.000000
      0.001750       0.000094       0.000000
      0.001738       0.000048       0.000000
      0.001750       0.000094       0.000000
      0.001694       0.000092       0.000000
      0.001693       0.000045       0.000000
      0.001750       0.000094       0.000000
      0.001760       0.000154       0.000000
      0.001693       0.000153       0.000000
      0.001694       0.000092       0.000000
      0.001834       0.000158       0.000000
      0.001845       0.000193       0.000000
      0.001803       0.000191       0.000000
      0.001796       0.000156       0.000000
      0.001845       0.000193       0.000000
      0.001856       0.000233       0.000000
      0.001809       0.000231       0.000000
      0.001803       0.000191       0.000000
      0.001796       0.000156       0.000000
      0.001803       0.000191       0.000000
      0.001764       0.000189       0.000000
      0.001760       0.000154       0.000000
      0.001803       0.000191       0.000000
      0.001809       0.000231       0.000000
      0.001769       0.000229       0.000000
      0.001764       0.000189       0.000000
      0.001856       0.000233       0.000000
      0.001866       0.000280       0.000000
      0.001817       0.000277       0.000000
      0.001809       0.000231       0.000000
      0.001866       0.000280       0.000000
      0.001879       0.000334       0.000000
      0.001833       0.000336       0.000000
      0.001817       0.000277       0.000000
      0.001809       0.000231       0.000000
      0.001817       0.000277       0.000000
      0.001775       0.000272       0.000000
      0.001769       0.000229       0.000000
      0.001817       0.000277       0.000000
      0.001833       0.000336       0.000000
      0.001781       0.000336       0.000000
      0.001775       0.000272       0.000000
      0.001760       0.000154       0.000000
      0.001764       0.000189       0.000000
      0.001729       0.000188       0.000000
      0.001726       0.000153       0.000000
      0.001764       0.000189       0.000000
      0.001769       0.000229       0.000000
      0.001732       0.000226       0.000000
      0.001729       0.000188       0.000000
      0.001726       0.000153       0.000000
      0.001729       0.000188       0.000000
      0.001694       0.000188       0.000000
      0.001693       0.000153       0.000000
      0.001729       0.000188       0.000000
      0.001732       0.000226       0.000000
      0.001700       0.000228       0.000000
      0.001694       0.000188       0.000000
      0.001769       0.000229       0.000000
      0.001775       0.000272       0.000000
      0.001737       0.000263       0.000000
      0.001732       0.000226       0.000000
      0.001775       0.000272       0.000000
      0.001781       0.000336       0.000000
      0.001518       0.000272       0.000000
      0.001737       0.000263       0.000000
      0.001732       0.000226       0.000000
      0.001737       0.000263       0.000000
      0.001742       0.000275       0.000000
      0.001700       0.000228       0.000000
      0.001737       0.000263       0.000000
      0.001518       0.000272       0.000000
      0.007335       0.000650       0.000000
      0.001742       0.000275       0.000000
      0.001966       0.000243       0.000000
      0.001992       0.000289       0.000000
      0.001925       0.000283       0.000000
      0.001908       0.000237       0.000000
      0.001992       0.000289       0.000000
      0.002020       0.000343       0.000000
      0.001942       0.000339       0.000000
      0.001925       0.000283       0.000000
      0.001908       0.000237       0.000000
      0.001925       0.000283       0.000000
      0.001866       0.000280       0.000000
      0.001856       0.000233       0.000000
      0.001925       0.000283       0.000000
      0.001942       0.000339       0.000000
      0.001879       0.000334       0.000000
      0.001866       0.000280       0.000000
      0.002082       0.000276       0.000000
      0.002191       0.000365       0.000000
      0.002168       0.000318       0.000000
      0.002062       0.000234       0.000000
      0.002191       0.000365       0.000000
      0.002320       0.000481       0.000000
      0.002312       0.000436       0.000000
      0.002168       0.000318       0.000000
      0.002062       0.000234       0.000000
      0.002168       0.000318       0.000000
      0.002084       0.000271       0.000000
      0.002002       0.000196       0.000000
      0.002084       0.000271       0.000000
      0.002135       0.000319       0.000000
      0.002065       0.000300       0.000000
      0.002027       0.000254       0.000000
      0.002135       0.000319       0.000000
      0.002199       0.000375       0.000000
      0.002110       0.000354       0.000000
      0.002065       0.000300       0.000000
      0.002027       0.000254       0.000000
      0.002065       0.000300       0.000000
      0.001992       0.000289       0.000000
      0.001966       0.000243       0.000000
      0.002065       0.000300       0.000000
      0.002110       0.000354       0.000000
      0.002020       0.000343       0.000000
      0.001992       0.000289       0.000000
      0.002168       0.000318       0.000000
      0.002233       0.000371       0.000000
      0.002194       0.000344       0.000000
      0.002133       0.000293       0.000000
      0.002233       0.000371       0.000000
      0.002312       0.000436       0.000000
      0.002269       0.000405       0.000000
      0.002194       0.000344       0.000000
      0.002133       0.000293       0.000000
      0.002194       0.000344       0.000000
      0.002135       0.000319       0.000000
      0.002084       0.000271       0.000000
      0.002194       0.000344       0.000000
      0.002269       0.000405       0.000000
      0.002199       0.000375       0.000000
      0.002135       0.000319       0.000000
      0.000000       0.000000       0.000000
      0.000000       0.000000       0.000000
      0.000567       0.000150       0.000000
      0.000573       0.000145       0.000000
      0.000000       0.000000       0.000000
      0.000000       0.000000       0.000000
      0.000567       0.000123       0.000000
      0.000567       0.000150       0.000000
      0.000573       0.000145       0.000000
      0.000567       0.000150       0.000000
      0.001153       0.000301       0.000000
      0.001130       0.000287       0.000000
      0.000567       0.000150       0.000000
      0.000567       0.000123       0.000000
      0.001188       0.000232       0.000000
      0.001153       0.000301       0.000000
      0.000000       0.000000       0.000000
      0.000000       0.000000       0.000000
      0.000583       0.000082       0.000000
      0.000567       0.000123       0.000000
      0.000000       0.000000       0.000000
      0.000000       0.000000       0.000000
      0.000608       0.000046       0.000000
      0.000583       0.000082       0.000000
      0.000567       0.000123       0.000000
      0.000583       0.000082       0.000000
      0.001247       0.000140       0.000000
      0.001188       0.000232       0.000000
      0.000583       0.000082       0.000000
      0.000608       0.000046       0.000000
      0.001309       0.000070       0.000000
      0.001247       0.000140       0.000000
      0.000000       0.000000       0.000000
      0.000000       0.000000       0.000000
      0.000629       0.000020       0.000000
      0.000608       0.000046       0.000000
      0.000000       0.000000       0.000000
      0.000000       0.000000       0.000000
      0.000637       0.000000       0.000000
      0.000629       0.000020       0.000000
      0.000608       0.000046       0.000000
      0.000629       0.000020       0.000000
      0.001354       0.000027       0.000000
      0.001309       0.000070       0.000000
      0.000629       0.000020       0.000000
      0.000637       0.000000       0.000000
      0.001370       0.000000       0.000000
      0.001354       0.000027       0.000000
      0.001130       0.000287       0.000000
      0.001153       0.000301       0.000000
      0.001763       0.000445       0.000000
      0.001673       0.000414       0.000000
      0.001153       0.000301       0.000000
      0.001188       0.000232       0.000000
      0.001879       0.000301       0.000000
      0.001763       0.000445       0.000000
      0.001673       0.000414       0.000000
      0.001763       0.000445       0.000000
      0.002435       0.000571       0.000000
      0.002167       0.000498       0.000000
      0.001763       0.000445       0.000000
      0.001879       0.000301       0.000000
      0.002743       0.000280       0.000000
      0.002435       0.000571       0.000000
      0.001188       0.000232       0.000000
      0.001247       0.000140       0.000000
      0.002019       0.000152       0.000000
      0.001879       0.000301       0.000000
      0.001247       0.000140       0.000000
      0.001309       0.000070       0.000000
      0.002133       0.000062       0.000000
      0.002019       0.000152       0.000000
      0.001879       0.000301       0.000000
      0.002019       0.000152       0.000000
      0.002982       0.000100       0.000000
      0.002743       0.000280       0.000000
      0.002019       0.000152       0.000000
      0.002133       0.000062       0.000000
      0.003126       0.000022       0.000000
      0.002982       0.000100       0.000000
      0.001309       0.000070       0.000000
      0.001354       0.000027       0.000000
      0.002203       0.000019       0.000000
      0.002133       0.000062       0.000000
      0.001354       0.000027       0.000000
      0.001370       0.000000       0.000000
      0.002226       0.000000       0.000000
      0.002203       0.000019       0.000000
      0.002133       0.000062       0.000000
      0.002203       0.000019       0.000000
      0.003200      -0.000001       0.000000
      0.003126       0.000022       0.000000
      0.002203       0.000019       0.000000
      0.002226       0.000000       0.000000
      0.003223       0.000000       0.000000
      0.003200      -0.000001       0.000000
      0.002743       0.000280       0.000000
      0.002982       0.000100       0.000000
      0.004241       0.000025       0.000000
      0.004100       0.000156       0.000000
      0.002982       0.000100       0.000000
      0.003126       0.000022       0.000000
      0.004307      -0.000017       0.000000
      0.004241       0.000025       0.000000
      0.004100       0.000156       0.000000
      0.004241       0.000025       0.000000
      0.005657       0.000038       0.000000