# vtk DataFile Version 2.0
time_10.vtk
ASCII
DATASET UNSTRUCTURED_GRID
POINTS  1188 float
      0.000000       0.000000       0.000000
      0.083333       0.000000       0.000000
      0.083333       0.083333       0.000000
      0.000000       0.083333       0.000000
      0.083333       0.000000       0.000000
      0.166667       0.000000       0.000000
      0.166667       0.083333       0.000000
      0.083333       0.083333       0.000000
      0.000000       0.083333       0.000000
      0.083333       0.083333       0.000000
      0.083333       0.166667       0.000000
      0.000000       0.166667       0.000000
      0.083333       0.083333       0.000000
      0.166667       0.083333       0.000000
      0.166667       0.166667       0.000000
      0.083333       0.166667       0.000000
      0.166667       0.000000       0.000000
      0.250000       0.000000       0.000000
      0.250000       0.083333       0.000000
      0.166667       0.083333       0.000000
      0.250000       0.000000       0.000000
      0.333333       0.000000       0.000000
      0.333333       0.083333       0.000000
      0.250000       0.083333       0.000000
      0.166667       0.083333       0.000000
      0.250000       0.083333       0.000000
      0.250000       0.166667       0.000000
      0.166667       0.166667       0.000000
      0.250000       0.083333       0.000000
      0.333333       0.083333       0.000000
      0.333333       0.166667       0.000000
      0.250000       0.166667       0.000000
      0.333333       0.000000       0.000000
      0.416667       0.000000       0.000000
      0.416667       0.083333       0.000000
      0.333333       0.083333       0.000000
      0.416667       0.000000       0.000000
      0.500000       0.000000       0.000000
      0.500000       0.083333       0.000000
      0.416667       0.083333       0.000000
      0.333333       0.083333       0.000000
      0.416667       0.083333       0.000000
      0.416667       0.166667       0.000000
      0.333333       0.166667       0.000000
      0.416667       0.083333       0.000000
      0.500000       0.083333       0.000000
      0.500000       0.166667       0.000000
      0.416667       0.166667       0.000000
      0.000000       0.166667       0.000000
      0.083333       0.166667       0.000000
      0.083333       0.250000       0.000000
      0.000000       0.250000       0.000000
      0.083333       0.166667       0.000000
      0.166667       0.166667       0.000000
      0.166667       0.250000       0.000000
      0.083333       0.250000       0.000000
      0.000000       0.250000       0.000000
      0.083333       0.250000       0.000000
      0.083333       0.333333       0.000000
      0.000000       0.333333       0.000000
      0.083333       0.250000       0.000000
      0.166667       0.250000       0.000000
      0.166667       0.333333       0.000000
      0.083333       0.333333       0.000000
      0.166667       0.166667       0.000000
      0.250000       0.166667       0.000000
      0.250000       0.250000       0.000000
      0.166667       0.250000       0.000000
      0.250000       0.166667       0.000000
      0.333333       0.166667       0.000000
      0.333333       0.250000       0.000000
      0.250000       0.250000       0.000000
      0.166667       0.250000       0.000000
      0.250000       0.250000       0.000000
      0.250000       0.333333       0.000000
      0.166667       0.333333       0.000000
      0.250000       0.250000       0.000000
      0.333333       0.250000       0.000000
      0.333333       0.333333       0.000000
      0.250000       0.333333       0.000000
      0.333333       0.166667       0.000000
      0.416667       0.166667       0.000000
      0.416667       0.250000       0.000000
      0.333333       0.250000       0.000000
      0.416667       0.166667       0.000000
      0.500000       0.166667       0.000000
      0.500000       0.250000       0.000000
      0.416667       0.250000       0.000000
      0.333333       0.250000       0.000000
      0.416667       0.250000       0.000000
      0.416667       0.333333       0.000000
      0.333333       0.333333       0.000000
      0.416667       0.250000       0.000000
      0.500000       0.250000       0.000000
      0.500000       0.333333       0.000000
      0.416667       0.333333       0.000000
      0.000000       0.333333       0.000000
      0.083333       0.333333       0.000000
      0.083333       0.416667       0.000000
      0.000000       0.416667       0.000000
      0.083333       0.333333       0.000000
      0.166667       0.333333       0.000000
      0.166667       0.416667       0.000000
      0.083333       0.416667       0.000000
      0.000000       0.416667       0.000000
      0.083333       0.416667       0.000000
      0.083333       0.500000       0.000000
      0.000000       0.500000       0.000000
      0.083333       0.416667       0.000000
      0.166667       0.416667       0.000000
      0.166667       0.500000       0.000000
      0.083333       0.500000       0.000000
      0.166667       0.333333       0.000000
      0.250000       0.333333       0.000000
      0.250000       0.416667       0.000000
      0.166667       0.416667       0.000000
      0.250000       0.333333       0.000000
      0.333333       0.333333       0.000000
      0.333333       0.416667       0.000000
      0.250000       0.416667       0.000000
      0.166667       0.416667       0.000000
      0.250000       0.416667       0.000000
      0.250000       0.500000       0.000000
      0.166667       0.500000       0.000000
      0.250000       0.416667       0.000000
      0.333333       0.416667       0.000000
      0.333333       0.500000       0.000000
      0.250000       0.500000       0.000000
      0.333333       0.333333       0.000000
      0.375000       0.333333       0.000000
      0.375000       0.375000       0.000000
      0.333333       0.375000       0.000000
      0.375000       0.333333       0.000000
      0.416667       0.333333       0.000000
      0.416667       0.375000       0.000000
      0.375000       0.375000       0.000000
      0.333333       0.375000       0.000000
      0.375000       0.375000       0.000000
      0.375000       0.416667       0.000000
      0.333333       0.416667       0.000000
      0.375000       0.375000       0.000000
      0.416667       0.375000       0.000000
      0.416667       0.416667       0.000000
      0.375000       0.416667       0.000000
      0.416667       0.333333       0.000000
      0.458333       0.333333       0.000000
      0.458333       0.375000       0.000000
      0.416667       0.375000       0.000000
      0.458333       0.333333       0.000000
      0.500000       0.333333       0.000000
      0.500000       0.375000       0.000000
      0.458333       0.375000       0.000000
      0.416667       0.375000       0.000000
      0.458333       0.375000       0.000000
      0.458333       0.416667       0.000000
      0.416667       0.416667       0.000000
      0.458333       0.375000       0.000000
      0.500000       0.375000       0.000000
      0.500000       0.416667       0.000000
      0.458333       0.416667       0.000000
      0.333333       0.416667       0.000000
      0.375000       0.416667       0.000000
      0.375000       0.458333       0.000000
      0.333333       0.458333       0.000000
      0.375000       0.416667       0.000000
      0.416667       0.416667       0.000000
      0.416667       0.458333       0.000000
      0.375000       0.458333       0.000000
      0.333333       0.458333       0.000000
      0.375000       0.458333       0.000000
      0.375000       0.500000       0.000000
      0.333333       0.500000       0.000000
      0.375000       0.458333       0.000000
      0.416667       0.458333       0.000000
      0.416667       0.500000       0.000000
      0.375000       0.500000       0.000000
      0.416667       0.416667       0.000000
      0.437500       0.416667       0.000000
      0.437500       0.437500       0.000000
      0.416667       0.437500       0.000000
      0.437500       0.416667       0.000000
      0.458333       0.416667       0.000000
      0.458333       0.437500       0.000000
      0.437500       0.437500       0.000000
      0.416667       0.437500       0.000000
      0.437500       0.437500       0.000000
      0.437500       0.458333       0.000000
      0.416667       0.458333       0.000000
      0.437500       0.437500       0.000000
      0.458333       0.437500       0.000000
      0.458333       0.458333       0.000000
      0.437500       0.458333       0.000000
      0.458333       0.416667       0.000000
      0.479167       0.416667       0.000000
      0.479167       0.437500       0.000000
      0.458333       0.437500       0.000000
      0.479167       0.416667       0.000000
      0.500000       0.416667       0.000000
      0.500000       0.437500       0.000000
      0.479167       0.437500       0.000000
      0.458333       0.437500       0.000000
      0.479167       0.437500       0.000000
      0.479167       0.458333       0.000000
      0.458333       0.458333       0.000000
      0.416667       0.458333       0.000000
      0.437500       0.458333       0.000000
      0.437500       0.479167       0.000000
      0.416667       0.479167       0.000000
      0.437500       0.458333       0.000000
      0.458333       0.458333       0.000000
      0.458333       0.479167       0.000000
      0.437500       0.479167       0.000000
      0.416667       0.479167       0.000000
      0.437500       0.479167       0.000000
      0.437500       0.500000       0.000000
      0.416667       0.500000       0.000000
      0.437500       0.479167       0.000000
      0.458333       0.479167       0.000000
      0.458333       0.500000       0.000000
      0.437500       0.500000       0.000000
[...]
POINT_DATA  1188
VECTORS U float 
      0.000000       0.000000       0.000000
      0.000000       0.000000       0.000000
      0.000500       0.000016       0.000000
      0.000495       0.000000       0.000000
      0.000000       0.000000       0.000000
      0.000000       0.000000       0.000000
      0.000515       0.000034       0.000000
      0.000500       0.000016       0.000000
      0.000495       0.000000       0.000000
      0.000500       0.000016       0.000000
      0.000932       0.000023       0.000000
      0.000921       0.000000       0.000000
      0.000500       0.000016       0.000000
      0.000515       0.000034       0.000000
      0.000962       0.000052       0.000000
      0.000932       0.000023       0.000000
      0.000000       0.000000       0.000000
      0.000000       0.000000       0.000000
      0.000536       0.000056       0.000000
      0.000515       0.000034       0.000000
      0.000000       0.000000       0.000000
      0.000000       0.000000       0.000000
      0.000557       0.000084       0.000000
      0.000536       0.000056       0.000000
      0.000515       0.000034       0.000000
      0.000536       0.000056       0.000000
      0.001008       0.000093       0.000000
      0.000962       0.000052       0.000000
      0.000536       0.000056       0.000000
      0.000557       0.000084       0.000000
      0.001061       0.000150       0.000000
      0.001008       0.000093       0.000000
      0.000000       0.000000       0.000000
      0.000000       0.000000       0.000000
      0.000568       0.000112       0.000000
      0.000557       0.000084       0.000000
      0.000000       0.000000       0.000000
      0.000000       0.000000       0.000000
      0.000568       0.000130       0.000000
      0.000568       0.000112       0.000000
      0.000557       0.000084       0.000000
      0.000568       0.000112       0.000000
      0.001107       0.000216       0.000000
      0.001061       0.000150       0.000000
      0.000568       0.000112       0.000000
      0.000568       0.000130       0.000000
      0.001132       0.000260       0.000000
      0.001107       0.000216       0.000000
      0.000921       0.000000       0.000000
      0.000932       0.000023       0.000000
      0.001281       0.000022       0.000000
      0.001265       0.000000       0.000000
      0.000932       0.000023       0.000000
      0.000962       0.000052       0.000000
      0.001326       0.000053       0.000000
      0.001281       0.000022       0.000000
      0.001265       0.000000       0.000000
      0.001281       0.000022       0.000000
      0.001534       0.000012       0.000000
      0.001516       0.000000       0.000000
      0.001281       0.000022       0.000000
      0.001326       0.000053       0.000000
      0.001591       0.000034       0.000000
      0.001534       0.000012       0.000000
      0.000962       0.000052       0.000000
      0.001008       0.000093       0.000000
      0.001402       0.000102       0.000000
      0.001326       0.000053       0.000000
      0.001008       0.000093       0.000000
      0.001061       0.000150       0.000000
      0.001502       0.000181       0.000000
      0.001402       0.000102       0.000000
      0.001326       0.000053       0.000000
      0.001402       0.000102       0.000000
      0.001690       0.000076       0.000000
      0.001591       0.000034       0.000000
      0.001402       0.000102       0.000000
      0.001502       0.000181       0.000000
      0.001840       0.000156       0.000000
      0.001690       0.000076       0.000000
      0.001061       0.000150       0.000000
      0.001107       0.000216       0.000000
      0.001611       0.000292       0.000000
      0.001502       0.000181       0.000000
      0.001107       0.000216       0.000000
      0.001132       0.000260       0.000000
      0.001695       0.000385       0.000000
      0.001611       0.000292       0.000000
      0.001502       0.000181       0.000000
      0.001611       0.000292       0.000000
      0.002045       0.000306       0.000000
      0.001840       0.000156       0.000000
      0.001611       0.000292       0.000000
      0.001695       0.000385       0.000000
      0.002255       0.000498       0.000000
      0.002045       0.000306       0.000000
      0.001516       0.000000       0.000000
      0.001534       0.000012       0.000000
      0.001688      -0.000002       0.000000
      0.001669       0.000000       0.000000
      0.001534       0.000012       0.000000
      0.001591       0.000034       0.000000
      0.001746       0.000004       0.000000
      0.001688      -0.000002       0.000000
      0.001669       0.000000       0.000000
      0.001688      -0.000002       0.000000
      0.001746      -0.000017       0.000000
      0.001730       0.000000       0.000000
      0.001688      -0.000002       0.000000
      0.001746       0.000004       0.000000
      0.001797      -0.000028       0.000000
      0.001746      -0.000017       0.000000
      0.001591       0.000034       0.000000
      0.001690       0.000076       0.000000
      0.001848       0.000026       0.000000
      0.001746       0.000004       0.000000
      0.001690       0.000076       0.000000
      0.001840       0.000156       0.000000
      0.002006       0.000078       0.000000
      0.001848       0.000026       0.000000
      0.001746       0.000004       0.000000
      0.001848       0.000026       0.000000
      0.001882      -0.000024       0.000000
      0.001797      -0.000028       0.000000
      0.001848       0.000026       0.000000
      0.002006       0.000078       0.000000
      0.002001       0.000005       0.000000
      0.001882      -0.000024       0.000000
      0.001840       0.000156       0.000000
      0.001936       0.000221       0.000000
      0.002059       0.000181       0.000000
      0.001947       0.000121       0.000000
      0.001936       0.000221       0.000000
      0.002045       0.000306       0.000000
      0.002197       0.000270       0.000000
      0.002059       0.000181       0.000000
      0.001947       0.000121       0.000000
      0.002059       0.000181       0.000000
      0.002116       0.000126       0.000000
      0.002006       0.000078       0.000000
      0.002059       0.000181       0.000000
      0.002197       0.000270       0.000000
      0.002260       0.000202       0.000000
      0.002116       0.000126       0.000000
      0.002045       0.000306       0.000000
      0.002157       0.000410       0.000000
      0.002360       0.000400       0.000000
      0.002197       0.000270       0.000000
      0.002157       0.000410       0.000000
      0.002255       0.000498       0.000000
      0.002523       0.000546       0.000000
      0.002360       0.000400       0.000000
      0.002197       0.000270       0.000000
      0.002360       0.000400       0.000000
      0.002461       0.000336       0.000000
      0.002260       0.000202       0.000000
      0.002360       0.000400       0.000000
      0.002523       0.000546       0.000000
      0.002749       0.000570       0.000000
      0.002461       0.000336       0.000000
      0.002006       0.000078       0.000000
      0.002116       0.000126       0.000000
      0.002108       0.000073       0.000000
      0.002018       0.000037       0.000000
      0.002116       0.000126       0.000000
      0.002260       0.000202       0.000000
      0.002217       0.000130       0.000000
      0.002108       0.000073       0.000000
      0.002018       0.000037       0.000000
      0.002108       0.000073       0.000000
      0.002068       0.000037       0.000000
      0.002001       0.000005       0.000000
      0.002108       0.000073       0.000000
      0.002217       0.000130       0.000000
      0.002130       0.000091       0.000000
      0.002068       0.000037       0.000000
      0.002260       0.000202       0.000000
      0.002351       0.000259       0.000000
      0.002333       0.000213       0.000000
      0.002250       0.000163       0.000000
      0.002351       0.000259       0.000000
      0.002461       0.000336       0.000000
      0.002437       0.000283       0.000000
      0.002333       0.000213       0.000000
      0.002250       0.000163       0.000000
      0.002333       0.000213       0.000000
      0.002281       0.000173       0.000000
      0.002217       0.000130       0.000000
      0.002333       0.000213       0.000000
      0.002437       0.000283       0.000000
      0.002358       0.000234       0.000000
      0.002281       0.000173       0.000000
      0.002461       0.000336       0.000000
      0.002594       0.000442       0.000000
      0.002580       0.000387       0.000000
      0.002437       0.000283       0.000000
      0.002594       0.000442       0.000000
      0.002749       0.000570       0.000000
      0.002798       0.000549       0.000000
      0.002580       0.000387       0.000000
      0.002437       0.000283       0.000000
      0.002580       0.000387       0.000000
      0.002462       0.000323       0.000000
      0.002358       0.000234       0.000000
      0.002217       0.000130       0.000000
      0.002281       0.000173       0.000000
      0.002214       0.000147       0.000000
      0.002172       0.000106       0.000000
      0.002281       0.000173       0.000000
      0.002358       0.000234       0.000000
      0.002256       0.000205       0.000000
      0.002214       0.000147       0.000000
      0.002172       0.000106       0.000000
      0.002214       0.000147       0.000000
      0.002153       0.000134       0.000000
      0.002130       0.000091       0.000000
      0.002214       0.000147       0.000000
      0.002256       0.000205       0.000000
      0.002169       0.000195       0.000000
      0.002153       0.000134       0.000000
      0.002358       0.000234       0.000000
      0.002405       0.000274       0.000000
      0.002340       0.000255       0.000000
      0.002307       0.000217       0.000000
      0.002405       0.000274       0.000000
      0.002462       0.000323       0.000000
      0.002379       0.000302       0.000000
      0.002340       0.000255       0.000000
      0.002307       0.000217       0.000000
      0.002340       0.000255       0.000000
      0.002277       0.000244       0.000000
      0.002256       0.000205       0.000000
      0.002340       0.000255       0.000000
      0.002379       0.000302       0.000000
      0.002298       0.000291       0.000000
      0.002277       0.000244       0.000000
      0.002462       0.000323       0.000000
      0.002541       0.000385       0.000000
      0.002428       0.000360       0.000000
      0.002379       0.000302       0.000000
      0.002541       0.000385       0.000000
      0.002674       0.000468       0.000000
      0.002510       0.000435       0.000000
      0.002428       0.000360       0.000000
      0.002379       0.000302       0.000000
      0.002428       0.000360       0.000000
      0.002323       0.000348       0.000000
      0.002298       0.000291       0.000000
      0.002428       0.000360       0.000000
      0.002510       0.000435       0.000000
      0.002364       0.000435       0.000000
      0.002323       0.000348       0.000000
      0.002256       0.000205       0.000000
      0.002277       0.000244       0.000000
      0.002221       0.000238       0.000000
      0.002209       0.000198       0.000000
      0.002277       0.000244       0.000000
      0.002298       0.000291       0.000000
      0.002232       0.000285       0.000000
      0.002221       0.000238       0.000000
      0.002209       0.000198       0.000000
      0.002221       0.000238       0.000000
      0.002175       0.000235       0.000000
      0.002169       0.000195       0.000000
      0.002221       0.000238       0.000000
      0.002232       0.000285       0.000000
      0.002182       0.000285       0.000000
      0.002175       0.000235       0.000000
      0.002298       0.000291       0.000000
      0.002323       0.000348       0.000000
      0.002245       0.000339       0.000000
      0.002232       0.000285       0.000000
      0.002323       0.000348       0.000000
      0.002364       0.000435       0.000000
      0.002123       0.000366       0.000000
      0.002245       0.000339       0.000000
      0.002232       0.000285       0.000000
      0.002245       0.000339       0.000000
      0.002219       0.000348       0.000000
      0.002182       0.000285       0.000000
      0.002245       0.000339       0.000000
      0.002123       0.000366       0.000000
      0.006701       0.000533       0.000000
      0.002219       0.000348       0.000000
      0.002580       0.000387       0.000000
      0.002676       0.000460       0.000000
      0.002629       0.000423       0.000000
      0.002533       0.000353       0.000000
      0.002676       0.000460       0.000000
      0.002798       0.000549       0.000000
      0.002771       0.000517       0.000000
      0.002629       0.000423       0.000000
      0.002533       0.000353       0.000000
      0.002629       0.000423       0.000000
      0.002541       0.000385       0.000000
      0.002462       0.000323       0.000000
      0.002629       0.000423       0.000000
      0.002771       0.000517       0.000000
      0.002674       0.000468       0.000000
      0.002541       0.000385       0.000000
      0.000000       0.000000       0.000000
      0.000000       0.000000       0.000000
      0.000562       0.000124       0.000000
      0.000568       0.000130       0.000000
      0.000000       0.000000       0.000000
      0.000000       0.000000       0.000000
      0.000564       0.000098       0.000000
      0.000562       0.000124       0.000000
      0.000568       0.000130       0.000000
      0.000562       0.000124       0.000000
      0.001148       0.000248       0.000000
      0.001132       0.000260       0.000000
      0.000562       0.000124       0.000000
      0.000564       0.000098       0.000000
      0.001177       0.000184       0.000000
      0.001148       0.000248       0.000000
      0.000000       0.000000       0.000000
      0.000000       0.000000       0.000000
      0.000579       0.000065       0.000000
      0.000564       0.000098       0.000000
      0.000000       0.000000       0.000000
      0.000000       0.000000       0.000000
      0.000600       0.000037       0.000000
      0.000579       0.000065       0.000000
      0.000564       0.000098       0.000000
      0.000579       0.000065       0.000000
      0.001225       0.000111       0.000000
      0.001177       0.000184       0.000000
      0.000579       0.000065       0.000000
      0.000600       0.000037       0.000000
      0.001274       0.000057       0.000000
      0.001225       0.000111       0.000000
      0.000000       0.000000       0.000000
      0.000000       0.000000       0.000000
      0.000616       0.000016       0.000000
      0.000600       0.000037       0.000000
      0.000000       0.000000       0.000000
      0.000000       0.000000       0.000000
      0.000623       0.000000       0.000000
      0.000616       0.000016       0.000000
      0.000600       0.000037       0.000000
      0.000616       0.000016       0.000000
      0.001309       0.000022       0.000000
      0.001274       0.000057       0.000000
      0.000616       0.000016       0.000000
      0.000623       0.000000       0.000000
      0.001322       0.000000       0.000000
      0.001309       0.000022       0.000000
      0.001132       0.000260       0.000000
      0.001148       0.000248       0.000000
      0.001759       0.000360       0.000000
      0.001695       0.000385       0.000000
      0.001148       0.000248       0.000000
      0.001177       0.000184       0.000000
      0.001849       0.000238       0.000000
      0.001759       0.000360       0.000000
      0.001695       0.000385       0.000000
      0.001759       0.000360       0.000000
      0.002424       0.000444       0.000000
      0.002255       0.000498       0.000000
      0.001759       0.000360       0.000000
      0.001849       0.000238       0.000000
      0.002640       0.000227       0.000000
      0.002424       0.000444       0.000000
      0.001177       0.000184       0.000000
      0.001225       0.000111       0.000000
      0.001955       0.000123       0.000000
      0.001849       0.000238       0.000000
      0.001225       0.000111       0.000000
      0.001274       0.000057       0.000000
      0.002044       0.000052       0.000000
      0.001955       0.000123       0.000000
      0.001849       0.000238       0.000000
      0.001955       0.000123       0.000000
      0.002823       0.000085       0.000000
      0.002640       0.000227       0.000000
      0.001955       0.000123       0.000000
      0.002044       0.000052       0.000000
      0.002943       0.000020       0.000000
      0.002823       0.000085       0.000000
      0.001274       0.000057       0.000000
      0.001309       0.000022       0.000000
      0.002100       0.000017       0.000000
      0.002044       0.000052       0.000000
      0.001309       0.000022       0.000000
      0.001322       0.000000       0.000000
      0.002118       0.000000       0.000000
      0.002100       0.000017       0.000000
      0.002044       0.000052       0.000000
      0.002100       0.000017       0.000000
      0.003008       0.000000       0.000000
      0.002943       0.000020       0.000000
      0.002100       0.000017       0.000000
      0.002118       0.000000       0.000000
      0.003028       0.000000       0.000000
      0.003008       0.000000       0.000000
      0.002640       0.000227       0.000000
      0.002823       0.000085       0.000000
      0.003911       0.000014       0.000000
      0.003740       0.000123       0.000000
      0.002823       0.000085       0.000000
      0.002943       0.000020       0.000000
      0.003995      -0.000020       0.000000
      0.003911       0.000014       0.000000
      0.003740       0.000123       0.000000
      0.003911       0.000014       0.000000
      0.005182      -0.000006       0.000000
      0.005256       0.000078       0.000000
      0.003911       0.000014       0.000000
      0.003995      -0.000020       0.000000
      0.005148      -0.000030       0.000000
      0.005182      -0.000006       0.000000
      0.002943       0.000020       0.000000
      0.003008       0.000000       0.000000
      0.004035      -0.000018       0.000000
      0.003995      -0.000020       0.000000
      0.003008       0.000000       0.000000
      0.003028       0.000000       0.000000
      0.004047       0.000000       0.000000
      0.004035      -0.000018       0.000000
      0.003995      -0.000020       0.000000
      0.004035      -0.000018       0.000000
      0.005132      -0.000022       0.000000
      0.005148      -0.000030       0.000000
      0.004035      -0.000018       0.000000
      0.004047       0.000000       0.000000
      0.005128       0.000000       0.000000
      0.005132      -0.000022       0.000000
      0.002255       0.000498       0.000000
      0.002336       0.000515       0.000000
      0.002663       0.000578       0.000000
      0.002523       0.000546       0.000000
      0.002336       0.000515       0.000000
      0.002424       0.000444       0.000000
      0.002819       0.000455       0.000000
      0.002663       0.000578       0.000000
      0.002523       0.000546       0.000000
      0.002663       0.000578       0.000000
      0.003065       0.000631       0.000000
      0.002749       0.000570       0.000000
      0.002663       0.000578       0.000000
      0.002819       0.000455       0.000000
      0.003366       0.000409       0.000000