# vtk DataFile Version 2.0
time_10.vtk
ASCII
DATASET UNSTRUCTURED_GRID
POINTS  1416 float
      0.000000       0.000000       0.000000
      0.083333       0.000000       0.000000
      0.083333       0.083333       0.000000
      0.000000       0.083333       0.000000
      0.083333       0.000000       0.000000
      0.166667       0.000000       0.000000
      0.166667       0.083333       0.000000
      0.083333       0.083333       0.000000
      0.000000       0.083333       0.000000
      0.083333       0.083333       0.000000
      0.083333       0.166667       0.000000
      0.000000       0.166667       0.000000
      0.083333       0.083333       0.000000
      0.166667       0.083333       0.000000
      0.166667       0.166667       0.000000
      0.083333       0.166667       0.000000
      0.166667       0.000000       0.000000
      0.250000       0.000000       0.000000
      0.250000       0.083333       0.000000
      0.166667       0.083333       0.000000
      0.250000       0.000000       0.000000
      0.333333       0.000000       0.000000
      0.333333       0.083333       0.000000
      0.250000       0.083333       0.000000
      0.166667       0.083333       0.000000
      0.250000       0.083333       0.000000
      0.250000       0.166667       0.000000
      0.166667       0.166667       0.000000
      0.250000       0.083333       0.000000
      0.333333       0.083333       0.000000
      0.333333       0.166667       0.000000
      0.250000       0.166667       0.000000
      0.333333       0.000000       0.000000
      0.416667       0.000000       0.000000
      0.416667       0.083333       0.000000
      0.333333       0.083333       0.000000
      0.416667       0.000000       0.000000
      0.500000       0.000000       0.000000
      0.500000       0.083333       0.000000
      0.416667       0.083333       0.000000
      0.333333       0.083333       0.000000
      0.416667       0.083333       0.000000
      0.416667       0.166667       0.000000
      0.333333       0.166667       0.000000
      0.416667       0.083333       0.000000
      0.500000       0.083333       0.000000
      0.500000       0.166667       0.000000
      0.416667       0.166667       0.000000
      0.000000       0.166667       0.000000
      0.083333       0.166667       0.000000
      0.083333       0.250000       0.000000
      0.000000       0.250000       0.000000
      0.083333       0.166667       0.000000
      0.166667       0.166667       0.000000
      0.166667       0.250000       0.000000
      0.083333       0.250000       0.000000
      0.000000       0.250000       0.000000
      0.083333       0.250000       0.000000
      0.083333       0.333333       0.000000
      0.000000       0.333333       0.000000
      0.083333       0.250000       0.000000
      0.166667       0.250000       0.000000
      0.166667       0.333333       0.000000
      0.083333       0.333333       0.000000
      0.166667       0.166667       0.000000
      0.250000       0.166667       0.000000
      0.250000       0.250000       0.000000
      0.166667       0.250000       0.000000
      0.250000       0.166667       0.000000
      0.333333       0.166667       0.000000
      0.333333       0.250000       0.000000
      0.250000       0.250000       0.000000
      0.166667       0.250000       0.000000
      0.250000       0.250000       0.000000
      0.250000       0.333333       0.000000
      0.166667       0.333333       0.000000
      0.250000       0.250000       0.000000
      0.333333       0.250000       0.000000
      0.333333       0.333333       0.000000
      0.250000       0.333333       0.000000
      0.333333       0.166667       0.000000
      0.416667       0.166667       0.000000
      0.416667       0.250000       0.000000
      0.333333       0.250000       0.000000
      0.416667       0.166667       0.000000
      0.500000       0.166667       0.000000
      0.500000       0.250000       0.000000
      0.416667       0.250000       0.000000
      0.333333       0.250000       0.000000
      0.416667       0.250000       0.000000
      0.416667       0.333333       0.000000
      0.333333       0.333333       0.000000
      0.416667       0.250000       0.000000
      0.500000       0.250000       0.000000
      0.500000       0.333333       0.000000
      0.416667       0.333333       0.000000
      0.000000       0.333333       0.000000
      0.083333       0.333333       0.000000
      0.083333       0.416667       0.000000
      0.000000       0.416667       0.000000
      0.083333       0.333333       0.000000
      0.166667       0.333333       0.000000
      0.166667       0.416667       0.000000
      0.083333       0.416667       0.000000
      0.000000       0.416667       0.000000
      0.083333       0.416667       0.000000
      0.083333       0.500000       0.000000
      0.000000       0.500000       0.000000
      0.083333       0.416667       0.000000
      0.166667       0.416667       0.000000
      0.166667       0.500000       0.000000
      0.083333       0.500000       0.000000
      0.166667       0.333333       0.000000
      0.250000       0.333333       0.000000
      0.250000       0.416667       0.000000
      0.166667       0.416667       0.000000
      0.250000       0.333333       0.000000
      0.333333       0.333333       0.000000
      0.333333       0.416667       0.000000
      0.250000       0.416667       0.000000
      0.166667       0.416667       0.000000
      0.250000       0.416667       0.000000
      0.250000       0.500000       0.000000
      0.166667       0.500000       0.000000
      0.250000       0.416667       0.000000
      0.333333       0.416667       0.000000
      0.333333       0.500000       0.000000
      0.250000       0.500000       0.000000
      0.333333       0.333333       0.000000
      0.375000       0.333333       0.000000
      0.375000       0.375000       0.000000
      0.333333       0.375000       0.000000
      0.375000       0.333333       0.000000
      0.416667       0.333333       0.000000
      0.416667       0.375000       0.000000
      0.375000       0.375000       0.000000
      0.333333       0.375000       0.000000
      0.375000       0.375000       0.000000
      0.375000       0.416667       0.000000
      0.333333       0.416667       0.000000
      0.375000       0.375000       0.000000
      0.416667       0.375000       0.000000
      0.416667       0.416667       0.000000
      0.375000       0.416667       0.000000
      0.416667       0.333333       0.000000
      0.458333       0.333333       0.000000
      0.458333       0.375000       0.000000
      0.416667       0.375000       0.000000
      0.458333       0.333333       0.000000
      0.500000       0.333333       0.000000
      0.500000       0.375000       0.000000
      0.458333       0.375000       0.000000
      0.416667       0.375000       0.000000
      0.458333       0.375000       0.000000
      0.458333       0.416667       0.000000
      0.416667       0.416667       0.000000
      0.333333       0.416667       0.000000
      0.375000       0.416667       0.000000
      0.375000       0.458333       0.000000
      0.333333       0.458333       0.000000
      0.375000       0.416667       0.000000
      0.416667       0.416667       0.000000
      0.416667       0.458333       0.000000
      0.375000       0.458333       0.000000
      0.333333       0.458333       0.000000
      0.375000       0.458333       0.000000
      0.375000       0.500000       0.000000
      0.333333       0.500000       0.000000
      0.375000       0.458333       0.000000
      0.416667       0.458333       0.000000
      0.416667       0.500000       0.000000
      0.375000       0.500000       0.000000
      0.416667       0.416667       0.000000
      0.437500       0.416667       0.000000
      0.437500       0.437500       0.000000
      0.416667       0.437500       0.000000
      0.437500       0.416667       0.000000
      0.458333       0.416667       0.000000
      0.458333       0.437500       0.000000
      0.437500       0.437500       0.000000
      0.416667       0.437500       0.000000
      0.437500       0.437500       0.000000
      0.437500       0.458333       0.000000
      0.416667       0.458333       0.000000
      0.437500       0.437500       0.000000
      0.458333       0.437500       0.000000
      0.458333       0.458333       0.000000
      0.437500       0.458333       0.000000
      0.458333       0.416667       0.000000
      0.479167       0.416667       0.000000
      0.479167       0.437500       0.000000
      0.458333       0.437500       0.000000
      0.416667       0.458333       0.000000
      0.437500       0.458333       0.000000
      0.437500       0.479167       0.000000
      0.416667       0.479167       0.000000
      0.437500       0.458333       0.000000
      0.458333       0.458333       0.000000
      0.458333       0.479167       0.000000
      0.437500       0.479167       0.000000
      0.416667       0.479167       0.000000
      0.437500       0.479167       0.000000
      0.437500       0.500000       0.000000
      0.416667       0.500000       0.000000
      0.437500       0.479167       0.000000
      0.458333       0.479167       0.000000
      0.458333       0.500000       0.000000
      0.437500       0.500000       0.000000
      0.458333       0.458333       0.000000
      0.468750       0.458333       0.000000
      0.468750       0.468750       0.000000
      0.458333       0.468750       0.000000
      0.468750       0.458333       0.000000
      0.479167       0.458333       0.000000
      0.479167       0.468750       0.000000
      0.468750       0.468750       0.000000
      0.458333       0.468750       0.000000
      0.468750       0.468750       0.000000
      0.468750       0.479167       0.000000
      0.458333       0.479167       0.000000
[...]
POINT_DATA  1416
VECTORS U float 
      0.000000       0.000000       0.000000
      0.000000       0.000000       0.000000
      0.000502       0.000016       0.000000
      0.000497       0.000000       0.000000
      0.000000       0.000000       0.000000
      0.000000       0.000000       0.000000
      0.000517       0.000034       0.000000
      0.000502       0.000016       0.000000
      0.000497       0.000000       0.000000
      0.000502       0.000016       0.000000
      0.000936       0.000024       0.000000
      0.000926       0.000000       0.000000
      0.000502       0.000016       0.000000
      0.000517       0.000034       0.000000
      0.000966       0.000054       0.000000
      0.000936       0.000024       0.000000
      0.000000       0.000000       0.000000
      0.000000       0.000000       0.000000
      0.000537       0.000057       0.000000
      0.000517       0.000034       0.000000
      0.000000       0.000000       0.000000
      0.000000       0.000000       0.000000
      0.000556       0.000084       0.000000
      0.000537       0.000057       0.000000
      0.000517       0.000034       0.000000
      0.000537       0.000057       0.000000
      0.001010       0.000095       0.000000
      0.000966       0.000054       0.000000
      0.000537       0.000057       0.000000
      0.000556       0.000084       0.000000
      0.001062       0.000151       0.000000
      0.001010       0.000095       0.000000
      0.000000       0.000000       0.000000
      0.000000       0.000000       0.000000
      0.000567       0.000112       0.000000
      0.000556       0.000084       0.000000
      0.000000       0.000000       0.000000
      0.000000       0.000000       0.000000
      0.000566       0.000128       0.000000
      0.000567       0.000112       0.000000
      0.000556       0.000084       0.000000
      0.000567       0.000112       0.000000
      0.001105       0.000215       0.000000
      0.001062       0.000151       0.000000
      0.000567       0.000112       0.000000
      0.000566       0.000128       0.000000
      0.001129       0.000257       0.000000
      0.001105       0.000215       0.000000
      0.000926       0.000000       0.000000
      0.000936       0.000024       0.000000
      0.001287       0.000023       0.000000
      0.001272       0.000000       0.000000
      0.000936       0.000024       0.000000
      0.000966       0.000054       0.000000
      0.001332       0.000055       0.000000
      0.001287       0.000023       0.000000
      0.001272       0.000000       0.000000
      0.001287       0.000023       0.000000
      0.001543       0.000014       0.000000
      0.001525       0.000000       0.000000
      0.001287       0.000023       0.000000
      0.001332       0.000055       0.000000
      0.001600       0.000038       0.000000
      0.001543       0.000014       0.000000
      0.000966       0.000054       0.000000
      0.001010       0.000095       0.000000
      0.001407       0.000105       0.000000
      0.001332       0.000055       0.000000
      0.001010       0.000095       0.000000
      0.001062       0.000151       0.000000
      0.001505       0.000184       0.000000
      0.001407       0.000105       0.000000
      0.001332       0.000055       0.000000
      0.001407       0.000105       0.000000
      0.001699       0.000081       0.000000
      0.001600       0.000038       0.000000
      0.001407       0.000105       0.000000
      0.001505       0.000184       0.000000
      0.001848       0.000162       0.000000
      0.001699       0.000081       0.000000
      0.001062       0.000151       0.000000
      0.001105       0.000215       0.000000
      0.001611       0.000292       0.000000
      0.001505       0.000184       0.000000
      0.001105       0.000215       0.000000
      0.001129       0.000257       0.000000
      0.001692       0.000380       0.000000
      0.001611       0.000292       0.000000
      0.001505       0.000184       0.000000
      0.001611       0.000292       0.000000
      0.002050       0.000310       0.000000
      0.001848       0.000162       0.000000
      0.001611       0.000292       0.000000
      0.001692       0.000380       0.000000
      0.002253       0.000493       0.000000
      0.002050       0.000310       0.000000
      0.001525       0.000000       0.000000
      0.001543       0.000014       0.000000
      0.001699      -0.000000       0.000000
      0.001679       0.000000       0.000000
      0.001543       0.000014       0.000000
      0.001600       0.000038       0.000000
      0.001758       0.000007       0.000000
      0.001699      -0.000000       0.000000
      0.001679       0.000000       0.000000
      0.001699      -0.000000       0.000000
      0.001757      -0.000016       0.000000
      0.001740       0.000000       0.000000
      0.001699      -0.000000       0.000000
      0.001758       0.000007       0.000000
      0.001809      -0.000025       0.000000
      0.001757      -0.000016       0.000000
      0.001600       0.000038       0.000000
      0.001699       0.000081       0.000000
      0.001861       0.000031       0.000000
      0.001758       0.000007       0.000000
      0.001699       0.000081       0.000000
      0.001848       0.000162       0.000000
      0.002022       0.000085       0.000000
      0.001861       0.000031       0.000000
      0.001758       0.000007       0.000000
      0.001861       0.000031       0.000000
      0.001897      -0.000020       0.000000
      0.001809      -0.000025       0.000000
      0.001861       0.000031       0.000000
      0.002022       0.000085       0.000000
      0.002023       0.000010       0.000000
      0.001897      -0.000020       0.000000
      0.001848       0.000162       0.000000
      0.001943       0.000226       0.000000
      0.002071       0.000188       0.000000
      0.001960       0.000128       0.000000
      0.001943       0.000226       0.000000
      0.002050       0.000310       0.000000
      0.002207       0.000276       0.000000
      0.002071       0.000188       0.000000
      0.001960       0.000128       0.000000
      0.002071       0.000188       0.000000
      0.002134       0.000133       0.000000
      0.002022       0.000085       0.000000
      0.002071       0.000188       0.000000
      0.002207       0.000276       0.000000
      0.002280       0.000210       0.000000
      0.002134       0.000133       0.000000
      0.002050       0.000310       0.000000
      0.002158       0.000410       0.000000
      0.002367       0.000404       0.000000
      0.002207       0.000276       0.000000
      0.002158       0.000410       0.000000
      0.002253       0.000493       0.000000
      0.002524       0.000541       0.000000
      0.002367       0.000404       0.000000
      0.002207       0.000276       0.000000
      0.002367       0.000404       0.000000
      0.002482       0.000344       0.000000
      0.002280       0.000210       0.000000
      0.002022       0.000085       0.000000
      0.002134       0.000133       0.000000
      0.002131       0.000079       0.000000
      0.002038       0.000044       0.000000
      0.002134       0.000133       0.000000
      0.002280       0.000210       0.000000
      0.002245       0.000136       0.000000
      0.002131       0.000079       0.000000
      0.002038       0.000044       0.000000
      0.002131       0.000079       0.000000
      0.002094       0.000041       0.000000
      0.002023       0.000010       0.000000
      0.002131       0.000079       0.000000
      0.002245       0.000136       0.000000
      0.002162       0.000094       0.000000
      0.002094       0.000041       0.000000
      0.002280       0.000210       0.000000
      0.002372       0.000266       0.000000
      0.002360       0.000221       0.000000
      0.002274       0.000171       0.000000
      0.002372       0.000266       0.000000
      0.002482       0.000344       0.000000
      0.002468       0.000291       0.000000
      0.002360       0.000221       0.000000
      0.002274       0.000171       0.000000
      0.002360       0.000221       0.000000
      0.002313       0.000179       0.000000
      0.002245       0.000136       0.000000
      0.002360       0.000221       0.000000
      0.002468       0.000291       0.000000
      0.002396       0.000239       0.000000
      0.002313       0.000179       0.000000
      0.002482       0.000344       0.000000
      0.002613       0.000448       0.000000
      0.002614       0.000397       0.000000
      0.002468       0.000291       0.000000
      0.002245       0.000136       0.000000
      0.002313       0.000179       0.000000
      0.002248       0.000150       0.000000
      0.002203       0.000110       0.000000
      0.002313       0.000179       0.000000
      0.002396       0.000239       0.000000
      0.002295       0.000207       0.000000
      0.002248       0.000150       0.000000
      0.002203       0.000110       0.000000
      0.002248       0.000150       0.000000
      0.002190       0.000135       0.000000
      0.002162       0.000094       0.000000
      0.002248       0.000150       0.000000
      0.002295       0.000207       0.000000
      0.002209       0.000194       0.000000
      0.002190       0.000135       0.000000
      0.002396       0.000239       0.000000
      0.002447       0.000280       0.000000
      0.002384       0.000258       0.000000
      0.002346       0.000220       0.000000
      0.002447       0.000280       0.000000
      0.002511       0.000330       0.000000
      0.002428       0.000305       0.000000
      0.002384       0.000258       0.000000
      0.002346       0.000220       0.000000
      0.002384       0.000258       0.000000
      0.002319       0.000245       0.000000
      0.002295       0.000207       0.000000
      0.002384       0.000258       0.000000
      0.002428       0.000305       0.000000
      0.002345       0.000291       0.000000
      0.002319       0.000245       0.000000
      0.002511       0.000330       0.000000
      0.002599       0.000394       0.000000
      0.002488       0.000363       0.000000
      0.002428       0.000305       0.000000
      0.002599       0.000394       0.000000
      0.002748       0.000484       0.000000
      0.002594       0.000441       0.000000
      0.002488       0.000363       0.000000
      0.002428       0.000305       0.000000
      0.002488       0.000363       0.000000
      0.002376       0.000348       0.000000
      0.002345       0.000291       0.000000
      0.002488       0.000363       0.000000
      0.002594       0.000441       0.000000
      0.002427       0.000434       0.000000
      0.002376       0.000348       0.000000
      0.002295       0.000207       0.000000
      0.002319       0.000245       0.000000
      0.002263       0.000237       0.000000
      0.002248       0.000199       0.000000
      0.002319       0.000245       0.000000
      0.002345       0.000291       0.000000
      0.002276       0.000284       0.000000
      0.002263       0.000237       0.000000
      0.002248       0.000199       0.000000
      0.002263       0.000237       0.000000
      0.002216       0.000234       0.000000
      0.002209       0.000194       0.000000
      0.002263       0.000237       0.000000
      0.002276       0.000284       0.000000
      0.002224       0.000283       0.000000
      0.002216       0.000234       0.000000
      0.002345       0.000291       0.000000
      0.002376       0.000348       0.000000
      0.002290       0.000338       0.000000
      0.002276       0.000284       0.000000
      0.002376       0.000348       0.000000
      0.002427       0.000434       0.000000
      0.002182       0.000367       0.000000
      0.002290       0.000338       0.000000
      0.002276       0.000284       0.000000
      0.002290       0.000338       0.000000
      0.002261       0.000347       0.000000
      0.002224       0.000283       0.000000
      0.002290       0.000338       0.000000
      0.002182       0.000367       0.000000
      0.006633       0.000522       0.000000
      0.002261       0.000347       0.000000
      0.002614       0.000397       0.000000
      0.002710       0.000469       0.000000
      0.002676       0.000434       0.000000
      0.002576       0.000363       0.000000
      0.002710       0.000469       0.000000
      0.002827       0.000556       0.000000
      0.002819       0.000530       0.000000
      0.002676       0.000434       0.000000
      0.002576       0.000363       0.000000
      0.002676       0.000434       0.000000
      0.002599       0.000394       0.000000
      0.002511       0.000330       0.000000
      0.002676       0.000434       0.000000
      0.002819       0.000530       0.000000
      0.002748       0.000484       0.000000
      0.002599       0.000394       0.000000
      0.002367       0.000404       0.000000
      0.002449       0.000477       0.000000
      0.002547       0.000472       0.000000
      0.002443       0.000382       0.000000
      0.002449       0.000477       0.000000
      0.002524       0.000541       0.000000
      0.002651       0.000560       0.000000
      0.002547       0.000472       0.000000
      0.002443       0.000382       0.000000
      0.002547       0.000472       0.000000
      0.002613       0.000448       0.000000
      0.002482       0.000344       0.000000
      0.002547       0.000472       0.000000
      0.002651       0.000560       0.000000
      0.002761       0.000570       0.000000
      0.002613       0.000448       0.000000
      0.002613       0.000448       0.000000
      0.002686       0.000509       0.000000
      0.002709       0.000494       0.000000
      0.002624       0.000426       0.000000
      0.002686       0.000509       0.000000
      0.002761       0.000570       0.000000
      0.002803       0.000567       0.000000
      0.002709       0.000494       0.000000
      0.002624       0.000426       0.000000
      0.002709       0.000494       0.000000
      0.002710       0.000469       0.000000
      0.002614       0.000397       0.000000
      0.002709       0.000494       0.000000
      0.002803       0.000567       0.000000
      0.002827       0.000556       0.000000
      0.002710       0.000469       0.000000
      0.002468       0.000291       0.000000
      0.002534       0.000338       0.000000
      0.002500       0.000308       0.000000
      0.002438       0.000264       0.000000
      0.002534       0.000338       0.000000
      0.002614       0.000397       0.000000
      0.002576       0.000363       0.000000
      0.002500       0.000308       0.000000
      0.002438       0.000264       0.000000
      0.002500       0.000308       0.000000
      0.002447       0.000280       0.000000
      0.002396       0.000239       0.000000
      0.002500       0.000308       0.000000
      0.002576       0.000363       0.000000
      0.002511       0.000330       0.000000
      0.002447       0.000280       0.000000
      0.000000       0.000000       0.000000
      0.000000       0.000000       0.000000
      0.000560       0.000122       0.000000
      0.000566       0.000128       0.000000
      0.000000       0.000000       0.000000
      0.000000       0.000000       0.000000
      0.000563       0.000096       0.000000
      0.000560       0.000122       0.000000
      0.000566       0.000128       0.000000
      0.000560       0.000122       0.000000
      0.001144       0.000243       0.000000
      0.001129       0.000257       0.000000
      0.000560       0.000122       0.000000
      0.000563       0.000096       0.000000
      0.001174       0.000180       0.000000
      0.001144       0.000243       0.000000
      0.000000       0.000000       0.000000
      0.000000       0.000000       0.000000
      0.000577       0.000064       0.000000
      0.000563       0.000096       0.000000
      0.000000       0.000000       0.000000
      0.000000       0.000000       0.000000
      0.000598       0.000036       0.000000
      0.000577       0.000064       0.000000
      0.000563       0.000096       0.000000
      0.000577       0.000064       0.000000
      0.001220       0.000109       0.000000
      0.001174       0.000180       0.000000
      0.000577       0.000064       0.000000
      0.000598       0.000036       0.000000
      0.001269       0.000056       0.000000
      0.001220       0.000109       0.000000
      0.000000       0.000000       0.000000
      0.000000       0.000000       0.000000
      0.000614       0.000016       0.000000
      0.000598       0.000036       0.000000
      0.000000       0.000000       0.000000
      0.000000       0.000000       0.000000
      0.000620       0.000000       0.000000
      0.000614       0.000016       0.000000
      0.000598       0.000036       0.000000
      0.000614       0.000016       0.000000
      0.001303       0.000022       0.000000
      0.001269       0.000056       0.000000
      0.000614       0.000016       0.000000
      0.000620       0.000000       0.000000
      0.001316       0.000000       0.000000
      0.001303       0.000022       0.000000
      0.001129       0.000257       0.000000
      0.001144       0.000243       0.000000
      0.001755       0.000353       0.000000
      0.001692       0.000380       0.000000
      0.001144       0.000243       0.000000
      0.001174       0.000180       0.000000
      0.001843       0.000233       0.000000
      0.001755       0.000353       0.000000
      0.001692       0.000380       0.000000
      0.001755       0.000353       0.000000
      0.002417       0.000435       0.000000
      0.002253       0.000493       0.000000
      0.001755       0.000353       0.000000
      0.001843       0.000233       0.000000
      0.002627       0.000223       0.000000
      0.002417       0.000435       0.000000
      0.001174       0.000180       0.000000
      0.001220       0.000109       0.000000
      0.001946       0.000121       0.000000
      0.001843       0.000233       0.000000
      0.001220       0.000109       0.000000
      0.001269       0.000056       0.000000
      0.002033       0.000051       0.000000
      0.001946       0.000121       0.000000
      0.001843       0.000233       0.000000
      0.001946       0.000121       0.000000
      0.002806       0.000084       0.000000
      0.002627       0.000223       0.000000
      0.001946       0.000121       0.000000
      0.002033       0.000051       0.000000
      0.002924       0.000020       0.000000
      0.002806       0.000084       0.000000
      0.001269       0.000056       0.000000
      0.001303       0.000022       0.000000
      0.002088       0.000017       0.000000
      0.002033       0.000051       0.000000
      0.001303       0.000022       0.000000
      0.001316       0.000000       0.000000
      0.002106       0.000000       0.000000
      0.002088       0.000017       0.000000
      0.002033       0.000051       0.000000
      0.002088       0.000017       0.000000
      0.002988       0.000000       0.000000
      0.002924       0.000020       0.000000
      0.002088       0.000017       0.000000
      0.002106       0.000000       0.000000
      0.003008       0.000000       0.000000
      0.002988       0.000000       0.000000
      0.002627       0.000223       0.000000
      0.002806       0.000084       0.000000
      0.003880       0.000013       0.000000
      0.003709       0.000121       0.000000
      0.002806       0.000084       0.000000
      0.002924       0.000020       0.000000
      0.003964      -0.000020       0.000000
      0.003880       0.000013       0.000000
      0.003709       0.000121       0.000000
      0.003880       0.000013       0.000000
      0.005137      -0.000009       0.000000