# vtk DataFile Version 2.0
time_10.vtk
ASCII
DATASET UNSTRUCTURED_GRID
POINTS  1800 float
      0.000000       0.000000       0.000000
      0.083333       0.000000       0.000000
      0.083333       0.083333       0.000000
      0.000000       0.083333       0.000000
      0.083333       0.000000       0.000000
      0.166667       0.000000       0.000000
      0.166667       0.083333       0.000000
      0.083333       0.083333       0.000000
      0.000000       0.083333       0.000000
      0.083333       0.083333       0.000000
      0.083333       0.166667       0.000000
      0.000000       0.166667       0.000000
      0.083333       0.083333       0.000000
      0.166667       0.083333       0.000000
      0.166667       0.166667       0.000000
      0.083333       0.166667       0.000000
      0.166667       0.000000       0.000000
      0.250000       0.000000       0.000000
      0.250000       0.083333       0.000000
      0.166667       0.083333       0.000000
      0.250000       0.000000       0.000000
      0.333333       0.000000       0.000000
      0.333333       0.083333       0.000000
      0.250000       0.083333       0.000000
      0.166667       0.083333       0.000000
      0.250000       0.083333       0.000000
      0.250000       0.166667       0.000000
      0.166667       0.166667       0.000000
      0.250000       0.083333       0.000000
      0.333333       0.083333       0.000000
      0.333333       0.166667       0.000000
      0.250000       0.166667       0.000000
      0.333333       0.000000       0.000000
      0.416667       0.000000       0.000000
      0.416667       0.083333       0.000000
      0.333333       0.083333       0.000000
      0.416667       0.000000       0.000000
      0.500000       0.000000       0.000000
      0.500000       0.083333       0.000000
      0.416667       0.083333       0.000000
      0.333333       0.083333       0.000000
      0.416667       0.083333       0.000000
      0.416667       0.166667       0.000000
      0.333333       0.166667       0.000000
      0.416667       0.083333       0.000000
      0.500000       0.083333       0.000000
      0.500000       0.166667       0.000000
      0.416667       0.166667       0.000000
      0.000000       0.166667       0.000000
      0.083333       0.166667       0.000000
      0.083333       0.250000       0.000000
      0.000000       0.250000       0.000000
      0.083333       0.166667       0.000000
      0.166667       0.166667       0.000000
      0.166667       0.250000       0.000000
      0.083333       0.250000       0.000000
      0.000000       0.250000       0.000000
      0.083333       0.250000       0.000000
      0.083333       0.333333       0.000000
      0.000000       0.333333       0.000000
      0.083333       0.250000       0.000000
      0.166667       0.250000       0.000000
      0.166667       0.333333       0.000000
      0.083333       0.333333       0.000000
      0.166667       0.166667       0.000000
      0.250000       0.166667       0.000000
      0.250000       0.250000       0.000000
      0.166667       0.250000       0.000000
      0.250000       0.166667       0.000000
      0.333333       0.166667       0.000000
      0.333333       0.250000       0.000000
      0.250000       0.250000       0.000000
      0.166667       0.250000       0.000000
      0.250000       0.250000       0.000000
      0.250000       0.333333       0.000000
      0.166667       0.333333       0.000000
      0.250000       0.250000       0.000000
      0.333333       0.250000       0.000000
      0.333333       0.333333       0.000000
      0.250000       0.333333       0.000000
      0.333333       0.166667       0.000000
      0.416667       0.166667       0.000000
      0.416667       0.250000       0.000000
      0.333333       0.250000       0.000000
      0.333333       0.250000       0.000000
      0.416667       0.250000       0.000000
      0.416667       0.333333       0.000000
      0.333333       0.333333       0.000000
      0.000000       0.333333       0.000000
      0.083333       0.333333       0.000000
      0.083333       0.416667       0.000000
      0.000000       0.416667       0.000000
      0.083333       0.333333       0.000000
      0.166667       0.333333       0.000000
      0.166667       0.416667       0.000000
      0.083333       0.416667       0.000000
      0.000000       0.416667       0.000000
      0.083333       0.416667       0.000000
      0.083333       0.500000       0.000000
      0.000000       0.500000       0.000000
      0.083333       0.416667       0.000000
      0.166667       0.416667       0.000000
      0.166667       0.500000       0.000000
      0.083333       0.500000       0.000000
      0.166667       0.333333       0.000000
      0.250000       0.333333       0.000000
      0.250000       0.416667       0.000000
      0.166667       0.416667       0.000000
      0.250000       0.333333       0.000000
      0.333333       0.333333       0.000000
      0.333333       0.416667       0.000000
      0.250000       0.416667       0.000000
      0.166667       0.416667       0.000000
      0.250000       0.416667       0.000000
      0.250000       0.500000       0.000000
      0.166667       0.500000       0.000000
      0.250000       0.416667       0.000000
      0.333333       0.416667       0.000000
      0.333333       0.500000       0.000000
      0.250000       0.500000       0.000000
      0.333333       0.333333       0.000000
      0.375000       0.333333       0.000000
      0.375000       0.375000       0.000000
      0.333333       0.375000       0.000000
      0.375000       0.333333       0.000000
      0.416667       0.333333       0.000000
      0.416667       0.375000       0.000000
      0.375000       0.375000       0.000000
      0.333333       0.375000       0.000000
      0.375000       0.375000       0.000000
      0.375000       0.416667       0.000000
      0.333333       0.416667       0.000000
      0.375000       0.375000       0.000000
      0.416667       0.375000       0.000000
      0.416667       0.416667       0.000000
      0.375000       0.416667       0.000000
      0.416667       0.333333       0.000000
      0.458333       0.333333       0.000000
      0.458333       0.375000       0.000000
      0.416667       0.375000       0.000000
      0.416667       0.375000       0.000000
      0.458333       0.375000       0.000000
      0.458333       0.416667       0.000000
      0.416667       0.416667       0.000000
      0.333333       0.416667       0.000000
      0.375000       0.416667       0.000000
      0.375000       0.458333       0.000000
      0.333333       0.458333       0.000000
      0.375000       0.416667       0.000000
      0.416667       0.416667       0.000000
      0.416667       0.458333       0.000000
      0.375000       0.458333       0.000000
      0.333333       0.458333       0.000000
      0.375000       0.458333       0.000000
      0.375000       0.500000       0.000000
      0.333333       0.500000       0.000000
      0.375000       0.458333       0.000000
      0.416667       0.458333       0.000000
      0.416667       0.500000       0.000000
      0.375000       0.500000       0.000000
      0.416667       0.416667       0.000000
      0.437500       0.416667       0.000000
      0.437500       0.437500       0.000000
      0.416667       0.437500       0.000000
      0.437500       0.416667       0.000000
      0.458333       0.416667       0.000000
      0.458333       0.437500       0.000000
      0.437500       0.437500       0.000000
      0.416667       0.437500       0.000000
      0.437500       0.437500       0.000000
      0.437500       0.458333       0.000000
      0.416667       0.458333       0.000000
      0.437500       0.437500       0.000000
      0.458333       0.437500       0.000000
      0.458333       0.458333       0.000000
      0.437500       0.458333       0.000000
      0.458333       0.416667       0.000000
      0.479167       0.416667       0.000000
      0.479167       0.437500       0.000000
      0.458333       0.437500       0.000000
      0.458333       0.437500       0.000000
      0.479167       0.437500       0.000000
      0.479167       0.458333       0.000000
      0.458333       0.458333       0.000000
      0.416667       0.458333       0.000000
      0.437500       0.458333       0.000000
      0.437500       0.479167       0.000000
      0.416667       0.479167       0.000000
      0.437500       0.458333       0.000000
      0.458333       0.458333       0.000000
      0.458333       0.479167       0.000000
      0.437500       0.479167       0.000000
      0.416667       0.479167       0.000000
      0.437500       0.479167       0.000000
      0.437500       0.500000       0.000000
      0.416667       0.500000       0.000000
      0.437500       0.479167       0.000000
      0.458333       0.479167       0.000000
      0.458333       0.500000       0.000000
      0.437500       0.500000       0.000000
      0.458333       0.458333       0.000000
      0.468750       0.458333       0.000000
      0.468750       0.468750       0.000000
      0.458333       0.468750       0.000000
      0.468750       0.458333       0.000000
      0.479167       0.458333       0.000000
      0.479167       0.468750       0.000000
      0.468750       0.468750       0.000000
      0.458333       0.468750       0.000000
      0.468750       0.468750       0.000000
      0.468750       0.479167       0.000000
      0.458333       0.479167       0.000000
      0.468750       0.468750       0.000000
      0.479167       0.468750       0.000000
      0.479167       0.479167       0.000000
      0.468750       0.479167       0.000000
      0.479167       0.458333       0.000000
      0.489583       0.458333       0.000000
      0.489583       0.468750       0.000000
      0.479167       0.468750       0.000000
[...]
POINT_DATA  1800
VECTORS U float 
      0.000000       0.000000       0.000000
      0.000000       0.000000       0.000000
      0.000289       0.000000       0.000000
      0.000280       0.000000       0.000000
      0.000000       0.000000       0.000000
      0.000000       0.000000       0.000000
      0.000315       0.000003       0.000000
      0.000289       0.000000       0.000000
      0.000280       0.000000       0.000000
      0.000289       0.000000       0.000000
      0.000529      -0.000009       0.000000
      0.000516       0.000000       0.000000
      0.000289       0.000000       0.000000
      0.000315       0.000003       0.000000
      0.000569      -0.000014       0.000000
      0.000529      -0.000009       0.000000
      0.000000       0.000000       0.000000
      0.000000       0.000000       0.000000
      0.000360       0.000013       0.000000
      0.000315       0.000003       0.000000
      0.000000       0.000000       0.000000
      0.000000       0.000000       0.000000
      0.000423       0.000034       0.000000
      0.000360       0.000013       0.000000
      0.000315       0.000003       0.000000
      0.000360       0.000013       0.000000
      0.000638      -0.000008       0.000000
      0.000569      -0.000014       0.000000
      0.000360       0.000013       0.000000
      0.000423       0.000034       0.000000
      0.000740       0.000020       0.000000
      0.000638      -0.000008       0.000000
      0.000000       0.000000       0.000000
      0.000000       0.000000       0.000000
      0.000497       0.000078       0.000000
      0.000423       0.000034       0.000000
      0.000000       0.000000       0.000000
      0.000000       0.000000       0.000000
      0.000559       0.000146       0.000000
      0.000497       0.000078       0.000000
      0.000423       0.000034       0.000000
      0.000497       0.000078       0.000000
      0.000877       0.000095       0.000000
      0.000740       0.000020       0.000000
      0.000497       0.000078       0.000000
      0.000559       0.000146       0.000000
      0.001034       0.000243       0.000000
      0.000877       0.000095       0.000000
      0.000516       0.000000       0.000000
      0.000529      -0.000009       0.000000
      0.000706      -0.000023       0.000000
      0.000693       0.000000       0.000000
      0.000529      -0.000009       0.000000
      0.000569      -0.000014       0.000000
      0.000748      -0.000042       0.000000
      0.000706      -0.000023       0.000000
      0.000693       0.000000       0.000000
      0.000706      -0.000023       0.000000
      0.000824      -0.000036       0.000000
      0.000814       0.000000       0.000000
      0.000706      -0.000023       0.000000
      0.000748      -0.000042       0.000000
      0.000856      -0.000068       0.000000
      0.000824      -0.000036       0.000000
      0.000569      -0.000014       0.000000
      0.000638      -0.000008       0.000000
      0.000820      -0.000048       0.000000
      0.000748      -0.000042       0.000000
      0.000638      -0.000008       0.000000
      0.000740       0.000020       0.000000
      0.000929      -0.000028       0.000000
      0.000820      -0.000048       0.000000
      0.000748      -0.000042       0.000000
      0.000820      -0.000048       0.000000
      0.000909      -0.000087       0.000000
      0.000856      -0.000068       0.000000
      0.000820      -0.000048       0.000000
      0.000929      -0.000028       0.000000
      0.000988      -0.000080       0.000000
      0.000909      -0.000087       0.000000
      0.000740       0.000020       0.000000
      0.000877       0.000095       0.000000
      0.001091       0.000042       0.000000
      0.000929      -0.000028       0.000000
      0.000929      -0.000028       0.000000
      0.001091       0.000042       0.000000
      0.001094      -0.000029       0.000000
      0.000988      -0.000080       0.000000
      0.000814       0.000000       0.000000
      0.000824      -0.000036       0.000000
      0.000898      -0.000045       0.000000
      0.000892       0.000000       0.000000
      0.000824      -0.000036       0.000000
      0.000856      -0.000068       0.000000
      0.000913      -0.000084       0.000000
      0.000898      -0.000045       0.000000
      0.000892       0.000000       0.000000
      0.000898      -0.000045       0.000000
      0.000948      -0.000048       0.000000
      0.000947       0.000000       0.000000
      0.000898      -0.000045       0.000000
      0.000913      -0.000084       0.000000
      0.000950      -0.000089       0.000000
      0.000948      -0.000048       0.000000
      0.000856      -0.000068       0.000000
      0.000909      -0.000087       0.000000
      0.000938      -0.000110       0.000000
      0.000913      -0.000084       0.000000
      0.000909      -0.000087       0.000000
      0.000988      -0.000080       0.000000
      0.000970      -0.000107       0.000000
      0.000938      -0.000110       0.000000
      0.000913      -0.000084       0.000000
      0.000938      -0.000110       0.000000
      0.000948      -0.000115       0.000000
      0.000950      -0.000089       0.000000
      0.000938      -0.000110       0.000000
      0.000970      -0.000107       0.000000
      0.000936      -0.000110       0.000000
      0.000948      -0.000115       0.000000
      0.000988      -0.000080       0.000000
      0.001037      -0.000062       0.000000
      0.001016      -0.000079       0.000000
      0.000984      -0.000097       0.000000
      0.001037      -0.000062       0.000000
      0.001094      -0.000029       0.000000
      0.001049      -0.000046       0.000000
      0.001016      -0.000079       0.000000
      0.000984      -0.000097       0.000000
      0.001016      -0.000079       0.000000
      0.000986      -0.000087       0.000000
      0.000970      -0.000107       0.000000
      0.001016      -0.000079       0.000000
      0.001049      -0.000046       0.000000
      0.001001      -0.000051       0.000000
      0.000986      -0.000087       0.000000
      0.001094      -0.000029       0.000000
      0.001160       0.000024       0.000000
      0.001080       0.000007       0.000000
      0.001049      -0.000046       0.000000
      0.001049      -0.000046       0.000000
      0.001080       0.000007       0.000000
      0.001012       0.000004       0.000000
      0.001001      -0.000051       0.000000
      0.000970      -0.000107       0.000000
      0.000986      -0.000087       0.000000
      0.000956      -0.000090       0.000000
      0.000953      -0.000111       0.000000
      0.000986      -0.000087       0.000000
      0.001001      -0.000051       0.000000
      0.000959      -0.000052       0.000000
      0.000956      -0.000090       0.000000
      0.000953      -0.000111       0.000000
      0.000956      -0.000090       0.000000
      0.000926      -0.000088       0.000000
      0.000936      -0.000110       0.000000
      0.000956      -0.000090       0.000000
      0.000959      -0.000052       0.000000
      0.000917      -0.000050       0.000000
      0.000926      -0.000088       0.000000
      0.001001      -0.000051       0.000000
      0.001007      -0.000026       0.000000
      0.000982      -0.000026       0.000000
      0.000979      -0.000052       0.000000
      0.001007      -0.000026       0.000000
      0.001012       0.000004       0.000000
      0.000985       0.000004       0.000000
      0.000982      -0.000026       0.000000
      0.000979      -0.000052       0.000000
      0.000982      -0.000026       0.000000
      0.000960      -0.000026       0.000000
      0.000959      -0.000052       0.000000
      0.000982      -0.000026       0.000000
      0.000985       0.000004       0.000000
      0.000961       0.000003       0.000000
      0.000960      -0.000026       0.000000
      0.001012       0.000004       0.000000
      0.001016       0.000041       0.000000
      0.000988       0.000039       0.000000
      0.000985       0.000004       0.000000
      0.000985       0.000004       0.000000
      0.000988       0.000039       0.000000
      0.000963       0.000036       0.000000
      0.000961       0.000003       0.000000
      0.000959      -0.000052       0.000000
      0.000960      -0.000026       0.000000
      0.000938      -0.000026       0.000000
      0.000939      -0.000051       0.000000
      0.000960      -0.000026       0.000000
      0.000961       0.000003       0.000000
      0.000938       0.000003       0.000000
      0.000938      -0.000026       0.000000
      0.000939      -0.000051       0.000000
      0.000938      -0.000026       0.000000
      0.000914      -0.000025       0.000000
      0.000917      -0.000050       0.000000
      0.000938      -0.000026       0.000000
      0.000938       0.000003       0.000000
      0.000913       0.000003       0.000000
      0.000914      -0.000025       0.000000
      0.000961       0.000003       0.000000
      0.000962       0.000019       0.000000
      0.000950       0.000019       0.000000
      0.000950       0.000003       0.000000
      0.000962       0.000019       0.000000
      0.000963       0.000036       0.000000
      0.000952       0.000035       0.000000
      0.000950       0.000019       0.000000
      0.000950       0.000003       0.000000
      0.000950       0.000019       0.000000
      0.000939       0.000018       0.000000
      0.000938       0.000003       0.000000
      0.000950       0.000019       0.000000
      0.000952       0.000035       0.000000
      0.000940       0.000034       0.000000
      0.000939       0.000018       0.000000
      0.000963       0.000036       0.000000
      0.000966       0.000055       0.000000
      0.000955       0.000053       0.000000
      0.000952       0.000035       0.000000
      0.000966       0.000055       0.000000
      0.000971       0.000075       0.000000
      0.000961       0.000079       0.000000
      0.000955       0.000053       0.000000
      0.000952       0.000035       0.000000
      0.000955       0.000053       0.000000
      0.000944       0.000050       0.000000
      0.000940       0.000034       0.000000
      0.000955       0.000053       0.000000
      0.000961       0.000079       0.000000
      0.000939       0.000083       0.000000
      0.000944       0.000050       0.000000
      0.000938       0.000003       0.000000
      0.000939       0.000018       0.000000
      0.000927       0.000017       0.000000
      0.000926       0.000003       0.000000
      0.000939       0.000018       0.000000
      0.000940       0.000034       0.000000
      0.000929       0.000031       0.000000
      0.000927       0.000017       0.000000
      0.000926       0.000003       0.000000
      0.000927       0.000017       0.000000
      0.000915       0.000018       0.000000
      0.000913       0.000003       0.000000
      0.000927       0.000017       0.000000
      0.000929       0.000031       0.000000
      0.000921       0.000035       0.000000
      0.000915       0.000018       0.000000
      0.000940       0.000034       0.000000
      0.000944       0.000050       0.000000
      0.000932       0.000042       0.000000
      0.000929       0.000031       0.000000
      0.000944       0.000050       0.000000
      0.000939       0.000083       0.000000
      0.000649       0.000075       0.000000
      0.000932       0.000042       0.000000
      0.000929       0.000031       0.000000
      0.000932       0.000042       0.000000
      0.000976       0.000059       0.000000
      0.000921       0.000035       0.000000
      0.000932       0.000042       0.000000
      0.000649       0.000075       0.000000
      0.008584       0.000841       0.000000
      0.000976       0.000059       0.000000
      0.000988       0.000039       0.000000
      0.000990       0.000058       0.000000
      0.000977       0.000056       0.000000
      0.000975       0.000038       0.000000
      0.000990       0.000058       0.000000
      0.000993       0.000079       0.000000
      0.000981       0.000077       0.000000
      0.000977       0.000056       0.000000
      0.000975       0.000038       0.000000
      0.000977       0.000056       0.000000
      0.000966       0.000055       0.000000
      0.000963       0.000036       0.000000
      0.000977       0.000056       0.000000
      0.000981       0.000077       0.000000
      0.000971       0.000075       0.000000
      0.000966       0.000055       0.000000
      0.001080       0.000007       0.000000
      0.001094       0.000045       0.000000
      0.001051       0.000042       0.000000
      0.001043       0.000005       0.000000
      0.001094       0.000045       0.000000
      0.001107       0.000093       0.000000
      0.001058       0.000089       0.000000
      0.001051       0.000042       0.000000
      0.001043       0.000005       0.000000
      0.001051       0.000042       0.000000
      0.001016       0.000041       0.000000
      0.001012       0.000004       0.000000
      0.001016       0.000041       0.000000
      0.001019       0.000062       0.000000
      0.001003       0.000060       0.000000
      0.001001       0.000040       0.000000
      0.001019       0.000062       0.000000
      0.001021       0.000084       0.000000
      0.001006       0.000082       0.000000
      0.001003       0.000060       0.000000
      0.001001       0.000040       0.000000
      0.001003       0.000060       0.000000
      0.000990       0.000058       0.000000
      0.000988       0.000039       0.000000
      0.001003       0.000060       0.000000
      0.001006       0.000082       0.000000
      0.000993       0.000079       0.000000
      0.000990       0.000058       0.000000
      0.001051       0.000042       0.000000
      0.001055       0.000064       0.000000
      0.001036       0.000063       0.000000
      0.001033       0.000042       0.000000
      0.001055       0.000064       0.000000
      0.001058       0.000089       0.000000
      0.001039       0.000087       0.000000
      0.001036       0.000063       0.000000
      0.001033       0.000042       0.000000
      0.001036       0.000063       0.000000
      0.001019       0.000062       0.000000
      0.001016       0.000041       0.000000
      0.001036       0.000063       0.000000
      0.001039       0.000087       0.000000
      0.001021       0.000084       0.000000
      0.001019       0.000062       0.000000
      0.001091       0.000042       0.000000
      0.001202       0.000113       0.000000
      0.001215       0.000063       0.000000
      0.001116       0.000003       0.000000
      0.001202       0.000113       0.000000
      0.001343       0.000226       0.000000
      0.001348       0.000163       0.000000
      0.001215       0.000063       0.000000
      0.001116       0.000003       0.000000
      0.001215       0.000063       0.000000
      0.001160       0.000024       0.000000
      0.001094      -0.000029       0.000000
      0.001160       0.000024       0.000000
      0.001197       0.000062       0.000000
      0.001144       0.000050       0.000000
      0.001120       0.000013       0.000000
      0.001197       0.000062       0.000000
      0.001237       0.000110       0.000000
      0.001168       0.000098       0.000000
      0.001144       0.000050       0.000000
      0.001120       0.000013       0.000000
      0.001144       0.000050       0.000000
      0.001094       0.000045       0.000000
      0.001080       0.000007       0.000000
      0.001144       0.000050       0.000000
      0.001168       0.000098       0.000000
      0.001107       0.000093       0.000000
      0.001094       0.000045       0.000000
      0.001215       0.000063       0.000000
      0.001276       0.000107       0.000000
      0.001244       0.000081       0.000000
      0.001194       0.000041       0.000000
      0.001276       0.000107       0.000000
      0.001348       0.000163       0.000000
      0.001303       0.000132       0.000000
      0.001244       0.000081       0.000000
      0.001194       0.000041       0.000000
      0.001244       0.000081       0.000000
      0.001197       0.000062       0.000000
      0.001160       0.000024       0.000000
      0.001244       0.000081       0.000000
      0.001303       0.000132       0.000000
      0.001237       0.000110       0.000000
      0.001197       0.000062       0.000000
      0.000877       0.000095       0.000000
      0.000955       0.000159       0.000000
      0.001110       0.000148       0.000000
      0.001009       0.000076       0.000000
      0.000955       0.000159       0.000000
      0.001034       0.000243       0.000000
      0.001222       0.000254       0.000000
      0.001110       0.000148       0.000000
      0.001009       0.000076       0.000000
      0.001110       0.000148       0.000000
      0.001202       0.000113       0.000000
      0.001091       0.000042       0.000000
      0.001110       0.000148       0.000000
      0.001222       0.000254       0.000000
      0.001343       0.000226       0.000000
      0.001202       0.000113       0.000000
      0.000000       0.000000       0.000000
      0.000000       0.000000       0.000000
      0.000583       0.000208       0.000000
      0.000559       0.000146       0.000000
      0.000000       0.000000       0.000000
      0.000000       0.000000       0.000000
      0.000581       0.000202       0.000000
      0.000583       0.000208       0.000000
      0.000559       0.000146       0.000000
      0.000583       0.000208       0.000000
      0.001149       0.000415       0.000000
      0.001034       0.000243       0.000000
      0.000583       0.000208       0.000000
      0.000581       0.000202       0.000000
      0.001219       0.000391       0.000000
      0.001149       0.000415       0.000000
      0.000000       0.000000       0.000000
      0.000000       0.000000       0.000000
      0.000602       0.000136       0.000000
      0.000581       0.000202       0.000000
      0.000000       0.000000       0.000000
      0.000000       0.000000       0.000000
      0.000646       0.000071       0.000000
      0.000602       0.000136       0.000000
      0.000581       0.000202       0.000000
      0.000602       0.000136       0.000000
      0.001332       0.000225       0.000000
      0.001219       0.000391       0.000000
      0.000602       0.000136       0.000000
      0.000646       0.000071       0.000000
      0.001452       0.000099       0.000000
      0.001332       0.000225       0.000000
      0.000000       0.000000       0.000000
      0.000000       0.000000       0.000000
      0.000686       0.000028       0.000000
      0.000646       0.000071       0.000000
      0.000000       0.000000       0.000000
      0.000000       0.000000       0.000000
      0.000701       0.000000       0.000000
      0.000686       0.000028       0.000000
      0.000646       0.000071       0.000000
      0.000686       0.000028       0.000000
      0.001533       0.000034       0.000000
      0.001452       0.000099       0.000000
      0.000686       0.000028       0.000000
      0.000701       0.000000       0.000000
      0.001561       0.000000       0.000000
      0.001533       0.000034       0.000000
      0.001219       0.000391       0.000000
      0.001332       0.000225       0.000000
      0.002298       0.000219       0.000000
      0.002000       0.000510       0.000000
      0.001332       0.000225       0.000000
      0.001452       0.000099       0.000000
      0.002490       0.000075       0.000000
      0.002298       0.000219       0.000000
      0.002298       0.000219       0.000000
      0.002490       0.000075       0.000000
      0.003828       0.000035       0.000000