# vtk DataFile Version 2.0
time_10.vtk
ASCII
DATASET UNSTRUCTURED_GRID
POINTS  1680 float
      0.000000       0.000000       0.000000
      0.083333       0.000000       0.000000
      0.083333       0.083333       0.000000
      0.000000       0.083333       0.000000
      0.083333       0.000000       0.000000
      0.166667       0.000000       0.000000
      0.166667       0.083333       0.000000
      0.083333       0.083333       0.000000
      0.000000       0.083333       0.000000
      0.083333       0.083333       0.000000
      0.083333       0.166667       0.000000
      0.000000       0.166667       0.000000
      0.083333       0.083333       0.000000
      0.166667       0.083333       0.000000
      0.166667       0.166667       0.000000
      0.083333       0.166667       0.000000
      0.166667       0.000000       0.000000
      0.250000       0.000000       0.000000
      0.250000       0.083333       0.000000
      0.166667       0.083333       0.000000
      0.250000       0.000000       0.000000
      0.333333       0.000000       0.000000
      0.333333       0.083333       0.000000
      0.250000       0.083333       0.000000
      0.166667       0.083333       0.000000
      0.250000       0.083333       0.000000
      0.250000       0.166667       0.000000
      0.166667       0.166667       0.000000
      0.250000       0.083333       0.000000
      0.333333       0.083333       0.000000
      0.333333       0.166667       0.000000
      0.250000       0.166667       0.000000
      0.333333       0.000000       0.000000
      0.416667       0.000000       0.000000
      0.416667       0.083333       0.000000
      0.333333       0.083333       0.000000
      0.416667       0.000000       0.000000
      0.500000       0.000000       0.000000
      0.500000       0.083333       0.000000
      0.416667       0.083333       0.000000
      0.333333       0.083333       0.000000
      0.416667       0.083333       0.000000
      0.416667       0.166667       0.000000
      0.333333       0.166667       0.000000
      0.416667       0.083333       0.000000
      0.500000       0.083333       0.000000
      0.500000       0.166667       0.000000
      0.416667       0.166667       0.000000
      0.000000       0.166667       0.000000
      0.083333       0.166667       0.000000
      0.083333       0.250000       0.000000
      0.000000       0.250000       0.000000
      0.083333       0.166667       0.000000
      0.166667       0.166667       0.000000
      0.166667       0.250000       0.000000
      0.083333       0.250000       0.000000
      0.000000       0.250000       0.000000
      0.083333       0.250000       0.000000
      0.083333       0.333333       0.000000
      0.000000       0.333333       0.000000
      0.083333       0.250000       0.000000
      0.166667       0.250000       0.000000
      0.166667       0.333333       0.000000
      0.083333       0.333333       0.000000
      0.166667       0.166667       0.000000
      0.250000       0.166667       0.000000
      0.250000       0.250000       0.000000
      0.166667       0.250000       0.000000
      0.250000       0.166667       0.000000
      0.333333       0.166667       0.000000
      0.333333       0.250000       0.000000
      0.250000       0.250000       0.000000
      0.166667       0.250000       0.000000
      0.250000       0.250000       0.000000
      0.250000       0.333333       0.000000
      0.166667       0.333333       0.000000
      0.250000       0.250000       0.000000
      0.333333       0.250000       0.000000
      0.333333       0.333333       0.000000
      0.250000       0.333333       0.000000
      0.333333       0.166667       0.000000
      0.416667       0.166667       0.000000
      0.416667       0.250000       0.000000
      0.333333       0.250000       0.000000
      0.416667       0.166667       0.000000
      0.500000       0.166667       0.000000
      0.500000       0.250000       0.000000
      0.416667       0.250000       0.000000
      0.333333       0.250000       0.000000
      0.416667       0.250000       0.000000
      0.416667       0.333333       0.000000
      0.333333       0.333333       0.000000
      0.000000       0.333333       0.000000
      0.083333       0.333333       0.000000
      0.083333       0.416667       0.000000
      0.000000       0.416667       0.000000
      0.083333       0.333333       0.000000
      0.166667       0.333333       0.000000
      0.166667       0.416667       0.000000
      0.083333       0.416667       0.000000
      0.000000       0.416667       0.000000
      0.083333       0.416667       0.000000
      0.083333       0.500000       0.000000
      0.000000       0.500000       0.000000
      0.083333       0.416667       0.000000
      0.166667       0.416667       0.000000
      0.166667       0.500000       0.000000
      0.083333       0.500000       0.000000
      0.166667       0.333333       0.000000
      0.250000       0.333333       0.000000
      0.250000       0.416667       0.000000
      0.166667       0.416667       0.000000
      0.250000       0.333333       0.000000
      0.333333       0.333333       0.000000
      0.333333       0.416667       0.000000
      0.250000       0.416667       0.000000
      0.166667       0.416667       0.000000
      0.250000       0.416667       0.000000
      0.250000       0.500000       0.000000
      0.166667       0.500000       0.000000
      0.250000       0.416667       0.000000
      0.333333       0.416667       0.000000
      0.333333       0.500000       0.000000
      0.250000       0.500000       0.000000
      0.333333       0.333333       0.000000
      0.375000       0.333333       0.000000
      0.375000       0.375000       0.000000
      0.333333       0.375000       0.000000
      0.375000       0.333333       0.000000
      0.416667       0.333333       0.000000
      0.416667       0.375000       0.000000
      0.375000       0.375000       0.000000
      0.333333       0.375000       0.000000
      0.375000       0.375000       0.000000
      0.375000       0.416667       0.000000
      0.333333       0.416667       0.000000
      0.375000       0.375000       0.000000
      0.416667       0.375000       0.000000
      0.416667       0.416667       0.000000
      0.375000       0.416667       0.000000
      0.416667       0.333333       0.000000
      0.458333       0.333333       0.000000
      0.458333       0.375000       0.000000
      0.416667       0.375000       0.000000
      0.416667       0.375000       0.000000
      0.458333       0.375000       0.000000
      0.458333       0.416667       0.000000
      0.416667       0.416667       0.000000
      0.333333       0.416667       0.000000
      0.375000       0.416667       0.000000
      0.375000       0.458333       0.000000
      0.333333       0.458333       0.000000
      0.375000       0.416667       0.000000
      0.416667       0.416667       0.000000
      0.416667       0.458333       0.000000
      0.375000       0.458333       0.000000
      0.333333       0.458333       0.000000
      0.375000       0.458333       0.000000
      0.375000       0.500000       0.000000
      0.333333       0.500000       0.000000
      0.375000       0.458333       0.000000
      0.416667       0.458333       0.000000
      0.416667       0.500000       0.000000
      0.375000       0.500000       0.000000
      0.416667       0.416667       0.000000
      0.437500       0.416667       0.000000
      0.437500       0.437500       0.000000
      0.416667       0.437500       0.000000
      0.437500       0.416667       0.000000
      0.458333       0.416667       0.000000
      0.458333       0.437500       0.000000
      0.437500       0.437500       0.000000
      0.416667       0.437500       0.000000
      0.437500       0.437500       0.000000
      0.437500       0.458333       0.000000
      0.416667       0.458333       0.000000
      0.437500       0.437500       0.000000
      0.458333       0.437500       0.000000
      0.458333       0.458333       0.000000
      0.437500       0.458333       0.000000
      0.458333       0.416667       0.000000
      0.479167       0.416667       0.000000
      0.479167       0.437500       0.000000
      0.458333       0.437500       0.000000
      0.458333       0.437500       0.000000
      0.479167       0.437500       0.000000
      0.479167       0.458333       0.000000
      0.458333       0.458333       0.000000
      0.416667       0.458333       0.000000
      0.437500       0.458333       0.000000
      0.437500       0.479167       0.000000
      0.416667       0.479167       0.000000
      0.437500       0.458333       0.000000
      0.458333       0.458333       0.000000
      0.458333       0.479167       0.000000
      0.437500       0.479167       0.000000
      0.416667       0.479167       0.000000
      0.437500       0.479167       0.000000
      0.437500       0.500000       0.000000
      0.416667       0.500000       0.000000
      0.437500       0.479167       0.000000
      0.458333       0.479167       0.000000
      0.458333       0.500000       0.000000
      0.437500       0.500000       0.000000
      0.458333       0.458333       0.000000
      0.468750       0.458333       0.000000
      0.468750       0.468750       0.000000
      0.458333       0.468750       0.000000
      0.468750       0.458333       0.000000
      0.479167       0.458333       0.000000
      0.479167       0.468750       0.000000
      0.468750       0.468750       0.000000
      0.458333       0.468750       0.000000
      0.468750       0.468750       0.000000
      0.468750       0.479167       0.000000
      0.458333       0.479167       0.000000
      0.468750       0.468750       0.000000
      0.479167       0.468750       0.000000
      0.479167       0.479167       0.000000
      0.468750       0.479167       0.000000
[...]
POINT_DATA  1680
VECTORS U float 
      0.000000       0.000000       0.000000
      0.000000       0.000000       0.000000
      0.000319       0.000002       0.000000
      0.000310       0.000000       0.000000
      0.000000       0.000000       0.000000
      0.000000       0.000000       0.000000
      0.000346       0.000006       0.000000
      0.000319       0.000002       0.000000
      0.000310       0.000000       0.000000
      0.000319       0.000002       0.000000
      0.000584      -0.000007       0.000000
      0.000570       0.000000       0.000000
      0.000319       0.000002       0.000000
      0.000346       0.000006       0.000000
      0.000626      -0.000009       0.000000
      0.000584      -0.000007       0.000000
      0.000000       0.000000       0.000000
      0.000000       0.000000       0.000000
      0.000390       0.000018       0.000000
      0.000346       0.000006       0.000000
      0.000000       0.000000       0.000000
      0.000000       0.000000       0.000000
      0.000451       0.000043       0.000000
      0.000390       0.000018       0.000000
      0.000346       0.000006       0.000000
      0.000390       0.000018       0.000000
      0.000697       0.000002       0.000000
      0.000626      -0.000009       0.000000
      0.000390       0.000018       0.000000
      0.000451       0.000043       0.000000
      0.000800       0.000039       0.000000
      0.000697       0.000002       0.000000
      0.000000       0.000000       0.000000
      0.000000       0.000000       0.000000
      0.000517       0.000089       0.000000
      0.000451       0.000043       0.000000
      0.000000       0.000000       0.000000
      0.000000       0.000000       0.000000
      0.000567       0.000153       0.000000
      0.000517       0.000089       0.000000
      0.000451       0.000043       0.000000
      0.000517       0.000089       0.000000
      0.000931       0.000123       0.000000
      0.000800       0.000039       0.000000
      0.000517       0.000089       0.000000
      0.000567       0.000153       0.000000
      0.001068       0.000269       0.000000
      0.000931       0.000123       0.000000
      0.000570       0.000000       0.000000
      0.000584      -0.000007       0.000000
      0.000782      -0.000021       0.000000
      0.000767       0.000000       0.000000
      0.000584      -0.000007       0.000000
      0.000626      -0.000009       0.000000
      0.000826      -0.000036       0.000000
      0.000782      -0.000021       0.000000
      0.000767       0.000000       0.000000
      0.000782      -0.000021       0.000000
      0.000914      -0.000035       0.000000
      0.000902       0.000000       0.000000
      0.000782      -0.000021       0.000000
      0.000826      -0.000036       0.000000
      0.000949      -0.000064       0.000000
      0.000914      -0.000035       0.000000
      0.000626      -0.000009       0.000000
      0.000697       0.000002       0.000000
      0.000904      -0.000036       0.000000
      0.000826      -0.000036       0.000000
      0.000697       0.000002       0.000000
      0.000800       0.000039       0.000000
      0.001022      -0.000007       0.000000
      0.000904      -0.000036       0.000000
      0.000826      -0.000036       0.000000
      0.000904      -0.000036       0.000000
      0.001010      -0.000079       0.000000
      0.000949      -0.000064       0.000000
      0.000904      -0.000036       0.000000
      0.001022      -0.000007       0.000000
      0.001102      -0.000065       0.000000
      0.001010      -0.000079       0.000000
      0.000800       0.000039       0.000000
      0.000931       0.000123       0.000000
      0.001195       0.000083       0.000000
      0.001022      -0.000007       0.000000
      0.000931       0.000123       0.000000
      0.001068       0.000269       0.000000
      0.001450       0.000292       0.000000
      0.001195       0.000083       0.000000
      0.001022      -0.000007       0.000000
      0.001195       0.000083       0.000000
      0.001233       0.000000       0.000000
      0.001102      -0.000065       0.000000
      0.000902       0.000000       0.000000
      0.000914      -0.000035       0.000000
      0.000995      -0.000044       0.000000
      0.000988       0.000000       0.000000
      0.000914      -0.000035       0.000000
      0.000949      -0.000064       0.000000
      0.001013      -0.000083       0.000000
      0.000995      -0.000044       0.000000
      0.000988       0.000000       0.000000
      0.000995      -0.000044       0.000000
      0.001047      -0.000048       0.000000
      0.001045       0.000000       0.000000
      0.000995      -0.000044       0.000000
      0.001013      -0.000083       0.000000
      0.001051      -0.000090       0.000000
      0.001047      -0.000048       0.000000
      0.000949      -0.000064       0.000000
      0.001010      -0.000079       0.000000
      0.001044      -0.000107       0.000000
      0.001013      -0.000083       0.000000
      0.001010      -0.000079       0.000000
      0.001102      -0.000065       0.000000
      0.001085      -0.000099       0.000000
      0.001044      -0.000107       0.000000
      0.001013      -0.000083       0.000000
      0.001044      -0.000107       0.000000
      0.001052      -0.000114       0.000000
      0.001051      -0.000090       0.000000
      0.001044      -0.000107       0.000000
      0.001085      -0.000099       0.000000
      0.001044      -0.000105       0.000000
      0.001052      -0.000114       0.000000
      0.001102      -0.000065       0.000000
      0.001162      -0.000041       0.000000
      0.001141      -0.000064       0.000000
      0.001101      -0.000086       0.000000
      0.001162      -0.000041       0.000000
      0.001233       0.000000       0.000000
      0.001186      -0.000025       0.000000
      0.001141      -0.000064       0.000000
      0.001101      -0.000086       0.000000
      0.001141      -0.000064       0.000000
      0.001107      -0.000076       0.000000
      0.001085      -0.000099       0.000000
      0.001141      -0.000064       0.000000
      0.001186      -0.000025       0.000000
      0.001128      -0.000035       0.000000
      0.001107      -0.000076       0.000000
      0.001233       0.000000       0.000000
      0.001321       0.000065       0.000000
      0.001232       0.000037       0.000000
      0.001186      -0.000025       0.000000
      0.001186      -0.000025       0.000000
      0.001232       0.000037       0.000000
      0.001145       0.000030       0.000000
      0.001128      -0.000035       0.000000
      0.001085      -0.000099       0.000000
      0.001107      -0.000076       0.000000
      0.001070      -0.000080       0.000000
      0.001064      -0.000105       0.000000
      0.001107      -0.000076       0.000000
      0.001128      -0.000035       0.000000
      0.001076      -0.000036       0.000000
      0.001070      -0.000080       0.000000
      0.001064      -0.000105       0.000000
      0.001070      -0.000080       0.000000
      0.001035      -0.000079       0.000000
      0.001044      -0.000105       0.000000
      0.001070      -0.000080       0.000000
      0.001076      -0.000036       0.000000
      0.001025      -0.000035       0.000000
      0.001035      -0.000079       0.000000
      0.001128      -0.000035       0.000000
      0.001137      -0.000006       0.000000
      0.001106      -0.000006       0.000000
      0.001101      -0.000036       0.000000
      0.001137      -0.000006       0.000000
      0.001145       0.000030       0.000000
      0.001110       0.000029       0.000000
      0.001106      -0.000006       0.000000
      0.001101      -0.000036       0.000000
      0.001106      -0.000006       0.000000
      0.001077      -0.000006       0.000000
      0.001076      -0.000036       0.000000
      0.001106      -0.000006       0.000000
      0.001110       0.000029       0.000000
      0.001079       0.000029       0.000000
      0.001077      -0.000006       0.000000
      0.001145       0.000030       0.000000
      0.001152       0.000073       0.000000
      0.001114       0.000071       0.000000
      0.001110       0.000029       0.000000
      0.001110       0.000029       0.000000
      0.001114       0.000071       0.000000
      0.001082       0.000069       0.000000
      0.001079       0.000029       0.000000
      0.001076      -0.000036       0.000000
      0.001077      -0.000006       0.000000
      0.001050      -0.000006       0.000000
      0.001051      -0.000036       0.000000
      0.001077      -0.000006       0.000000
      0.001079       0.000029       0.000000
      0.001050       0.000029       0.000000
      0.001050      -0.000006       0.000000
      0.001051      -0.000036       0.000000
      0.001050      -0.000006       0.000000
      0.001021      -0.000005       0.000000
      0.001025      -0.000035       0.000000
      0.001050      -0.000006       0.000000
      0.001050       0.000029       0.000000
      0.001019       0.000029       0.000000
      0.001021      -0.000005       0.000000
      0.001079       0.000029       0.000000
      0.001080       0.000048       0.000000
      0.001066       0.000048       0.000000
      0.001065       0.000029       0.000000
      0.001080       0.000048       0.000000
      0.001082       0.000069       0.000000
      0.001067       0.000067       0.000000
      0.001066       0.000048       0.000000
      0.001065       0.000029       0.000000
      0.001066       0.000048       0.000000
      0.001051       0.000047       0.000000
      0.001050       0.000029       0.000000
      0.001066       0.000048       0.000000
      0.001067       0.000067       0.000000
      0.001053       0.000066       0.000000
      0.001051       0.000047       0.000000
      0.001082       0.000069       0.000000
      0.001084       0.000091       0.000000
      0.001070       0.000089       0.000000
      0.001067       0.000067       0.000000
      0.001084       0.000091       0.000000
      0.001090       0.000116       0.000000
      0.001076       0.000119       0.000000
      0.001070       0.000089       0.000000
      0.001067       0.000067       0.000000
      0.001070       0.000089       0.000000
      0.001056       0.000085       0.000000
      0.001053       0.000066       0.000000
      0.001070       0.000089       0.000000
      0.001076       0.000119       0.000000
      0.001051       0.000122       0.000000
      0.001056       0.000085       0.000000
      0.001050       0.000029       0.000000
      0.001051       0.000047       0.000000
      0.001037       0.000046       0.000000
      0.001036       0.000028       0.000000
      0.001051       0.000047       0.000000
      0.001053       0.000066       0.000000
      0.001038       0.000064       0.000000
      0.001037       0.000046       0.000000
      0.001036       0.000028       0.000000
      0.001037       0.000046       0.000000
      0.001021       0.000047       0.000000
      0.001019       0.000029       0.000000
      0.001037       0.000046       0.000000
      0.001038       0.000064       0.000000
      0.001027       0.000067       0.000000
      0.001021       0.000047       0.000000
      0.001053       0.000066       0.000000
      0.001056       0.000085       0.000000
      0.001041       0.000078       0.000000
      0.001038       0.000064       0.000000
      0.001056       0.000085       0.000000
      0.001051       0.000122       0.000000
      0.000756       0.000101       0.000000
      0.001041       0.000078       0.000000
      0.001038       0.000064       0.000000
      0.001041       0.000078       0.000000
      0.001080       0.000094       0.000000
      0.001027       0.000067       0.000000
      0.001041       0.000078       0.000000
      0.000756       0.000101       0.000000
      0.008414       0.000814       0.000000
      0.001080       0.000094       0.000000
      0.001114       0.000071       0.000000
      0.001116       0.000095       0.000000
      0.001100       0.000093       0.000000
      0.001097       0.000070       0.000000
      0.001116       0.000095       0.000000
      0.001120       0.000120       0.000000
      0.001103       0.000118       0.000000
      0.001100       0.000093       0.000000
      0.001097       0.000070       0.000000
      0.001100       0.000093       0.000000
      0.001084       0.000091       0.000000
      0.001082       0.000069       0.000000
      0.001100       0.000093       0.000000
      0.001103       0.000118       0.000000
      0.001090       0.000116       0.000000
      0.001084       0.000091       0.000000
      0.001232       0.000037       0.000000
      0.001255       0.000080       0.000000
      0.001199       0.000075       0.000000
      0.001186       0.000032       0.000000
      0.001255       0.000080       0.000000
      0.001276       0.000135       0.000000
      0.001210       0.000130       0.000000
      0.001199       0.000075       0.000000
      0.001186       0.000032       0.000000
      0.001199       0.000075       0.000000
      0.001152       0.000073       0.000000
      0.001145       0.000030       0.000000
      0.001152       0.000073       0.000000
      0.001155       0.000098       0.000000
      0.001135       0.000097       0.000000
      0.001132       0.000072       0.000000
      0.001155       0.000098       0.000000
      0.001159       0.000126       0.000000
      0.001138       0.000123       0.000000
      0.001135       0.000097       0.000000
      0.001132       0.000072       0.000000
      0.001135       0.000097       0.000000
      0.001116       0.000095       0.000000
      0.001114       0.000071       0.000000
      0.001135       0.000097       0.000000
      0.001138       0.000123       0.000000
      0.001120       0.000120       0.000000
      0.001116       0.000095       0.000000
      0.001199       0.000075       0.000000
      0.001204       0.000101       0.000000
      0.001178       0.000100       0.000000
      0.001174       0.000074       0.000000
      0.001204       0.000101       0.000000
      0.001210       0.000130       0.000000
      0.001182       0.000128       0.000000
      0.001178       0.000100       0.000000
      0.001174       0.000074       0.000000
      0.001178       0.000100       0.000000
      0.001155       0.000098       0.000000
      0.001152       0.000073       0.000000
      0.001178       0.000100       0.000000
      0.001182       0.000128       0.000000
      0.001159       0.000126       0.000000
      0.001155       0.000098       0.000000
      0.001195       0.000083       0.000000
      0.001311       0.000166       0.000000
      0.001360       0.000117       0.000000
      0.001243       0.000041       0.000000
      0.001311       0.000166       0.000000
      0.001450       0.000292       0.000000
      0.001517       0.000240       0.000000
      0.001360       0.000117       0.000000
      0.001243       0.000041       0.000000
      0.001360       0.000117       0.000000
      0.001321       0.000065       0.000000
      0.001233       0.000000       0.000000
      0.001321       0.000065       0.000000
      0.001374       0.000110       0.000000
      0.001316       0.000091       0.000000
      0.001279       0.000048       0.000000
      0.001374       0.000110       0.000000
      0.001436       0.000169       0.000000
      0.001356       0.000146       0.000000
      0.001316       0.000091       0.000000
      0.001279       0.000048       0.000000
      0.001316       0.000091       0.000000
      0.001255       0.000080       0.000000
      0.001232       0.000037       0.000000
      0.001316       0.000091       0.000000
      0.001356       0.000146       0.000000
      0.001276       0.000135       0.000000
      0.001255       0.000080       0.000000
      0.001360       0.000117       0.000000
      0.001432       0.000170       0.000000
      0.001416       0.000138       0.000000
      0.001350       0.000089       0.000000
      0.001432       0.000170       0.000000
      0.001517       0.000240       0.000000
      0.001495       0.000202       0.000000
      0.001416       0.000138       0.000000
      0.001350       0.000089       0.000000
      0.001416       0.000138       0.000000
      0.001374       0.000110       0.000000
      0.001321       0.000065       0.000000
      0.001416       0.000138       0.000000
      0.001495       0.000202       0.000000
      0.001436       0.000169       0.000000
      0.001374       0.000110       0.000000
      0.000000       0.000000       0.000000
      0.000000       0.000000       0.000000
      0.000580       0.000201       0.000000
      0.000567       0.000153       0.000000
      0.000000       0.000000       0.000000
      0.000000       0.000000       0.000000
      0.000578       0.000186       0.000000
      0.000580       0.000201       0.000000
      0.000567       0.000153       0.000000
      0.000580       0.000201       0.000000
      0.001155       0.000404       0.000000
      0.001068       0.000269       0.000000
      0.000580       0.000201       0.000000
      0.000578       0.000186       0.000000
      0.001213       0.000358       0.000000
      0.001155       0.000404       0.000000
      0.000000       0.000000       0.000000
      0.000000       0.000000       0.000000
      0.000598       0.000125       0.000000
      0.000578       0.000186       0.000000
      0.000000       0.000000       0.000000
      0.000000       0.000000       0.000000
      0.000638       0.000066       0.000000
      0.000598       0.000125       0.000000
      0.000578       0.000186       0.000000
      0.000598       0.000125       0.000000
      0.001314       0.000208       0.000000
      0.001213       0.000358       0.000000
      0.000598       0.000125       0.000000
      0.000638       0.000066       0.000000
      0.001421       0.000095       0.000000
      0.001314       0.000208       0.000000
      0.000000       0.000000       0.000000
      0.000000       0.000000       0.000000
      0.000673       0.000027       0.000000
      0.000638       0.000066       0.000000
      0.000000       0.000000       0.000000
      0.000000       0.000000       0.000000
      0.000687       0.000000       0.000000
      0.000673       0.000027       0.000000
      0.000638       0.000066       0.000000
      0.000673       0.000027       0.000000
      0.001494       0.000034       0.000000
      0.001421       0.000095       0.000000
      0.000673       0.000027       0.000000
      0.000687       0.000000       0.000000
      0.001520       0.000000       0.000000
      0.001494       0.000034       0.000000
      0.001068       0.000269       0.000000
      0.001155       0.000404       0.000000
      0.001729       0.000612       0.000000
      0.001450       0.000292       0.000000
      0.001155       0.000404       0.000000
      0.001213       0.000358       0.000000
      0.001968       0.000467       0.000000
      0.001729       0.000612       0.000000
      0.001213       0.000358       0.000000
      0.001314       0.000208       0.000000
      0.002230       0.000208       0.000000
      0.001968       0.000467       0.000000
      0.001314       0.000208       0.000000
      0.001421       0.000095       0.000000
      0.002410       0.000074       0.000000
      0.002230       0.000208       0.000000
      0.001968       0.000467       0.000000
      0.002230       0.000208       0.000000
      0.003548       0.000134       0.000000
      0.003296       0.000412       0.000000
      0.002230       0.000208       0.000000
      0.002410       0.000074       0.000000
      0.003679       0.000029       0.000000