# vtk DataFile Version 2.0
time_10.vtk
ASCII
DATASET UNSTRUCTURED_GRID
POINTS  1152 float
      0.000000       0.000000       0.000000
      0.083333       0.000000       0.000000
      0.083333       0.083333       0.000000
      0.000000       0.083333       0.000000
      0.083333       0.000000       0.000000
      0.166667       0.000000       0.000000
      0.166667       0.083333       0.000000
      0.083333       0.083333       0.000000
      0.000000       0.083333       0.000000
      0.083333       0.083333       0.000000
      0.083333       0.166667       0.000000
      0.000000       0.166667       0.000000
      0.083333       0.083333       0.000000
      0.166667       0.083333       0.000000
      0.166667       0.166667       0.000000
      0.083333       0.166667       0.000000
      0.166667       0.000000       0.000000
      0.250000       0.000000       0.000000
      0.250000       0.083333       0.000000
      0.166667       0.083333       0.000000
      0.250000       0.000000       0.000000
      0.333333       0.000000       0.000000
      0.333333       0.083333       0.000000
      0.250000       0.083333       0.000000
      0.166667       0.083333       0.000000
      0.250000       0.083333       0.000000
      0.250000       0.166667       0.000000
      0.166667       0.166667       0.000000
      0.250000       0.083333       0.000000
      0.333333       0.083333       0.000000
      0.333333       0.166667       0.000000
      0.250000       0.166667       0.000000
      0.333333       0.000000       0.000000
      0.416667       0.000000       0.000000
      0.416667       0.083333       0.000000
      0.333333       0.083333       0.000000
      0.416667       0.000000       0.000000
      0.500000       0.000000       0.000000
      0.500000       0.083333       0.000000
      0.416667       0.083333       0.000000
      0.333333       0.083333       0.000000
      0.416667       0.083333       0.000000
      0.416667       0.166667       0.000000
      0.333333       0.166667       0.000000
      0.416667       0.083333       0.000000
      0.500000       0.083333       0.000000
      0.500000       0.166667       0.000000
      0.416667       0.166667       0.000000
      0.000000       0.166667       0.000000
      0.083333       0.166667       0.000000
      0.083333       0.250000       0.000000
      0.000000       0.250000       0.000000
      0.083333       0.166667       0.000000
      0.166667       0.166667       0.000000
      0.166667       0.250000       0.000000
      0.083333       0.250000       0.000000
      0.000000       0.250000       0.000000
      0.083333       0.250000       0.000000
      0.083333       0.333333       0.000000
      0.000000       0.333333       0.000000
      0.083333       0.250000       0.000000
      0.166667       0.250000       0.000000
      0.166667       0.333333       0.000000
      0.083333       0.333333       0.000000
      0.166667       0.166667       0.000000
      0.250000       0.166667       0.000000
      0.250000       0.250000       0.000000
      0.166667       0.250000       0.000000
      0.250000       0.166667       0.000000
      0.333333       0.166667       0.000000
      0.333333       0.250000       0.000000
      0.250000       0.250000       0.000000
      0.166667       0.250000       0.000000
      0.250000       0.250000       0.000000
      0.250000       0.333333       0.000000
      0.166667       0.333333       0.000000
      0.250000       0.250000       0.000000
      0.333333       0.250000       0.000000
      0.333333       0.333333       0.000000
      0.250000       0.333333       0.000000
      0.333333       0.166667       0.000000
      0.416667       0.166667       0.000000
      0.416667       0.250000       0.000000
      0.333333       0.250000       0.000000
      0.416667       0.166667       0.000000
      0.500000       0.166667       0.000000
      0.500000       0.250000       0.000000
      0.416667       0.250000       0.000000
      0.333333       0.250000       0.000000
      0.416667       0.250000       0.000000
      0.416667       0.333333       0.000000
      0.333333       0.333333       0.000000
      0.416667       0.250000       0.000000
      0.500000       0.250000       0.000000
      0.500000       0.333333       0.000000
      0.416667       0.333333       0.000000
      0.000000       0.333333       0.000000
      0.083333       0.333333       0.000000
      0.083333       0.416667       0.000000
      0.000000       0.416667       0.000000
      0.083333       0.333333       0.000000
      0.166667       0.333333       0.000000
      0.166667       0.416667       0.000000
      0.083333       0.416667       0.000000
      0.000000       0.416667       0.000000
      0.083333       0.416667       0.000000
      0.083333       0.500000       0.000000
      0.000000       0.500000       0.000000
      0.083333       0.416667       0.000000
      0.166667       0.416667       0.000000
      0.166667       0.500000       0.000000
      0.083333       0.500000       0.000000
      0.166667       0.333333       0.000000
      0.250000       0.333333       0.000000
      0.250000       0.416667       0.000000
      0.166667       0.416667       0.000000
      0.250000       0.333333       0.000000
      0.333333       0.333333       0.000000
      0.333333       0.416667       0.000000
      0.250000       0.416667       0.000000
      0.166667       0.416667       0.000000
      0.250000       0.416667       0.000000
      0.250000       0.500000       0.000000
      0.166667       0.500000       0.000000
      0.250000       0.416667       0.000000
      0.333333       0.416667       0.000000
      0.333333       0.500000       0.000000
      0.250000       0.500000       0.000000
      0.333333       0.333333       0.000000
      0.375000       0.333333       0.000000
      0.375000       0.375000       0.000000
      0.333333       0.375000       0.000000
      0.375000       0.333333       0.000000
      0.416667       0.333333       0.000000
      0.416667       0.375000       0.000000
      0.375000       0.375000       0.000000
      0.333333       0.375000       0.000000
      0.375000       0.375000       0.000000
      0.375000       0.416667       0.000000
      0.333333       0.416667       0.000000
      0.375000       0.375000       0.000000
      0.416667       0.375000       0.000000
      0.416667       0.416667       0.000000
      0.375000       0.416667       0.000000
      0.416667       0.333333       0.000000
      0.458333       0.333333       0.000000
      0.458333       0.375000       0.000000
      0.416667       0.375000       0.000000
      0.458333       0.333333       0.000000
      0.500000       0.333333       0.000000
      0.500000       0.375000       0.000000
      0.458333       0.375000       0.000000
      0.416667       0.375000       0.000000
      0.458333       0.375000       0.000000
      0.458333       0.416667       0.000000
      0.416667       0.416667       0.000000
      0.458333       0.375000       0.000000
      0.500000       0.375000       0.000000
      0.500000       0.416667       0.000000
      0.458333       0.416667       0.000000
      0.333333       0.416667       0.000000
      0.375000       0.416667       0.000000
      0.375000       0.458333       0.000000
      0.333333       0.458333       0.000000
      0.375000       0.416667       0.000000
      0.416667       0.416667       0.000000
      0.416667       0.458333       0.000000
      0.375000       0.458333       0.000000
      0.333333       0.458333       0.000000
      0.375000       0.458333       0.000000
      0.375000       0.500000       0.000000
      0.333333       0.500000       0.000000
      0.375000       0.458333       0.000000
      0.416667       0.458333       0.000000
      0.416667       0.500000       0.000000
      0.375000       0.500000       0.000000
      0.416667       0.416667       0.000000
      0.437500       0.416667       0.000000
      0.437500       0.437500       0.000000
      0.416667       0.437500       0.000000
      0.437500       0.416667       0.000000
      0.458333       0.416667       0.000000
      0.458333       0.437500       0.000000
      0.437500       0.437500       0.000000
      0.416667       0.437500       0.000000
      0.437500       0.437500       0.000000
      0.437500       0.458333       0.000000
      0.416667       0.458333       0.000000
      0.437500       0.437500       0.000000
      0.458333       0.437500       0.000000
      0.458333       0.458333       0.000000
      0.437500       0.458333       0.000000
      0.458333       0.416667       0.000000
      0.479167       0.416667       0.000000
      0.479167       0.437500       0.000000
      0.458333       0.437500       0.000000
      0.479167       0.416667       0.000000
      0.500000       0.416667       0.000000
      0.500000       0.437500       0.000000
      0.479167       0.437500       0.000000
      0.458333       0.437500       0.000000
      0.479167       0.437500       0.000000
      0.479167       0.458333       0.000000
      0.458333       0.458333       0.000000
      0.479167       0.437500       0.000000
      0.500000       0.437500       0.000000
      0.500000       0.458333       0.000000
      0.479167       0.458333       0.000000
      0.416667       0.458333       0.000000
      0.437500       0.458333       0.000000
      0.437500       0.479167       0.000000
      0.416667       0.479167       0.000000
      0.437500       0.458333       0.000000
      0.458333       0.458333       0.000000
      0.458333       0.479167       0.000000
      0.437500       0.479167       0.000000
      0.416667       0.479167       0.000000
      0.437500       0.479167       0.000000
      0.437500       0.500000       0.000000
      0.416667       0.500000       0.000000
[...]
POINT_DATA  1152
VECTORS U float 
      0.000000       0.000000       0.000000
      0.000000       0.000000       0.000000
      0.000191       0.000008       0.000000
      0.000191       0.000000       0.000000
      0.000000       0.000000       0.000000
      0.000000       0.000000       0.000000
      0.000192       0.000016       0.000000
      0.000191       0.000008       0.000000
      0.000191       0.000000       0.000000
      0.000191       0.000008       0.000000
      0.000360       0.000015       0.000000
      0.000359       0.000000       0.000000
      0.000191       0.000008       0.000000
      0.000192       0.000016       0.000000
      0.000365       0.000031       0.000000
      0.000360       0.000015       0.000000
      0.000000       0.000000       0.000000
      0.000000       0.000000       0.000000
      0.000193       0.000024       0.000000
      0.000192       0.000016       0.000000
      0.000000       0.000000       0.000000
      0.000000       0.000000       0.000000
      0.000192       0.000031       0.000000
      0.000193       0.000024       0.000000
      0.000192       0.000016       0.000000
      0.000193       0.000024       0.000000
      0.000371       0.000047       0.000000
      0.000365       0.000031       0.000000
      0.000193       0.000024       0.000000
      0.000192       0.000031       0.000000
      0.000376       0.000061       0.000000
      0.000371       0.000047       0.000000
      0.000000       0.000000       0.000000
      0.000000       0.000000       0.000000
      0.000190       0.000033       0.000000
      0.000192       0.000031       0.000000
      0.000000       0.000000       0.000000
      0.000000       0.000000       0.000000
      0.000188       0.000031       0.000000
      0.000190       0.000033       0.000000
      0.000192       0.000031       0.000000
      0.000190       0.000033       0.000000
      0.000378       0.000067       0.000000
      0.000376       0.000061       0.000000
      0.000190       0.000033       0.000000
      0.000188       0.000031       0.000000
      0.000381       0.000062       0.000000
      0.000378       0.000067       0.000000
      0.000359       0.000000       0.000000
      0.000360       0.000015       0.000000
      0.000503       0.000020       0.000000
      0.000499       0.000000       0.000000
      0.000360       0.000015       0.000000
      0.000365       0.000031       0.000000
      0.000514       0.000041       0.000000
      0.000503       0.000020       0.000000
      0.000499       0.000000       0.000000
      0.000503       0.000020       0.000000
      0.000612       0.000019       0.000000
      0.000605       0.000000       0.000000
      0.000503       0.000020       0.000000
      0.000514       0.000041       0.000000
      0.000632       0.000042       0.000000
      0.000612       0.000019       0.000000
      0.000365       0.000031       0.000000
      0.000371       0.000047       0.000000
      0.000531       0.000064       0.000000
      0.000514       0.000041       0.000000
      0.000371       0.000047       0.000000
      0.000376       0.000061       0.000000
      0.000549       0.000086       0.000000
      0.000531       0.000064       0.000000
      0.000514       0.000041       0.000000
      0.000531       0.000064       0.000000
      0.000666       0.000069       0.000000
      0.000632       0.000042       0.000000
      0.000531       0.000064       0.000000
      0.000549       0.000086       0.000000
      0.000708       0.000101       0.000000
      0.000666       0.000069       0.000000
      0.000376       0.000061       0.000000
      0.000378       0.000067       0.000000
      0.000565       0.000099       0.000000
      0.000549       0.000086       0.000000
      0.000378       0.000067       0.000000
      0.000381       0.000062       0.000000
      0.000579       0.000090       0.000000
      0.000565       0.000099       0.000000
      0.000549       0.000086       0.000000
      0.000565       0.000099       0.000000
      0.000750       0.000125       0.000000
      0.000708       0.000101       0.000000
      0.000565       0.000099       0.000000
      0.000579       0.000090       0.000000
      0.000785       0.000114       0.000000
      0.000750       0.000125       0.000000
      0.000605       0.000000       0.000000
      0.000612       0.000019       0.000000
      0.000678       0.000014       0.000000
      0.000669       0.000000       0.000000
      0.000612       0.000019       0.000000
      0.000632       0.000042       0.000000
      0.000707       0.000032       0.000000
      0.000678       0.000014       0.000000
      0.000669       0.000000       0.000000
      0.000678       0.000014       0.000000
      0.000696       0.000006       0.000000
      0.000686       0.000000       0.000000
      0.000678       0.000014       0.000000
      0.000707       0.000032       0.000000
      0.000726       0.000015       0.000000
      0.000696       0.000006       0.000000
      0.000632       0.000042       0.000000
      0.000666       0.000069       0.000000
      0.000757       0.000057       0.000000
      0.000707       0.000032       0.000000
      0.000666       0.000069       0.000000
      0.000708       0.000101       0.000000
      0.000832       0.000091       0.000000
      0.000757       0.000057       0.000000
      0.000707       0.000032       0.000000
      0.000757       0.000057       0.000000
      0.000781       0.000029       0.000000
      0.000726       0.000015       0.000000
      0.000757       0.000057       0.000000
      0.000832       0.000091       0.000000
      0.000871       0.000050       0.000000
      0.000781       0.000029       0.000000
      0.000708       0.000101       0.000000
      0.000730       0.000115       0.000000
      0.000809       0.000118       0.000000
      0.000777       0.000100       0.000000
      0.000730       0.000115       0.000000
      0.000750       0.000125       0.000000
      0.000841       0.000133       0.000000
      0.000809       0.000118       0.000000
      0.000777       0.000100       0.000000
      0.000809       0.000118       0.000000
      0.000879       0.000112       0.000000
      0.000832       0.000091       0.000000
      0.000809       0.000118       0.000000
      0.000841       0.000133       0.000000
      0.000929       0.000133       0.000000
      0.000879       0.000112       0.000000
      0.000750       0.000125       0.000000
      0.000768       0.000125       0.000000
      0.000870       0.000137       0.000000
      0.000841       0.000133       0.000000
      0.000768       0.000125       0.000000
      0.000785       0.000114       0.000000
      0.000896       0.000123       0.000000
      0.000870       0.000137       0.000000
      0.000841       0.000133       0.000000
      0.000870       0.000137       0.000000
      0.000976       0.000145       0.000000
      0.000929       0.000133       0.000000
      0.000870       0.000137       0.000000
      0.000896       0.000123       0.000000
      0.001017       0.000129       0.000000
      0.000976       0.000145       0.000000
      0.000832       0.000091       0.000000
      0.000879       0.000112       0.000000
      0.000927       0.000093       0.000000
      0.000867       0.000074       0.000000
      0.000879       0.000112       0.000000
      0.000929       0.000133       0.000000
      0.001001       0.000117       0.000000
      0.000927       0.000093       0.000000
      0.000867       0.000074       0.000000
      0.000927       0.000093       0.000000
      0.000937       0.000063       0.000000
      0.000871       0.000050       0.000000
      0.000927       0.000093       0.000000
      0.001001       0.000117       0.000000
      0.001024       0.000079       0.000000
      0.000937       0.000063       0.000000
      0.000929       0.000133       0.000000
      0.000953       0.000141       0.000000
      0.001001       0.000139       0.000000
      0.000969       0.000128       0.000000
      0.000953       0.000141       0.000000
      0.000976       0.000145       0.000000
      0.001032       0.000146       0.000000
      0.001001       0.000139       0.000000
      0.000969       0.000128       0.000000
      0.001001       0.000139       0.000000
      0.001044       0.000130       0.000000
      0.001001       0.000117       0.000000
      0.001001       0.000139       0.000000
      0.001032       0.000146       0.000000
      0.001087       0.000142       0.000000
      0.001044       0.000130       0.000000
      0.000976       0.000145       0.000000
      0.000997       0.000142       0.000000
      0.001060       0.000145       0.000000
      0.001032       0.000146       0.000000
      0.000997       0.000142       0.000000
      0.001017       0.000129       0.000000
      0.001085       0.000131       0.000000
      0.001060       0.000145       0.000000
      0.001032       0.000146       0.000000
      0.001060       0.000145       0.000000
      0.001128       0.000147       0.000000
      0.001087       0.000142       0.000000
      0.001060       0.000145       0.000000
      0.001085       0.000131       0.000000
      0.001164       0.000131       0.000000
      0.001128       0.000147       0.000000
      0.001001       0.000117       0.000000
      0.001044       0.000130       0.000000
      0.001074       0.000113       0.000000
      0.001022       0.000100       0.000000
      0.001044       0.000130       0.000000
      0.001087       0.000142       0.000000
      0.001135       0.000127       0.000000
      0.001074       0.000113       0.000000
      0.001022       0.000100       0.000000
      0.001074       0.000113       0.000000
      0.001081       0.000088       0.000000
      0.001024       0.000079       0.000000
      0.001074       0.000113       0.000000
      0.001135       0.000127       0.000000
      0.001152       0.000097       0.000000
      0.001081       0.000088       0.000000
      0.001087       0.000142       0.000000
      0.001109       0.000146       0.000000
      0.001140       0.000143       0.000000
      0.001113       0.000137       0.000000
      0.001109       0.000146       0.000000
      0.001128       0.000147       0.000000
      0.001165       0.000146       0.000000
      0.001140       0.000143       0.000000
      0.001113       0.000137       0.000000
      0.001140       0.000143       0.000000
      0.001169       0.000135       0.000000
      0.001135       0.000127       0.000000
      0.001140       0.000143       0.000000
      0.001165       0.000146       0.000000
      0.001204       0.000142       0.000000
      0.001169       0.000135       0.000000
      0.001128       0.000147       0.000000
      0.001146       0.000142       0.000000
      0.001188       0.000143       0.000000
      0.001165       0.000146       0.000000
      0.001146       0.000142       0.000000
      0.001164       0.000131       0.000000
      0.001209       0.000130       0.000000
      0.001188       0.000143       0.000000
      0.001165       0.000146       0.000000
      0.001188       0.000143       0.000000
      0.001236       0.000143       0.000000
      0.001204       0.000142       0.000000
      0.001188       0.000143       0.000000
      0.001209       0.000130       0.000000
      0.001263       0.000128       0.000000
      0.001236       0.000143       0.000000
      0.001135       0.000127       0.000000
      0.001169       0.000135       0.000000
      0.001191       0.000121       0.000000
      0.001150       0.000114       0.000000
      0.001169       0.000135       0.000000
      0.001204       0.000142       0.000000
      0.001238       0.000130       0.000000
      0.001191       0.000121       0.000000
      0.001150       0.000114       0.000000
      0.001191       0.000121       0.000000
      0.001196       0.000102       0.000000
      0.001152       0.000097       0.000000
      0.001191       0.000121       0.000000
      0.001238       0.000130       0.000000
      0.001251       0.000107       0.000000
      0.001196       0.000102       0.000000
      0.001204       0.000142       0.000000
      0.001236       0.000143       0.000000
      0.001289       0.000139       0.000000
      0.001238       0.000130       0.000000
      0.001236       0.000143       0.000000
      0.001263       0.000128       0.000000
      0.001335       0.000125       0.000000
      0.001289       0.000139       0.000000
      0.001238       0.000130       0.000000
      0.001289       0.000139       0.000000
      0.001326       0.000112       0.000000
      0.001251       0.000107       0.000000
      0.001289       0.000139       0.000000
      0.001335       0.000125       0.000000
      0.001501       0.000107       0.000000
      0.001326       0.000112       0.000000
      0.000000       0.000000       0.000000
      0.000000       0.000000       0.000000
      0.000189       0.000025       0.000000
      0.000188       0.000031       0.000000
      0.000000       0.000000       0.000000
      0.000000       0.000000       0.000000
      0.000193       0.000017       0.000000
      0.000189       0.000025       0.000000
      0.000188       0.000031       0.000000
      0.000189       0.000025       0.000000
      0.000388       0.000047       0.000000
      0.000381       0.000062       0.000000
      0.000189       0.000025       0.000000
      0.000193       0.000017       0.000000
      0.000399       0.000030       0.000000
      0.000388       0.000047       0.000000
      0.000000       0.000000       0.000000
      0.000000       0.000000       0.000000
      0.000199       0.000011       0.000000
      0.000193       0.000017       0.000000
      0.000000       0.000000       0.000000
      0.000000       0.000000       0.000000
      0.000205       0.000006       0.000000
      0.000199       0.000011       0.000000
      0.000193       0.000017       0.000000
      0.000199       0.000011       0.000000
      0.000413       0.000016       0.000000
      0.000399       0.000030       0.000000
      0.000199       0.000011       0.000000
      0.000205       0.000006       0.000000
      0.000425       0.000007       0.000000
      0.000413       0.000016       0.000000
      0.000000       0.000000       0.000000
      0.000000       0.000000       0.000000
      0.000210       0.000002       0.000000
      0.000205       0.000006       0.000000
      0.000000       0.000000       0.000000
      0.000000       0.000000       0.000000
      0.000211       0.000000       0.000000
      0.000210       0.000002       0.000000
      0.000205       0.000006       0.000000
      0.000210       0.000002       0.000000
      0.000433       0.000003       0.000000
      0.000425       0.000007       0.000000
      0.000210       0.000002       0.000000
      0.000211       0.000000       0.000000
      0.000436       0.000000       0.000000
      0.000433       0.000003       0.000000
      0.000381       0.000062       0.000000
      0.000388       0.000047       0.000000
      0.000597       0.000063       0.000000
      0.000579       0.000090       0.000000
      0.000388       0.000047       0.000000
      0.000399       0.000030       0.000000
      0.000622       0.000034       0.000000
      0.000597       0.000063       0.000000
      0.000579       0.000090       0.000000
      0.000597       0.000063       0.000000
      0.000826       0.000067       0.000000
      0.000785       0.000114       0.000000
      0.000597       0.000063       0.000000
      0.000622       0.000034       0.000000
      0.000869       0.000026       0.000000
      0.000826       0.000067       0.000000
      0.000399       0.000030       0.000000
      0.000413       0.000016       0.000000
      0.000645       0.000015       0.000000
      0.000622       0.000034       0.000000
      0.000413       0.000016       0.000000
      0.000425       0.000007       0.000000
      0.000663       0.000004       0.000000
      0.000645       0.000015       0.000000
      0.000622       0.000034       0.000000
      0.000645       0.000015       0.000000
      0.000902       0.000005       0.000000
      0.000869       0.000026       0.000000
      0.000645       0.000015       0.000000
      0.000663       0.000004       0.000000
      0.000923      -0.000003       0.000000
      0.000902       0.000005       0.000000
      0.000425       0.000007       0.000000
      0.000433       0.000003       0.000000
      0.000674       0.000001       0.000000
      0.000663       0.000004       0.000000
      0.000433       0.000003       0.000000
      0.000436       0.000000       0.000000
      0.000678       0.000000       0.000000
      0.000674       0.000001       0.000000
      0.000663       0.000004       0.000000
      0.000674       0.000001       0.000000
      0.000935      -0.000003       0.000000
      0.000923      -0.000003       0.000000
      0.000674       0.000001       0.000000
      0.000678       0.000000       0.000000
      0.000938       0.000000       0.000000
      0.000935      -0.000003       0.000000
      0.000869       0.000026       0.000000
      0.000902       0.000005       0.000000
      0.001188      -0.000008       0.000000
      0.001158       0.000006       0.000000
      0.000902       0.000005       0.000000
      0.000923      -0.000003       0.000000
      0.001204      -0.000010       0.000000
      0.001188      -0.000008       0.000000
      0.001158       0.000006       0.000000
      0.001188      -0.000008       0.000000
      0.001500      -0.000015       0.000000
      0.001500      -0.000009       0.000000
      0.001188      -0.000008       0.000000
      0.001204      -0.000010       0.000000
      0.001500      -0.000014       0.000000
      0.001500      -0.000015       0.000000
      0.000923      -0.000003       0.000000
      0.000935      -0.000003       0.000000
      0.001212      -0.000006       0.000000
      0.001204      -0.000010       0.000000
      0.000935      -0.000003       0.000000
      0.000938       0.000000       0.000000
      0.001214       0.000000       0.000000
      0.001212      -0.000006       0.000000
      0.001204      -0.000010       0.000000
      0.001212      -0.000006       0.000000
      0.001500      -0.000008       0.000000
      0.001500      -0.000014       0.000000
      0.001212      -0.000006       0.000000
      0.001214       0.000000       0.000000
      0.001500       0.000000       0.000000
      0.001500      -0.000008       0.000000
      0.000785       0.000114       0.000000
      0.000804       0.000092       0.000000
      0.000924       0.000093       0.000000
      0.000896       0.000123       0.000000
      0.000804       0.000092       0.000000
      0.000826       0.000067       0.000000
      0.000954       0.000061       0.000000
      0.000924       0.000093       0.000000
      0.000896       0.000123       0.000000
      0.000924       0.000093       0.000000
      0.001059       0.000086       0.000000
      0.001017       0.000129       0.000000
      0.000924       0.000093       0.000000
      0.000954       0.000061       0.000000
      0.001101       0.000047       0.000000
      0.001059       0.000086       0.000000
      0.000826       0.000067       0.000000
      0.000848       0.000044       0.000000
      0.000983       0.000035       0.000000
      0.000954       0.000061       0.000000
      0.000848       0.000044       0.000000
      0.000869       0.000026       0.000000
      0.001007       0.000017       0.000000
      0.000983       0.000035       0.000000
      0.000954       0.000061       0.000000
      0.000983       0.000035       0.000000
      0.001134       0.000021       0.000000