# vtk DataFile Version 2.0
time_10.vtk
ASCII
DATASET UNSTRUCTURED_GRID
POINTS  1152 float
      0.000000       0.000000       0.000000
      0.083333       0.000000       0.000000
      0.083333       0.083333       0.000000
      0.000000       0.083333       0.000000
      0.083333       0.000000       0.000000
      0.166667       0.000000       0.000000
      0.166667       0.083333       0.000000
      0.083333       0.083333       0.000000
      0.000000       0.083333       0.000000
      0.083333       0.083333       0.000000
      0.083333       0.166667       0.000000
      0.000000       0.166667       0.000000
      0.083333       0.083333       0.000000
      0.166667       0.083333       0.000000
      0.166667       0.166667       0.000000
      0.083333       0.166667       0.000000
      0.166667       0.000000       0.000000
      0.250000       0.000000       0.000000
      0.250000       0.083333       0.000000
      0.166667       0.083333       0.000000
      0.250000       0.000000       0.000000
      0.333333       0.000000       0.000000
      0.333333       0.083333       0.000000
      0.250000       0.083333       0.000000
      0.166667       0.083333       0.000000
      0.250000       0.083333       0.000000
      0.250000       0.166667       0.000000
      0.166667       0.166667       0.000000
      0.250000       0.083333       0.000000
      0.333333       0.083333       0.000000
      0.333333       0.166667       0.000000
      0.250000       0.166667       0.000000
      0.333333       0.000000       0.000000
      0.416667       0.000000       0.000000
      0.416667       0.083333       0.000000
      0.333333       0.083333       0.000000
      0.416667       0.000000       0.000000
      0.500000       0.000000       0.000000
      0.500000       0.083333       0.000000
      0.416667       0.083333       0.000000
      0.333333       0.083333       0.000000
      0.416667       0.083333       0.000000
      0.416667       0.166667       0.000000
      0.333333       0.166667       0.000000
      0.416667       0.083333       0.000000
      0.500000       0.083333       0.000000
      0.500000       0.166667       0.000000
      0.416667       0.166667       0.000000
      0.000000       0.166667       0.000000
      0.083333       0.166667       0.000000
      0.083333       0.250000       0.000000
      0.000000       0.250000       0.000000
      0.083333       0.166667       0.000000
      0.166667       0.166667       0.000000
      0.166667       0.250000       0.000000
      0.083333       0.250000       0.000000
      0.000000       0.250000       0.000000
      0.083333       0.250000       0.000000
      0.083333       0.333333       0.000000
      0.000000       0.333333       0.000000
      0.083333       0.250000       0.000000
      0.166667       0.250000       0.000000
      0.166667       0.333333       0.000000
      0.083333       0.333333       0.000000
      0.166667       0.166667       0.000000
      0.250000       0.166667       0.000000
      0.250000       0.250000       0.000000
      0.166667       0.250000       0.000000
      0.250000       0.166667       0.000000
      0.333333       0.166667       0.000000
      0.333333       0.250000       0.000000
      0.250000       0.250000       0.000000
      0.166667       0.250000       0.000000
      0.250000       0.250000       0.000000
      0.250000       0.333333       0.000000
      0.166667       0.333333       0.000000
      0.250000       0.250000       0.000000
      0.333333       0.250000       0.000000
      0.333333       0.333333       0.000000
      0.250000       0.333333       0.000000
      0.333333       0.166667       0.000000
      0.416667       0.166667       0.000000
      0.416667       0.250000       0.000000
      0.333333       0.250000       0.000000
      0.416667       0.166667       0.000000
      0.500000       0.166667       0.000000
      0.500000       0.250000       0.000000
      0.416667       0.250000       0.000000
      0.333333       0.250000       0.000000
      0.416667       0.250000       0.000000
      0.416667       0.333333       0.000000
      0.333333       0.333333       0.000000
      0.416667       0.250000       0.000000
      0.500000       0.250000       0.000000
      0.500000       0.333333       0.000000
      0.416667       0.333333       0.000000
      0.000000       0.333333       0.000000
      0.083333       0.333333       0.000000
      0.083333       0.416667       0.000000
      0.000000       0.416667       0.000000
      0.083333       0.333333       0.000000
      0.166667       0.333333       0.000000
      0.166667       0.416667       0.000000
      0.083333       0.416667       0.000000
      0.000000       0.416667       0.000000
      0.083333       0.416667       0.000000
      0.083333       0.500000       0.000000
      0.000000       0.500000       0.000000
      0.083333       0.416667       0.000000
      0.166667       0.416667       0.000000
      0.166667       0.500000       0.000000
      0.083333       0.500000       0.000000
      0.166667       0.333333       0.000000
      0.250000       0.333333       0.000000
      0.250000       0.416667       0.000000
      0.166667       0.416667       0.000000
      0.250000       0.333333       0.000000
      0.333333       0.333333       0.000000
      0.333333       0.416667       0.000000
      0.250000       0.416667       0.000000
      0.166667       0.416667       0.000000
      0.250000       0.416667       0.000000
      0.250000       0.500000       0.000000
      0.166667       0.500000       0.000000
      0.250000       0.416667       0.000000
      0.333333       0.416667       0.000000
      0.333333       0.500000       0.000000
      0.250000       0.500000       0.000000
      0.333333       0.333333       0.000000
      0.375000       0.333333       0.000000
      0.375000       0.375000       0.000000
      0.333333       0.375000       0.000000
      0.375000       0.333333       0.000000
      0.416667       0.333333       0.000000
      0.416667       0.375000       0.000000
      0.375000       0.375000       0.000000
      0.333333       0.375000       0.000000
      0.375000       0.375000       0.000000
      0.375000       0.416667       0.000000
      0.333333       0.416667       0.000000
      0.375000       0.375000       0.000000
      0.416667       0.375000       0.000000
      0.416667       0.416667       0.000000
      0.375000       0.416667       0.000000
      0.416667       0.333333       0.000000
      0.458333       0.333333       0.000000
      0.458333       0.375000       0.000000
      0.416667       0.375000       0.000000
      0.458333       0.333333       0.000000
      0.500000       0.333333       0.000000
      0.500000       0.375000       0.000000
      0.458333       0.375000       0.000000
      0.416667       0.375000       0.000000
      0.458333       0.375000       0.000000
      0.458333       0.416667       0.000000
      0.416667       0.416667       0.000000
      0.458333       0.375000       0.000000
      0.500000       0.375000       0.000000
      0.500000       0.416667       0.000000
      0.458333       0.416667       0.000000
      0.333333       0.416667       0.000000
      0.375000       0.416667       0.000000
      0.375000       0.458333       0.000000
      0.333333       0.458333       0.000000
      0.375000       0.416667       0.000000
      0.416667       0.416667       0.000000
      0.416667       0.458333       0.000000
      0.375000       0.458333       0.000000
      0.333333       0.458333       0.000000
      0.375000       0.458333       0.000000
      0.375000       0.500000       0.000000
      0.333333       0.500000       0.000000
      0.375000       0.458333       0.000000
      0.416667       0.458333       0.000000
      0.416667       0.500000       0.000000
      0.375000       0.500000       0.000000
      0.416667       0.416667       0.000000
      0.437500       0.416667       0.000000
      0.437500       0.437500       0.000000
      0.416667       0.437500       0.000000
      0.437500       0.416667       0.000000
      0.458333       0.416667       0.000000
      0.458333       0.437500       0.000000
      0.437500       0.437500       0.000000
      0.416667       0.437500       0.000000
      0.437500       0.437500       0.000000
      0.437500       0.458333       0.000000
      0.416667       0.458333       0.000000
      0.437500       0.437500       0.000000
      0.458333       0.437500       0.000000
      0.458333       0.458333       0.000000
      0.437500       0.458333       0.000000
      0.458333       0.416667       0.000000
      0.479167       0.416667       0.000000
      0.479167       0.437500       0.000000
      0.458333       0.437500       0.000000
      0.479167       0.416667       0.000000
      0.500000       0.416667       0.000000
      0.500000       0.437500       0.000000
      0.479167       0.437500       0.000000
      0.458333       0.437500       0.000000
      0.479167       0.437500       0.000000
      0.479167       0.458333       0.000000
      0.458333       0.458333       0.000000
      0.479167       0.437500       0.000000
      0.500000       0.437500       0.000000
      0.500000       0.458333       0.000000
      0.479167       0.458333       0.000000
      0.416667       0.458333       0.000000
      0.437500       0.458333       0.000000
      0.437500       0.479167       0.000000
      0.416667       0.479167       0.000000
      0.437500       0.458333       0.000000
      0.458333       0.458333       0.000000
      0.458333       0.479167       0.000000
      0.437500       0.479167       0.000000
      0.416667       0.479167       0.000000
      0.437500       0.479167       0.000000
      0.437500       0.500000       0.000000
      0.416667       0.500000       0.000000
[...]
POINT_DATA  1152
VECTORS U float 
      0.000000       0.000000       0.000000
      0.000000       0.000000       0.000000
      0.000506       0.000020       0.000000
      0.000504       0.000000       0.000000
      0.000000       0.000000       0.000000
      0.000000       0.000000       0.000000
      0.000511       0.000041       0.000000
      0.000506       0.000020       0.000000
      0.000504       0.000000       0.000000
      0.000506       0.000020       0.000000
      0.000950       0.000036       0.000000
      0.000944       0.000000       0.000000
      0.000506       0.000020       0.000000
      0.000511       0.000041       0.000000
      0.000966       0.000076       0.000000
      0.000950       0.000036       0.000000
      0.000000       0.000000       0.000000
      0.000000       0.000000       0.000000
      0.000517       0.000063       0.000000
      0.000511       0.000041       0.000000
      0.000000       0.000000       0.000000
      0.000000       0.000000       0.000000
      0.000519       0.000082       0.000000
      0.000517       0.000063       0.000000
      0.000511       0.000041       0.000000
      0.000517       0.000063       0.000000
      0.000988       0.000119       0.000000
      0.000966       0.000076       0.000000
      0.000517       0.000063       0.000000
      0.000519       0.000082       0.000000
      0.001008       0.000161       0.000000
      0.000988       0.000119       0.000000
      0.000000       0.000000       0.000000
      0.000000       0.000000       0.000000
      0.000516       0.000095       0.000000
      0.000519       0.000082       0.000000
      0.000000       0.000000       0.000000
      0.000000       0.000000       0.000000
      0.000511       0.000094       0.000000
      0.000516       0.000095       0.000000
      0.000519       0.000082       0.000000
      0.000516       0.000095       0.000000
      0.001022       0.000189       0.000000
      0.001008       0.000161       0.000000
      0.000516       0.000095       0.000000
      0.000511       0.000094       0.000000
      0.001031       0.000188       0.000000
      0.001022       0.000189       0.000000
      0.000944       0.000000       0.000000
      0.000950       0.000036       0.000000
      0.001320       0.000045       0.000000
      0.001309       0.000000       0.000000
      0.000950       0.000036       0.000000
      0.000966       0.000076       0.000000
      0.001354       0.000096       0.000000
      0.001320       0.000045       0.000000
      0.001309       0.000000       0.000000
      0.001320       0.000045       0.000000
      0.001600       0.000043       0.000000
      0.001581       0.000000       0.000000
      0.001320       0.000045       0.000000
      0.001354       0.000096       0.000000
      0.001654       0.000094       0.000000
      0.001600       0.000043       0.000000
      0.000966       0.000076       0.000000
      0.000988       0.000119       0.000000
      0.001405       0.000156       0.000000
      0.001354       0.000096       0.000000
      0.000988       0.000119       0.000000
      0.001008       0.000161       0.000000
      0.001464       0.000222       0.000000
      0.001405       0.000156       0.000000
      0.001354       0.000096       0.000000
      0.001405       0.000156       0.000000
      0.001745       0.000161       0.000000
      0.001654       0.000094       0.000000
      0.001405       0.000156       0.000000
      0.001464       0.000222       0.000000
      0.001865       0.000248       0.000000
      0.001745       0.000161       0.000000
      0.001008       0.000161       0.000000
      0.001022       0.000189       0.000000
      0.001517       0.000275       0.000000
      0.001464       0.000222       0.000000
      0.001022       0.000189       0.000000
      0.001031       0.000188       0.000000
      0.001560       0.000277       0.000000
      0.001517       0.000275       0.000000
      0.001464       0.000222       0.000000
      0.001517       0.000275       0.000000
      0.001997       0.000337       0.000000
      0.001865       0.000248       0.000000
      0.001517       0.000275       0.000000
      0.001560       0.000277       0.000000
      0.002109       0.000354       0.000000
      0.001997       0.000337       0.000000
      0.001581       0.000000       0.000000
      0.001600       0.000043       0.000000
      0.001769       0.000029       0.000000
      0.001746       0.000000       0.000000
      0.001600       0.000043       0.000000
      0.001654       0.000094       0.000000
      0.001841       0.000068       0.000000
      0.001769       0.000029       0.000000
      0.001746       0.000000       0.000000
      0.001769       0.000029       0.000000
      0.001818       0.000010       0.000000
      0.001795       0.000000       0.000000
      0.001769       0.000029       0.000000
      0.001841       0.000068       0.000000
      0.001890       0.000026       0.000000
      0.001818       0.000010       0.000000
      0.001654       0.000094       0.000000
      0.001745       0.000161       0.000000
      0.001967       0.000124       0.000000
      0.001841       0.000068       0.000000
      0.001745       0.000161       0.000000
      0.001865       0.000248       0.000000
      0.002158       0.000209       0.000000
      0.001967       0.000124       0.000000
      0.001841       0.000068       0.000000
      0.001967       0.000124       0.000000
      0.002022       0.000056       0.000000
      0.001890       0.000026       0.000000
      0.001967       0.000124       0.000000
      0.002158       0.000209       0.000000
      0.002236       0.000106       0.000000
      0.002022       0.000056       0.000000
      0.001865       0.000248       0.000000
      0.001932       0.000295       0.000000
      0.002125       0.000293       0.000000
      0.002031       0.000238       0.000000
      0.001932       0.000295       0.000000
      0.001997       0.000337       0.000000
      0.002223       0.000349       0.000000
      0.002125       0.000293       0.000000
      0.002031       0.000238       0.000000
      0.002125       0.000293       0.000000
      0.002282       0.000266       0.000000
      0.002158       0.000209       0.000000
      0.002125       0.000293       0.000000
      0.002223       0.000349       0.000000
      0.002425       0.000333       0.000000
      0.002282       0.000266       0.000000
      0.001997       0.000337       0.000000
      0.002056       0.000362       0.000000
      0.002316       0.000390       0.000000
      0.002223       0.000349       0.000000
      0.002056       0.000362       0.000000
      0.002109       0.000354       0.000000
      0.002399       0.000387       0.000000
      0.002316       0.000390       0.000000
      0.002223       0.000349       0.000000
      0.002316       0.000390       0.000000
      0.002576       0.000402       0.000000
      0.002425       0.000333       0.000000
      0.002316       0.000390       0.000000
      0.002399       0.000387       0.000000
      0.002712       0.000415       0.000000
      0.002576       0.000402       0.000000
      0.002158       0.000209       0.000000
      0.002282       0.000266       0.000000
      0.002379       0.000212       0.000000
      0.002231       0.000162       0.000000
      0.002282       0.000266       0.000000
      0.002425       0.000333       0.000000
      0.002566       0.000277       0.000000
      0.002379       0.000212       0.000000
      0.002231       0.000162       0.000000
      0.002379       0.000212       0.000000
      0.002389       0.000140       0.000000
      0.002236       0.000106       0.000000
      0.002379       0.000212       0.000000
      0.002566       0.000277       0.000000
      0.002592       0.000182       0.000000
      0.002389       0.000140       0.000000
      0.002425       0.000333       0.000000
      0.002501       0.000369       0.000000
      0.002601       0.000352       0.000000
      0.002506       0.000311       0.000000
      0.002501       0.000369       0.000000
      0.002576       0.000402       0.000000
      0.002700       0.000394       0.000000
      0.002601       0.000352       0.000000
      0.002506       0.000311       0.000000
      0.002601       0.000352       0.000000
      0.002680       0.000318       0.000000
      0.002566       0.000277       0.000000
      0.002601       0.000352       0.000000
      0.002700       0.000394       0.000000
      0.002810       0.000368       0.000000
      0.002680       0.000318       0.000000
      0.002576       0.000402       0.000000
      0.002646       0.000422       0.000000
      0.002797       0.000427       0.000000
      0.002700       0.000394       0.000000
      0.002646       0.000422       0.000000
      0.002712       0.000415       0.000000
      0.002886       0.000426       0.000000
      0.002797       0.000427       0.000000
      0.002700       0.000394       0.000000
      0.002797       0.000427       0.000000
      0.002951       0.000422       0.000000
      0.002810       0.000368       0.000000
      0.002797       0.000427       0.000000
      0.002886       0.000426       0.000000
      0.003087       0.000434       0.000000
      0.002951       0.000422       0.000000
      0.002566       0.000277       0.000000
      0.002680       0.000318       0.000000
      0.002724       0.000267       0.000000
      0.002596       0.000232       0.000000
      0.002680       0.000318       0.000000
      0.002810       0.000368       0.000000
      0.002884       0.000313       0.000000
      0.002724       0.000267       0.000000
      0.002596       0.000232       0.000000
      0.002724       0.000267       0.000000
      0.002723       0.000206       0.000000
      0.002592       0.000182       0.000000
      0.002724       0.000267       0.000000
      0.002884       0.000313       0.000000
      0.002894       0.000232       0.000000
      0.002723       0.000206       0.000000
      0.002810       0.000368       0.000000
      0.002880       0.000396       0.000000
      0.002938       0.000376       0.000000
      0.002853       0.000345       0.000000
      0.002880       0.000396       0.000000
      0.002951       0.000422       0.000000
      0.003028       0.000411       0.000000
      0.002938       0.000376       0.000000
      0.002853       0.000345       0.000000
      0.002938       0.000376       0.000000
      0.002984       0.000345       0.000000
      0.002884       0.000313       0.000000
      0.002938       0.000376       0.000000
      0.003028       0.000411       0.000000
      0.003100       0.000385       0.000000
      0.002984       0.000345       0.000000
      0.002951       0.000422       0.000000
      0.003020       0.000438       0.000000
      0.003119       0.000437       0.000000
      0.003028       0.000411       0.000000
      0.003020       0.000438       0.000000
      0.003087       0.000434       0.000000
      0.003207       0.000436       0.000000
      0.003119       0.000437       0.000000
      0.003028       0.000411       0.000000
      0.003119       0.000437       0.000000
      0.003229       0.000429       0.000000
      0.003100       0.000385       0.000000
      0.003119       0.000437       0.000000
      0.003207       0.000436       0.000000
      0.003357       0.000434       0.000000
      0.003229       0.000429       0.000000
      0.002884       0.000313       0.000000
      0.002984       0.000345       0.000000
      0.003009       0.000300       0.000000
      0.002899       0.000275       0.000000
      0.002984       0.000345       0.000000
      0.003100       0.000385       0.000000
      0.003153       0.000336       0.000000
      0.003009       0.000300       0.000000
      0.002899       0.000275       0.000000
      0.003009       0.000300       0.000000
      0.003008       0.000246       0.000000
      0.002894       0.000232       0.000000
      0.003009       0.000300       0.000000
      0.003153       0.000336       0.000000
      0.003163       0.000260       0.000000
      0.003008       0.000246       0.000000
      0.003100       0.000385       0.000000
      0.003229       0.000429       0.000000
      0.003354       0.000399       0.000000
      0.003153       0.000336       0.000000
      0.003229       0.000429       0.000000
      0.003357       0.000434       0.000000
      0.003586       0.000424       0.000000
      0.003354       0.000399       0.000000
      0.003153       0.000336       0.000000
      0.003354       0.000399       0.000000
      0.003424       0.000279       0.000000
      0.003163       0.000260       0.000000
      0.003354       0.000399       0.000000
      0.003586       0.000424       0.000000
      0.004316       0.000340       0.000000
      0.003424       0.000279       0.000000
      0.000000       0.000000       0.000000
      0.000000       0.000000       0.000000
      0.000510       0.000080       0.000000
      0.000511       0.000094       0.000000
      0.000000       0.000000       0.000000
      0.000000       0.000000       0.000000
      0.000518       0.000058       0.000000
      0.000510       0.000080       0.000000
      0.000511       0.000094       0.000000
      0.000510       0.000080       0.000000
      0.001047       0.000154       0.000000
      0.001031       0.000188       0.000000
      0.000510       0.000080       0.000000
      0.000518       0.000058       0.000000
      0.001076       0.000104       0.000000
      0.001047       0.000154       0.000000
      0.000000       0.000000       0.000000
      0.000000       0.000000       0.000000
      0.000533       0.000037       0.000000
      0.000518       0.000058       0.000000
      0.000000       0.000000       0.000000
      0.000000       0.000000       0.000000
      0.000550       0.000020       0.000000
      0.000533       0.000037       0.000000
      0.000518       0.000058       0.000000
      0.000533       0.000037       0.000000
      0.001113       0.000059       0.000000
      0.001076       0.000104       0.000000
      0.000533       0.000037       0.000000
      0.000550       0.000020       0.000000
      0.001148       0.000029       0.000000
      0.001113       0.000059       0.000000
      0.000000       0.000000       0.000000
      0.000000       0.000000       0.000000
      0.000562       0.000009       0.000000
      0.000550       0.000020       0.000000
      0.000000       0.000000       0.000000
      0.000000       0.000000       0.000000
      0.000567       0.000000       0.000000
      0.000562       0.000009       0.000000
      0.000550       0.000020       0.000000
      0.000562       0.000009       0.000000
      0.001172       0.000011       0.000000
      0.001148       0.000029       0.000000
      0.000562       0.000009       0.000000
      0.000567       0.000000       0.000000
      0.001180       0.000000       0.000000
      0.001172       0.000011       0.000000
      0.001031       0.000188       0.000000
      0.001047       0.000154       0.000000
      0.001611       0.000213       0.000000
      0.001560       0.000277       0.000000
      0.001047       0.000154       0.000000
      0.001076       0.000104       0.000000
      0.001678       0.000126       0.000000
      0.001611       0.000213       0.000000
      0.001560       0.000277       0.000000
      0.001611       0.000213       0.000000
      0.002225       0.000240       0.000000
      0.002109       0.000354       0.000000
      0.001611       0.000213       0.000000
      0.001678       0.000126       0.000000
      0.002357       0.000110       0.000000
      0.002225       0.000240       0.000000
      0.001076       0.000104       0.000000
      0.001113       0.000059       0.000000
      0.001749       0.000060       0.000000
      0.001678       0.000126       0.000000
      0.001113       0.000059       0.000000
      0.001148       0.000029       0.000000
      0.001805       0.000023       0.000000
      0.001749       0.000060       0.000000
      0.001678       0.000126       0.000000
      0.001749       0.000060       0.000000
      0.002466       0.000034       0.000000
      0.002357       0.000110       0.000000
      0.001749       0.000060       0.000000
      0.001805       0.000023       0.000000
      0.002538       0.000002       0.000000
      0.002466       0.000034       0.000000
      0.001148       0.000029       0.000000
      0.001172       0.000011       0.000000
      0.001840       0.000006       0.000000
      0.001805       0.000023       0.000000
      0.001172       0.000011       0.000000
      0.001180       0.000000       0.000000
      0.001852       0.000000       0.000000
      0.001840       0.000006       0.000000
      0.001805       0.000023       0.000000
      0.001840       0.000006       0.000000
      0.002578      -0.000005       0.000000
      0.002538       0.000002       0.000000
      0.001840       0.000006       0.000000
      0.001852       0.000000       0.000000
      0.002591       0.000000       0.000000
      0.002578      -0.000005       0.000000
      0.002357       0.000110       0.000000
      0.002466       0.000034       0.000000
      0.003297      -0.000012       0.000000
      0.003188       0.000046       0.000000
      0.002466       0.000034       0.000000
      0.002538       0.000002       0.000000
      0.003354      -0.000025       0.000000
      0.003297      -0.000012       0.000000
      0.003188       0.000046       0.000000
      0.003297      -0.000012       0.000000
      0.004235      -0.000036       0.000000
      0.004238      -0.000005       0.000000
      0.003297      -0.000012       0.000000
      0.003354      -0.000025       0.000000
      0.004233      -0.000038       0.000000
      0.004235      -0.000036       0.000000
      0.002538       0.000002       0.000000
      0.002578      -0.000005       0.000000
      0.003383      -0.000017       0.000000
      0.003354      -0.000025       0.000000
      0.002578      -0.000005       0.000000
      0.002591       0.000000       0.000000
      0.003392       0.000000       0.000000
      0.003383      -0.000017       0.000000
      0.003354      -0.000025       0.000000
      0.003383      -0.000017       0.000000
      0.004232      -0.000022       0.000000
      0.004233      -0.000038       0.000000
      0.003383      -0.000017       0.000000
      0.003392       0.000000       0.000000
      0.004232       0.000000       0.000000
      0.004232      -0.000022       0.000000
      0.002109       0.000354       0.000000
      0.002163       0.000309       0.000000
      0.002481       0.000324       0.000000
      0.002399       0.000387       0.000000
      0.002163       0.000309       0.000000
      0.002225       0.000240       0.000000
      0.002574       0.000231       0.000000
      0.002481       0.000324       0.000000
      0.002399       0.000387       0.000000
      0.002481       0.000324       0.000000
      0.002846       0.000319       0.000000
      0.002712       0.000415       0.000000
      0.002481       0.000324       0.000000
      0.002574       0.000231       0.000000
      0.002985       0.000196       0.000000
      0.002846       0.000319       0.000000
      0.002225       0.000240       0.000000
      0.002292       0.000170       0.000000
      0.002666       0.000147       0.000000
      0.002574       0.000231       0.000000
      0.002292       0.000170       0.000000
      0.002357       0.000110       0.000000
      0.002747       0.000083       0.000000
      0.002666       0.000147       0.000000
      0.002574       0.000231       0.000000
      0.002666       0.000147       0.000000
      0.003102       0.000104       0.000000