# vtk DataFile Version 2.0
time_10.vtk
ASCII
DATASET UNSTRUCTURED_GRID
POINTS  1152 float
      0.000000       0.000000       0.000000
      0.083333       0.000000       0.000000
      0.083333       0.083333       0.000000
      0.000000       0.083333       0.000000
      0.083333       0.000000       0.000000
      0.166667       0.000000       0.000000
      0.166667       0.083333       0.000000
      0.083333       0.083333       0.000000
      0.000000       0.083333       0.000000
      0.083333       0.083333       0.000000
      0.083333       0.166667       0.000000
      0.000000       0.166667       0.000000
      0.083333       0.083333       0.000000
      0.166667       0.083333       0.000000
      0.166667       0.166667       0.000000
      0.083333       0.166667       0.000000
      0.166667       0.000000       0.000000
      0.250000       0.000000       0.000000
      0.250000       0.083333       0.000000
      0.166667       0.083333       0.000000
      0.250000       0.000000       0.000000
      0.333333       0.000000       0.000000
      0.333333       0.083333       0.000000
      0.250000       0.083333       0.000000
      0.166667       0.083333       0.000000
      0.250000       0.083333       0.000000
      0.250000       0.166667       0.000000
      0.166667       0.166667       0.000000
      0.250000       0.083333       0.000000
      0.333333       0.083333       0.000000
      0.333333       0.166667       0.000000
      0.250000       0.166667       0.000000
      0.333333       0.000000       0.000000
      0.416667      -0.000000       0.000000
      0.416667       0.083333       0.000000
      0.333333       0.083333       0.000000
      0.416667      -0.000000       0.000000
      0.500000       0.000000       0.000000
      0.500000       0.083333       0.000000
      0.416667       0.083333       0.000000
      0.333333       0.083333       0.000000
      0.416667       0.083333       0.000000
      0.416667       0.166667       0.000000
      0.333333       0.166667       0.000000
      0.416667       0.083333       0.000000
      0.500000       0.083333       0.000000
      0.500000       0.166667       0.000000
      0.416667       0.166667       0.000000
      0.000000       0.166667       0.000000
      0.083333       0.166667       0.000000
      0.083333       0.250000       0.000000
      0.000000       0.250000       0.000000
      0.083333       0.166667       0.000000
      0.166667       0.166667       0.000000
      0.166667       0.250000       0.000000
      0.083333       0.250000       0.000000
      0.000000       0.250000       0.000000
      0.083333       0.250000       0.000000
      0.083333       0.333333       0.000000
      0.000000       0.333333       0.000000
      0.083333       0.250000       0.000000
      0.166667       0.250000       0.000000
      0.166667       0.333333       0.000000
      0.083333       0.333333       0.000000
      0.166667       0.166667       0.000000
      0.250000       0.166667       0.000000
      0.250000       0.250000       0.000000
      0.166667       0.250000       0.000000
      0.250000       0.166667       0.000000
      0.333333       0.166667       0.000000
      0.333333       0.250000       0.000000
      0.250000       0.250000       0.000000
      0.166667       0.250000       0.000000
      0.250000       0.250000       0.000000
      0.250000       0.333333       0.000000
      0.166667       0.333333       0.000000
      0.250000       0.250000       0.000000
      0.333333       0.250000       0.000000
      0.333333       0.333333       0.000000
      0.250000       0.333333       0.000000
      0.333333       0.166667       0.000000
      0.416667       0.166667       0.000000
      0.416667       0.250000       0.000000
      0.333333       0.250000       0.000000
      0.416667       0.166667       0.000000
      0.500000       0.166667       0.000000
      0.500000       0.250000       0.000000
      0.416667       0.250000       0.000000
      0.333333       0.250000       0.000000
      0.416667       0.250000       0.000000
      0.416667       0.333333       0.000000
      0.333333       0.333333       0.000000
      0.416667       0.250000       0.000000
      0.500000       0.250000       0.000000
      0.500000       0.333333       0.000000
      0.416667       0.333333       0.000000
      0.000000       0.333333       0.000000
      0.083333       0.333333       0.000000
      0.083333       0.416667       0.000000
     -0.000000       0.416667       0.000000
      0.083333       0.333333       0.000000
      0.166667       0.333333       0.000000
      0.166667       0.416667       0.000000
      0.083333       0.416667       0.000000
     -0.000000       0.416667       0.000000
      0.083333       0.416667       0.000000
      0.083333       0.500000       0.000000
      0.000000       0.500000       0.000000
      0.083333       0.416667       0.000000
      0.166667       0.416667       0.000000
      0.166667       0.500000       0.000000
      0.083333       0.500000       0.000000
      0.166667       0.333333       0.000000
      0.250000       0.333333       0.000000
      0.250000       0.416667       0.000000
      0.166667       0.416667       0.000000
      0.250000       0.333333       0.000000
      0.333333       0.333333       0.000000
      0.333333       0.416667       0.000000
      0.250000       0.416667       0.000000
      0.166667       0.416667       0.000000
      0.250000       0.416667       0.000000
      0.250000       0.500000       0.000000
      0.166667       0.500000       0.000000
      0.250000       0.416667       0.000000
      0.333333       0.416667       0.000000
      0.333333       0.500000       0.000000
      0.250000       0.500000       0.000000
      0.333333       0.333333       0.000000
      0.375000       0.333333       0.000000
      0.375000       0.375000       0.000000
      0.333333       0.375000       0.000000
      0.375000       0.333333       0.000000
      0.416667       0.333333       0.000000
      0.416667       0.375000       0.000000
      0.375000       0.375000       0.000000
      0.333333       0.375000       0.000000
      0.375000       0.375000       0.000000
      0.375000       0.416667       0.000000
      0.333333       0.416667       0.000000
      0.375000       0.375000       0.000000
      0.416667       0.375000       0.000000
      0.416667       0.416667       0.000000
      0.375000       0.416667       0.000000
      0.416667       0.333333       0.000000
      0.458333       0.333333       0.000000
      0.458333       0.375000       0.000000
      0.416667       0.375000       0.000000
      0.458333       0.333333       0.000000
      0.500000       0.333333       0.000000
      0.500000       0.375000       0.000000
      0.458333       0.375000       0.000000
      0.416667       0.375000       0.000000
      0.458333       0.375000       0.000000
      0.458333       0.416667       0.000000
      0.416667       0.416667       0.000000
      0.458333       0.375000       0.000000
      0.500000       0.375000       0.000000
      0.500000       0.416667       0.000000
      0.458333       0.416667       0.000000
      0.333333       0.416667       0.000000
      0.375000       0.416667       0.000000
      0.375000       0.458333       0.000000
      0.333333       0.458333       0.000000
      0.375000       0.416667       0.000000
      0.416667       0.416667       0.000000
      0.416667       0.458333       0.000000
      0.375000       0.458333       0.000000
      0.333333       0.458333       0.000000
      0.375000       0.458333       0.000000
      0.375000       0.500000       0.000000
      0.333333       0.500000       0.000000
      0.375000       0.458333       0.000000
      0.416667       0.458333       0.000000
      0.416667       0.500000       0.000000
      0.375000       0.500000       0.000000
      0.416667       0.416667       0.000000
      0.437500       0.416667       0.000000
      0.437500       0.437500       0.000000
      0.416667       0.437500       0.000000
      0.437500       0.416667       0.000000
      0.458333       0.416667       0.000000
      0.458333       0.437500       0.000000
      0.437500       0.437500       0.000000
      0.416667       0.437500       0.000000
      0.437500       0.437500       0.000000
      0.437500       0.458333       0.000000
      0.416667       0.458333       0.000000
      0.437500       0.437500       0.000000
      0.458333       0.437500       0.000000
      0.458333       0.458333       0.000000
      0.437500       0.458333       0.000000
      0.458333       0.416667       0.000000
      0.479167       0.416667       0.000000
      0.479167       0.437500       0.000000
      0.458333       0.437500       0.000000
      0.479167       0.416667       0.000000
      0.500000       0.416667       0.000000
      0.500000       0.437500       0.000000
      0.479167       0.437500       0.000000
      0.458333       0.437500       0.000000
      0.479167       0.437500       0.000000
      0.479167       0.458333       0.000000
      0.458333       0.458333       0.000000
      0.479167       0.437500       0.000000
      0.500000       0.437500       0.000000
      0.500000       0.458333       0.000000
      0.479167       0.458333       0.000000
      0.416667       0.458333       0.000000
      0.437500       0.458333       0.000000
      0.437500       0.479167       0.000000
      0.416667       0.479167       0.000000
      0.437500       0.458333       0.000000
      0.458333       0.458333       0.000000
      0.458333       0.479167       0.000000
      0.437500       0.479167       0.000000
      0.416667       0.479167       0.000000
      0.437500       0.479167       0.000000
      0.437500       0.500000       0.000000
      0.416667       0.500000       0.000000
[...]
POINT_DATA  1152
VECTORS U float 
      0.000000       0.000000       0.000000
      0.000000       0.000000       0.000000
      0.000032       0.000001       0.000000
      0.000032       0.000000       0.000000
      0.000000       0.000000       0.000000
      0.000000       0.000000       0.000000
      0.000032       0.000003       0.000000
      0.000032       0.000001       0.000000
      0.000032       0.000000       0.000000
      0.000032       0.000001       0.000000
      0.000060       0.000003       0.000000
      0.000060       0.000000       0.000000
      0.000032       0.000001       0.000000
      0.000032       0.000003       0.000000
      0.000061       0.000005       0.000000
      0.000060       0.000003       0.000000
      0.000000       0.000000       0.000000
      0.000000       0.000000       0.000000
      0.000032       0.000004       0.000000
      0.000032       0.000003       0.000000
      0.000000       0.000000       0.000000
      0.000000       0.000000       0.000000
      0.000032       0.000005       0.000000
      0.000032       0.000004       0.000000
      0.000032       0.000003       0.000000
      0.000032       0.000004       0.000000
      0.000062       0.000008       0.000000
      0.000061       0.000005       0.000000
      0.000032       0.000004       0.000000
      0.000032       0.000005       0.000000
      0.000063       0.000010       0.000000
      0.000062       0.000008       0.000000
      0.000000       0.000000       0.000000
      0.000000       0.000000       0.000000
      0.000032       0.000006       0.000000
      0.000032       0.000005       0.000000
      0.000000       0.000000       0.000000
      0.000000       0.000000       0.000000
      0.000031       0.000005       0.000000
      0.000032       0.000006       0.000000
      0.000032       0.000005       0.000000
      0.000032       0.000006       0.000000
      0.000063       0.000011       0.000000
      0.000063       0.000010       0.000000
      0.000032       0.000006       0.000000
      0.000031       0.000005       0.000000
      0.000064       0.000010       0.000000
      0.000063       0.000011       0.000000
      0.000060       0.000000       0.000000
      0.000060       0.000003       0.000000
      0.000084       0.000003       0.000000
      0.000084       0.000000       0.000000
      0.000060       0.000003       0.000000
      0.000061       0.000005       0.000000
      0.000086       0.000007       0.000000
      0.000084       0.000003       0.000000
      0.000084       0.000000       0.000000
      0.000084       0.000003       0.000000
      0.000103       0.000003       0.000000
      0.000101       0.000000       0.000000
      0.000084       0.000003       0.000000
      0.000086       0.000007       0.000000
      0.000106       0.000007       0.000000
      0.000103       0.000003       0.000000
      0.000061       0.000005       0.000000
      0.000062       0.000008       0.000000
      0.000089       0.000011       0.000000
      0.000086       0.000007       0.000000
      0.000062       0.000008       0.000000
      0.000063       0.000010       0.000000
      0.000092       0.000015       0.000000
      0.000089       0.000011       0.000000
      0.000086       0.000007       0.000000
      0.000089       0.000011       0.000000
      0.000112       0.000012       0.000000
      0.000106       0.000007       0.000000
      0.000089       0.000011       0.000000
      0.000092       0.000015       0.000000
      0.000119       0.000017       0.000000
      0.000112       0.000012       0.000000
      0.000063       0.000010       0.000000
      0.000063       0.000011       0.000000
      0.000095       0.000016       0.000000
      0.000092       0.000015       0.000000
      0.000063       0.000011       0.000000
      0.000064       0.000010       0.000000
      0.000097       0.000015       0.000000
      0.000095       0.000016       0.000000
      0.000092       0.000015       0.000000
      0.000095       0.000016       0.000000
      0.000126       0.000021       0.000000
      0.000119       0.000017       0.000000
      0.000095       0.000016       0.000000
      0.000097       0.000015       0.000000
      0.000131       0.000019       0.000000
      0.000126       0.000021       0.000000
      0.000101       0.000000       0.000000
      0.000103       0.000003       0.000000
      0.000114       0.000002       0.000000
      0.000112       0.000000       0.000000
      0.000103       0.000003       0.000000
      0.000106       0.000007       0.000000
      0.000119       0.000006       0.000000
      0.000114       0.000002       0.000000
      0.000112       0.000000       0.000000
      0.000114       0.000002       0.000000
      0.000117       0.000001       0.000000
      0.000115       0.000000       0.000000
      0.000114       0.000002       0.000000
      0.000119       0.000006       0.000000
      0.000122       0.000003       0.000000
      0.000117       0.000001       0.000000
      0.000106       0.000007       0.000000
      0.000112       0.000012       0.000000
      0.000127       0.000010       0.000000
      0.000119       0.000006       0.000000
      0.000112       0.000012       0.000000
      0.000119       0.000017       0.000000
      0.000140       0.000015       0.000000
      0.000127       0.000010       0.000000
      0.000119       0.000006       0.000000
      0.000127       0.000010       0.000000
      0.000131       0.000005       0.000000
      0.000122       0.000003       0.000000
      0.000127       0.000010       0.000000
      0.000140       0.000015       0.000000
      0.000146       0.000009       0.000000
      0.000131       0.000005       0.000000
      0.000119       0.000017       0.000000
      0.000122       0.000019       0.000000
      0.000136       0.000020       0.000000
      0.000130       0.000017       0.000000
      0.000122       0.000019       0.000000
      0.000126       0.000021       0.000000
      0.000141       0.000022       0.000000
      0.000136       0.000020       0.000000
      0.000130       0.000017       0.000000
      0.000136       0.000020       0.000000
      0.000147       0.000019       0.000000
      0.000140       0.000015       0.000000
      0.000136       0.000020       0.000000
      0.000141       0.000022       0.000000
      0.000156       0.000022       0.000000
      0.000147       0.000019       0.000000
      0.000126       0.000021       0.000000
      0.000129       0.000021       0.000000
      0.000146       0.000023       0.000000
      0.000141       0.000022       0.000000
      0.000129       0.000021       0.000000
      0.000131       0.000019       0.000000
      0.000150       0.000020       0.000000
      0.000146       0.000023       0.000000
      0.000141       0.000022       0.000000
      0.000146       0.000023       0.000000
      0.000164       0.000024       0.000000
      0.000156       0.000022       0.000000
      0.000146       0.000023       0.000000
      0.000150       0.000020       0.000000
      0.000170       0.000021       0.000000
      0.000164       0.000024       0.000000
      0.000140       0.000015       0.000000
      0.000147       0.000019       0.000000
      0.000156       0.000016       0.000000
      0.000146       0.000013       0.000000
      0.000147       0.000019       0.000000
      0.000156       0.000022       0.000000
      0.000168       0.000020       0.000000
      0.000156       0.000016       0.000000
      0.000146       0.000013       0.000000
      0.000156       0.000016       0.000000
      0.000157       0.000011       0.000000
      0.000146       0.000009       0.000000
      0.000156       0.000016       0.000000
      0.000168       0.000020       0.000000
      0.000172       0.000013       0.000000
      0.000157       0.000011       0.000000
      0.000156       0.000022       0.000000
      0.000160       0.000024       0.000000
      0.000168       0.000023       0.000000
      0.000163       0.000021       0.000000
      0.000160       0.000024       0.000000
      0.000164       0.000024       0.000000
      0.000173       0.000024       0.000000
      0.000168       0.000023       0.000000
      0.000163       0.000021       0.000000
      0.000168       0.000023       0.000000
      0.000175       0.000022       0.000000
      0.000168       0.000020       0.000000
      0.000168       0.000023       0.000000
      0.000173       0.000024       0.000000
      0.000182       0.000024       0.000000
      0.000175       0.000022       0.000000
      0.000164       0.000024       0.000000
      0.000167       0.000023       0.000000
      0.000178       0.000024       0.000000
      0.000173       0.000024       0.000000
      0.000167       0.000023       0.000000
      0.000170       0.000021       0.000000
      0.000182       0.000021       0.000000
      0.000178       0.000024       0.000000
      0.000173       0.000024       0.000000
      0.000178       0.000024       0.000000
      0.000189       0.000024       0.000000
      0.000182       0.000024       0.000000
      0.000178       0.000024       0.000000
      0.000182       0.000021       0.000000
      0.000195       0.000021       0.000000
      0.000189       0.000024       0.000000
      0.000168       0.000020       0.000000
      0.000175       0.000022       0.000000
      0.000180       0.000019       0.000000
      0.000172       0.000017       0.000000
      0.000175       0.000022       0.000000
      0.000182       0.000024       0.000000
      0.000191       0.000021       0.000000
      0.000180       0.000019       0.000000
      0.000172       0.000017       0.000000
      0.000180       0.000019       0.000000
      0.000182       0.000015       0.000000
      0.000172       0.000013       0.000000
      0.000180       0.000019       0.000000
      0.000191       0.000021       0.000000
      0.000193       0.000016       0.000000
      0.000182       0.000015       0.000000
      0.000182       0.000024       0.000000
      0.000186       0.000024       0.000000
      0.000191       0.000024       0.000000
      0.000187       0.000023       0.000000
      0.000186       0.000024       0.000000
      0.000189       0.000024       0.000000
      0.000195       0.000024       0.000000
      0.000191       0.000024       0.000000
      0.000187       0.000023       0.000000
      0.000191       0.000024       0.000000
      0.000196       0.000023       0.000000
      0.000191       0.000021       0.000000
      0.000191       0.000024       0.000000
      0.000195       0.000024       0.000000
      0.000202       0.000024       0.000000
      0.000196       0.000023       0.000000
      0.000189       0.000024       0.000000
      0.000192       0.000023       0.000000
      0.000199       0.000024       0.000000
      0.000195       0.000024       0.000000
      0.000192       0.000023       0.000000
      0.000195       0.000021       0.000000
      0.000202       0.000021       0.000000
      0.000199       0.000024       0.000000
      0.000195       0.000024       0.000000
      0.000199       0.000024       0.000000
      0.000207       0.000024       0.000000
      0.000202       0.000024       0.000000
      0.000199       0.000024       0.000000
      0.000202       0.000021       0.000000
      0.000211       0.000021       0.000000
      0.000207       0.000024       0.000000
      0.000191       0.000021       0.000000
      0.000196       0.000023       0.000000
      0.000200       0.000020       0.000000
      0.000193       0.000019       0.000000
      0.000196       0.000023       0.000000
      0.000202       0.000024       0.000000
      0.000207       0.000022       0.000000
      0.000200       0.000020       0.000000
      0.000193       0.000019       0.000000
      0.000200       0.000020       0.000000
      0.000201       0.000017       0.000000
      0.000193       0.000016       0.000000
      0.000200       0.000020       0.000000
      0.000207       0.000022       0.000000
      0.000210       0.000018       0.000000
      0.000201       0.000017       0.000000
      0.000202       0.000024       0.000000
      0.000207       0.000024       0.000000
      0.000216       0.000023       0.000000
      0.000207       0.000022       0.000000
      0.000207       0.000024       0.000000
      0.000211       0.000021       0.000000
      0.000223       0.000020       0.000000
      0.000216       0.000023       0.000000
      0.000207       0.000022       0.000000
      0.000216       0.000023       0.000000
      0.000222       0.000019       0.000000
      0.000210       0.000018       0.000000
      0.000216       0.000023       0.000000
      0.000223       0.000020       0.000000
      0.000250       0.000018       0.000000
      0.000222       0.000019       0.000000
      0.000000       0.000000       0.000000
      0.000000       0.000000       0.000000
      0.000032       0.000004       0.000000
      0.000031       0.000005       0.000000
      0.000000       0.000000       0.000000
      0.000000       0.000000       0.000000
      0.000032       0.000003       0.000000
      0.000032       0.000004       0.000000
      0.000031       0.000005       0.000000
      0.000032       0.000004       0.000000
      0.000065       0.000008       0.000000
      0.000064       0.000010       0.000000
      0.000032       0.000004       0.000000
      0.000032       0.000003       0.000000
      0.000067       0.000005       0.000000
      0.000065       0.000008       0.000000
      0.000000       0.000000       0.000000
      0.000000       0.000000       0.000000
      0.000033       0.000002       0.000000
      0.000032       0.000003       0.000000
      0.000000       0.000000       0.000000
      0.000000       0.000000       0.000000
      0.000034       0.000001       0.000000
      0.000033       0.000002       0.000000
      0.000032       0.000003       0.000000
      0.000033       0.000002       0.000000
      0.000069       0.000003       0.000000
      0.000067       0.000005       0.000000
      0.000033       0.000002       0.000000
      0.000034       0.000001       0.000000
      0.000071       0.000001       0.000000
      0.000069       0.000003       0.000000
      0.000000       0.000000       0.000000
      0.000000       0.000000       0.000000
      0.000035       0.000000       0.000000
      0.000034       0.000001       0.000000
      0.000000       0.000000       0.000000
      0.000000       0.000000       0.000000
      0.000035       0.000000       0.000000
      0.000035       0.000000       0.000000
      0.000034       0.000001       0.000000
      0.000035       0.000000       0.000000
      0.000072       0.000000       0.000000
      0.000071       0.000001       0.000000
      0.000035       0.000000       0.000000
      0.000035       0.000000       0.000000
      0.000073       0.000000       0.000000
      0.000072       0.000000       0.000000
      0.000064       0.000010       0.000000
      0.000065       0.000008       0.000000
      0.000100       0.000010       0.000000
      0.000097       0.000015       0.000000
      0.000065       0.000008       0.000000
      0.000067       0.000005       0.000000
      0.000104       0.000006       0.000000
      0.000100       0.000010       0.000000
      0.000097       0.000015       0.000000
      0.000100       0.000010       0.000000
      0.000138       0.000011       0.000000
      0.000131       0.000019       0.000000
      0.000100       0.000010       0.000000
      0.000104       0.000006       0.000000
      0.000145       0.000004       0.000000
      0.000138       0.000011       0.000000
      0.000067       0.000005       0.000000
      0.000069       0.000003       0.000000
      0.000108       0.000002       0.000000
      0.000104       0.000006       0.000000
      0.000069       0.000003       0.000000
      0.000071       0.000001       0.000000
      0.000111       0.000001       0.000000
      0.000108       0.000002       0.000000
      0.000104       0.000006       0.000000
      0.000108       0.000002       0.000000
      0.000151       0.000001       0.000000
      0.000145       0.000004       0.000000
      0.000108       0.000002       0.000000
      0.000111       0.000001       0.000000
      0.000154      -0.000000       0.000000
      0.000151       0.000001       0.000000
      0.000071       0.000001       0.000000
      0.000072       0.000000       0.000000
      0.000113       0.000000       0.000000
      0.000111       0.000001       0.000000
      0.000072       0.000000       0.000000
      0.000073       0.000000       0.000000
      0.000113       0.000000       0.000000
      0.000113       0.000000       0.000000
      0.000111       0.000001       0.000000
      0.000113       0.000000       0.000000
      0.000156      -0.000000       0.000000
      0.000154      -0.000000       0.000000
      0.000113       0.000000       0.000000
      0.000113       0.000000       0.000000
      0.000157       0.000000       0.000000
      0.000156      -0.000000       0.000000
      0.000145       0.000004       0.000000
      0.000151       0.000001       0.000000
      0.000198      -0.000001       0.000000
      0.000193       0.000001       0.000000
      0.000151       0.000001       0.000000
      0.000154      -0.000000       0.000000
      0.000201      -0.000002       0.000000
      0.000198      -0.000001       0.000000
      0.000193       0.000001       0.000000
      0.000198      -0.000001       0.000000
      0.000250      -0.000003       0.000000
      0.000250      -0.000002       0.000000
      0.000198      -0.000001       0.000000
      0.000201      -0.000002       0.000000
      0.000250      -0.000002       0.000000
      0.000250      -0.000003       0.000000
      0.000154      -0.000000       0.000000
      0.000156      -0.000000       0.000000
      0.000202      -0.000001       0.000000
      0.000201      -0.000002       0.000000
      0.000156      -0.000000       0.000000
      0.000157       0.000000       0.000000
      0.000203       0.000000       0.000000
      0.000202      -0.000001       0.000000
      0.000201      -0.000002       0.000000
      0.000202      -0.000001       0.000000
      0.000250      -0.000001       0.000000
      0.000250      -0.000002       0.000000
      0.000202      -0.000001       0.000000
      0.000203       0.000000       0.000000
      0.000250       0.000000       0.000000
      0.000250      -0.000001       0.000000
      0.000131       0.000019       0.000000
      0.000135       0.000015       0.000000
      0.000155       0.000015       0.000000
      0.000150       0.000020       0.000000
      0.000135       0.000015       0.000000
      0.000138       0.000011       0.000000
      0.000160       0.000010       0.000000
      0.000155       0.000015       0.000000
      0.000150       0.000020       0.000000
      0.000155       0.000015       0.000000
      0.000177       0.000014       0.000000
      0.000170       0.000021       0.000000
      0.000155       0.000015       0.000000
      0.000160       0.000010       0.000000
      0.000184       0.000008       0.000000
      0.000177       0.000014       0.000000
      0.000138       0.000011       0.000000
      0.000142       0.000007       0.000000
      0.000164       0.000006       0.000000
      0.000160       0.000010       0.000000
      0.000142       0.000007       0.000000
      0.000145       0.000004       0.000000
      0.000168       0.000003       0.000000
      0.000164       0.000006       0.000000
      0.000160       0.000010       0.000000
      0.000164       0.000006       0.000000
      0.000190       0.000003       0.000000