# vtk DataFile Version 2.0
time_10.vtk
ASCII
DATASET UNSTRUCTURED_GRID
POINTS  1344 float
      0.000000       0.000000       0.000000
      0.083333       0.000000       0.000000
      0.083333       0.083333       0.000000
      0.000000       0.083333       0.000000
      0.083333       0.000000       0.000000
      0.166667       0.000000       0.000000
      0.166667       0.083333       0.000000
      0.083333       0.083333       0.000000
      0.000000       0.083333       0.000000
      0.083333       0.083333       0.000000
      0.083333       0.166667       0.000000
      0.000000       0.166667       0.000000
      0.083333       0.083333       0.000000
      0.166667       0.083333       0.000000
      0.166667       0.166667       0.000000
      0.083333       0.166667       0.000000
      0.166667       0.000000       0.000000
      0.250000       0.000000       0.000000
      0.250000       0.083333       0.000000
      0.166667       0.083333       0.000000
      0.250000       0.000000       0.000000
      0.333333       0.000000       0.000000
      0.333333       0.083333       0.000000
      0.250000       0.083333       0.000000
      0.166667       0.083333       0.000000
      0.250000       0.083333       0.000000
      0.250000       0.166667       0.000000
      0.166667       0.166667       0.000000
      0.250000       0.083333       0.000000
      0.333333       0.083333       0.000000
      0.333333       0.166667       0.000000
      0.250000       0.166667       0.000000
      0.333333       0.000000       0.000000
      0.416667       0.000000       0.000000
      0.416667       0.083333       0.000000
      0.333333       0.083333       0.000000
      0.416667       0.000000       0.000000
      0.500000       0.000000       0.000000
      0.500000       0.083333       0.000000
      0.416667       0.083333       0.000000
      0.333333       0.083333       0.000000
      0.416667       0.083333       0.000000
      0.416667       0.166667       0.000000
      0.333333       0.166667       0.000000
      0.416667       0.083333       0.000000
      0.500000       0.083333       0.000000
      0.500000       0.166667       0.000000
      0.416667       0.166667       0.000000
      0.000000       0.166667       0.000000
      0.083333       0.166667       0.000000
      0.083333       0.250000       0.000000
      0.000000       0.250000       0.000000
      0.083333       0.166667       0.000000
      0.166667       0.166667       0.000000
      0.166667       0.250000       0.000000
      0.083333       0.250000       0.000000
      0.000000       0.250000       0.000000
      0.083333       0.250000       0.000000
      0.083333       0.333333       0.000000
      0.000000       0.333333       0.000000
      0.083333       0.250000       0.000000
      0.166667       0.250000       0.000000
      0.166667       0.333333       0.000000
      0.083333       0.333333       0.000000
      0.166667       0.166667       0.000000
      0.250000       0.166667       0.000000
      0.250000       0.250000       0.000000
      0.166667       0.250000       0.000000
      0.250000       0.166667       0.000000
      0.333333       0.166667       0.000000
      0.333333       0.250000       0.000000
      0.250000       0.250000       0.000000
      0.166667       0.250000       0.000000
      0.250000       0.250000       0.000000
      0.250000       0.333333       0.000000
      0.166667       0.333333       0.000000
      0.250000       0.250000       0.000000
      0.333333       0.250000       0.000000
      0.333333       0.333333       0.000000
      0.250000       0.333333       0.000000
      0.333333       0.166667       0.000000
      0.416667       0.166667       0.000000
      0.416667       0.250000       0.000000
      0.333333       0.250000       0.000000
      0.416667       0.166667       0.000000
      0.500000       0.166667       0.000000
      0.500000       0.250000       0.000000
      0.416667       0.250000       0.000000
      0.333333       0.250000       0.000000
      0.416667       0.250000       0.000000
      0.416667       0.333333       0.000000
      0.333333       0.333333       0.000000
      0.416667       0.250000       0.000000
      0.500000       0.250000       0.000000
      0.500000       0.333333       0.000000
      0.416667       0.333333       0.000000
      0.000000       0.333333       0.000000
      0.083333       0.333333       0.000000
      0.083333       0.416667       0.000000
      0.000000       0.416667       0.000000
      0.083333       0.333333       0.000000
      0.166667       0.333333       0.000000
      0.166667       0.416667       0.000000
      0.083333       0.416667       0.000000
      0.000000       0.416667       0.000000
      0.083333       0.416667       0.000000
      0.083333       0.500000       0.000000
      0.000000       0.500000       0.000000
      0.083333       0.416667       0.000000
      0.166667       0.416667       0.000000
      0.166667       0.500000       0.000000
      0.083333       0.500000       0.000000
      0.166667       0.333333       0.000000
      0.250000       0.333333       0.000000
      0.250000       0.416667       0.000000
      0.166667       0.416667       0.000000
      0.250000       0.333333       0.000000
      0.333333       0.333333       0.000000
      0.333333       0.416667       0.000000
      0.250000       0.416667       0.000000
      0.166667       0.416667       0.000000
      0.250000       0.416667       0.000000
      0.250000       0.500000       0.000000
      0.166667       0.500000       0.000000
      0.250000       0.416667       0.000000
      0.333333       0.416667       0.000000
      0.333333       0.500000       0.000000
      0.250000       0.500000       0.000000
      0.333333       0.333333       0.000000
      0.375000       0.333333       0.000000
      0.375000       0.375000       0.000000
      0.333333       0.375000       0.000000
      0.375000       0.333333       0.000000
      0.416667       0.333333       0.000000
      0.416667       0.375000       0.000000
      0.375000       0.375000       0.000000
      0.333333       0.375000       0.000000
      0.375000       0.375000       0.000000
      0.375000       0.416667       0.000000
      0.333333       0.416667       0.000000
      0.375000       0.375000       0.000000
      0.416667       0.375000       0.000000
      0.416667       0.416667       0.000000
      0.375000       0.416667       0.000000
      0.416667       0.333333       0.000000
      0.458333       0.333333       0.000000
      0.458333       0.375000       0.000000
      0.416667       0.375000       0.000000
      0.458333       0.333333       0.000000
      0.500000       0.333333       0.000000
      0.500000       0.375000       0.000000
      0.458333       0.375000       0.000000
      0.416667       0.375000       0.000000
      0.458333       0.375000       0.000000
      0.458333       0.416667       0.000000
      0.416667       0.416667       0.000000
      0.333333       0.416667       0.000000
      0.375000       0.416667       0.000000
      0.375000       0.458333       0.000000
      0.333333       0.458333       0.000000
      0.375000       0.416667       0.000000
      0.416667       0.416667       0.000000
      0.416667       0.458333       0.000000
      0.375000       0.458333       0.000000
      0.333333       0.458333       0.000000
      0.375000       0.458333       0.000000
      0.375000       0.500000       0.000000
      0.333333       0.500000       0.000000
      0.375000       0.458333       0.000000
      0.416667       0.458333       0.000000
      0.416667       0.500000       0.000000
      0.375000       0.500000       0.000000
      0.416667       0.416667       0.000000
      0.437500       0.416667       0.000000
      0.437500       0.437500       0.000000
      0.416667       0.437500       0.000000
      0.437500       0.416667       0.000000
      0.458333       0.416667       0.000000
      0.458333       0.437500       0.000000
      0.437500       0.437500       0.000000
      0.416667       0.437500       0.000000
      0.437500       0.437500       0.000000
      0.437500       0.458333       0.000000
      0.416667       0.458333       0.000000
      0.437500       0.437500       0.000000
      0.458333       0.437500       0.000000
      0.458333       0.458333       0.000000
      0.437500       0.458333       0.000000
      0.458333       0.416667       0.000000
      0.479167       0.416667       0.000000
      0.479167       0.437500       0.000000
      0.458333       0.437500       0.000000
      0.458333       0.437500       0.000000
      0.479167       0.437500       0.000000
      0.479167       0.458333       0.000000
      0.458333       0.458333       0.000000
      0.416667       0.458333       0.000000
      0.437500       0.458333       0.000000
      0.437500       0.479167       0.000000
      0.416667       0.479167       0.000000
      0.437500       0.458333       0.000000
      0.458333       0.458333       0.000000
      0.458333       0.479167       0.000000
      0.437500       0.479167       0.000000
      0.416667       0.479167       0.000000
      0.437500       0.479167       0.000000
      0.437500       0.500000       0.000000
      0.416667       0.500000       0.000000
      0.437500       0.479167       0.000000
      0.458333       0.479167       0.000000
      0.458333       0.500000       0.000000
      0.437500       0.500000       0.000000
      0.458333       0.458333       0.000000
      0.468750       0.458333       0.000000
      0.468750       0.468750       0.000000
      0.458333       0.468750       0.000000
      0.468750       0.458333       0.000000
      0.479167       0.458333       0.000000
      0.479167       0.468750       0.000000
      0.468750       0.468750       0.000000
[...]
POINT_DATA  1344
VECTORS U float 
      0.000000       0.000000       0.000000
      0.000000       0.000000       0.000000
      0.000462       0.000012       0.000000
      0.000455       0.000000       0.000000
      0.000000       0.000000       0.000000
      0.000000       0.000000       0.000000
      0.000482       0.000026       0.000000
      0.000462       0.000012       0.000000
      0.000455       0.000000       0.000000
      0.000462       0.000012       0.000000
      0.000857       0.000013       0.000000
      0.000844       0.000000       0.000000
      0.000462       0.000012       0.000000
      0.000482       0.000026       0.000000
      0.000893       0.000034       0.000000
      0.000857       0.000013       0.000000
      0.000000       0.000000       0.000000
      0.000000       0.000000       0.000000
      0.000512       0.000048       0.000000
      0.000482       0.000026       0.000000
      0.000000       0.000000       0.000000
      0.000000       0.000000       0.000000
      0.000544       0.000078       0.000000
      0.000512       0.000048       0.000000
      0.000482       0.000026       0.000000
      0.000512       0.000048       0.000000
      0.000951       0.000070       0.000000
      0.000893       0.000034       0.000000
      0.000512       0.000048       0.000000
      0.000544       0.000078       0.000000
      0.001023       0.000129       0.000000
      0.000951       0.000070       0.000000
      0.000000       0.000000       0.000000
      0.000000       0.000000       0.000000
      0.000567       0.000114       0.000000
      0.000544       0.000078       0.000000
      0.000000       0.000000       0.000000
      0.000000       0.000000       0.000000
      0.000574       0.000143       0.000000
      0.000567       0.000114       0.000000
      0.000544       0.000078       0.000000
      0.000567       0.000114       0.000000
      0.001091       0.000211       0.000000
      0.001023       0.000129       0.000000
      0.000567       0.000114       0.000000
      0.000574       0.000143       0.000000
      0.001134       0.000284       0.000000
      0.001091       0.000211       0.000000
      0.000844       0.000000       0.000000
      0.000857       0.000013       0.000000
      0.001168       0.000007       0.000000
      0.001152       0.000000       0.000000
      0.000857       0.000013       0.000000
      0.000893       0.000034       0.000000
      0.001218       0.000023       0.000000
      0.001168       0.000007       0.000000
      0.001152       0.000000       0.000000
      0.001168       0.000007       0.000000
      0.001389      -0.000006       0.000000
      0.001372       0.000000       0.000000
      0.001168       0.000007       0.000000
      0.001218       0.000023       0.000000
      0.001443      -0.000003       0.000000
      0.001389      -0.000006       0.000000
      0.000893       0.000034       0.000000
      0.000951       0.000070       0.000000
      0.001302       0.000060       0.000000
      0.001218       0.000023       0.000000
      0.000951       0.000070       0.000000
      0.001023       0.000129       0.000000
      0.001420       0.000136       0.000000
      0.001302       0.000060       0.000000
      0.001218       0.000023       0.000000
      0.001302       0.000060       0.000000
      0.001538       0.000021       0.000000
      0.001443      -0.000003       0.000000
      0.001302       0.000060       0.000000
      0.001420       0.000136       0.000000
      0.001686       0.000086       0.000000
      0.001538       0.000021       0.000000
      0.001023       0.000129       0.000000
      0.001091       0.000211       0.000000
      0.001562       0.000265       0.000000
      0.001420       0.000136       0.000000
      0.001091       0.000211       0.000000
      0.001134       0.000284       0.000000
      0.001685       0.000413       0.000000
      0.001562       0.000265       0.000000
      0.001420       0.000136       0.000000
      0.001562       0.000265       0.000000
      0.001910       0.000234       0.000000
      0.001686       0.000086       0.000000
      0.001562       0.000265       0.000000
      0.001685       0.000413       0.000000
      0.002200       0.000509       0.000000
      0.001910       0.000234       0.000000
      0.001372       0.000000       0.000000
      0.001389      -0.000006       0.000000
      0.001523      -0.000020       0.000000
      0.001508       0.000000       0.000000
      0.001389      -0.000006       0.000000
      0.001443      -0.000003       0.000000
      0.001569      -0.000033       0.000000
      0.001523      -0.000020       0.000000
      0.001508       0.000000       0.000000
      0.001523      -0.000020       0.000000
      0.001582      -0.000031       0.000000
      0.001571       0.000000       0.000000
      0.001523      -0.000020       0.000000
      0.001569      -0.000033       0.000000
      0.001616      -0.000056       0.000000
      0.001582      -0.000031       0.000000
      0.001443      -0.000003       0.000000
      0.001538       0.000021       0.000000
      0.001649      -0.000029       0.000000
      0.001569      -0.000033       0.000000
      0.001538       0.000021       0.000000
      0.001686       0.000086       0.000000
      0.001772       0.000006       0.000000
      0.001649      -0.000029       0.000000
      0.001569      -0.000033       0.000000
      0.001649      -0.000029       0.000000
      0.001670      -0.000065       0.000000
      0.001616      -0.000056       0.000000
      0.001649      -0.000029       0.000000
      0.001772       0.000006       0.000000
      0.001733      -0.000042       0.000000
      0.001670      -0.000065       0.000000
      0.001686       0.000086       0.000000
      0.001788       0.000146       0.000000
      0.001854       0.000097       0.000000
      0.001752       0.000046       0.000000
      0.001788       0.000146       0.000000
      0.001910       0.000234       0.000000
      0.001985       0.000178       0.000000
      0.001854       0.000097       0.000000
      0.001752       0.000046       0.000000
      0.001854       0.000097       0.000000
      0.001856       0.000046       0.000000
      0.001772       0.000006       0.000000
      0.001854       0.000097       0.000000
      0.001985       0.000178       0.000000
      0.001963       0.000112       0.000000
      0.001856       0.000046       0.000000
      0.001910       0.000234       0.000000
      0.002053       0.000360       0.000000
      0.002158       0.000307       0.000000
      0.001985       0.000178       0.000000
      0.002053       0.000360       0.000000
      0.002200       0.000509       0.000000
      0.002390       0.000514       0.000000
      0.002158       0.000307       0.000000
      0.001985       0.000178       0.000000
      0.002158       0.000307       0.000000
      0.002106       0.000221       0.000000
      0.001963       0.000112       0.000000
      0.001772       0.000006       0.000000
      0.001856       0.000046       0.000000
      0.001814       0.000009       0.000000
      0.001759      -0.000024       0.000000
      0.001856       0.000046       0.000000
      0.001963       0.000112       0.000000
      0.001873       0.000069       0.000000
      0.001814       0.000009       0.000000
      0.001759      -0.000024       0.000000
      0.001814       0.000009       0.000000
      0.001761      -0.000008       0.000000
      0.001733      -0.000042       0.000000
      0.001814       0.000009       0.000000
      0.001873       0.000069       0.000000
      0.001778       0.000054       0.000000
      0.001761      -0.000008       0.000000
      0.001963       0.000112       0.000000
      0.002028       0.000160       0.000000
      0.001971       0.000131       0.000000
      0.001923       0.000086       0.000000
      0.002028       0.000160       0.000000
      0.002106       0.000221       0.000000
      0.002025       0.000189       0.000000
      0.001971       0.000131       0.000000
      0.001923       0.000086       0.000000
      0.001971       0.000131       0.000000
      0.001904       0.000114       0.000000
      0.001873       0.000069       0.000000
      0.001971       0.000131       0.000000
      0.002025       0.000189       0.000000
      0.001934       0.000173       0.000000
      0.001904       0.000114       0.000000
      0.002106       0.000221       0.000000
      0.002206       0.000304       0.000000
      0.002087       0.000266       0.000000
      0.002025       0.000189       0.000000
      0.002025       0.000189       0.000000
      0.002087       0.000266       0.000000
      0.001963       0.000251       0.000000
      0.001934       0.000173       0.000000
      0.001873       0.000069       0.000000
      0.001904       0.000114       0.000000
      0.001839       0.000105       0.000000
      0.001823       0.000058       0.000000
      0.001904       0.000114       0.000000
      0.001934       0.000173       0.000000
      0.001852       0.000166       0.000000
      0.001839       0.000105       0.000000
      0.001823       0.000058       0.000000
      0.001839       0.000105       0.000000
      0.001781       0.000102       0.000000
      0.001778       0.000054       0.000000
      0.001839       0.000105       0.000000
      0.001852       0.000166       0.000000
      0.001781       0.000164       0.000000
      0.001781       0.000102       0.000000
      0.001934       0.000173       0.000000
      0.001948       0.000209       0.000000
      0.001900       0.000205       0.000000
      0.001891       0.000169       0.000000
      0.001948       0.000209       0.000000
      0.001963       0.000251       0.000000
      0.001909       0.000247       0.000000
      0.001900       0.000205       0.000000
      0.001891       0.000169       0.000000
      0.001900       0.000205       0.000000
      0.001858       0.000203       0.000000
      0.001852       0.000166       0.000000
      0.001900       0.000205       0.000000
      0.001909       0.000247       0.000000
      0.001863       0.000245       0.000000
      0.001858       0.000203       0.000000
      0.001963       0.000251       0.000000
      0.001977       0.000300       0.000000
      0.001920       0.000296       0.000000
      0.001909       0.000247       0.000000
      0.001977       0.000300       0.000000
      0.001994       0.000358       0.000000
      0.001937       0.000360       0.000000
      0.001920       0.000296       0.000000
      0.001909       0.000247       0.000000
      0.001920       0.000296       0.000000
      0.001871       0.000291       0.000000
      0.001863       0.000245       0.000000
      0.001920       0.000296       0.000000
      0.001937       0.000360       0.000000
      0.001879       0.000360       0.000000
      0.001871       0.000291       0.000000
      0.001852       0.000166       0.000000
      0.001858       0.000203       0.000000
      0.001819       0.000202       0.000000
      0.001816       0.000165       0.000000
      0.001858       0.000203       0.000000
      0.001863       0.000245       0.000000
      0.001823       0.000242       0.000000
      0.001819       0.000202       0.000000
      0.001816       0.000165       0.000000
      0.001819       0.000202       0.000000
      0.001782       0.000202       0.000000
      0.001781       0.000164       0.000000
      0.001819       0.000202       0.000000
      0.001823       0.000242       0.000000
      0.001787       0.000244       0.000000
      0.001782       0.000202       0.000000
      0.001863       0.000245       0.000000
      0.001871       0.000291       0.000000
      0.001828       0.000282       0.000000
      0.001823       0.000242       0.000000
      0.001871       0.000291       0.000000
      0.001879       0.000360       0.000000
      0.001621       0.000292       0.000000
      0.001828       0.000282       0.000000
      0.001823       0.000242       0.000000
      0.001828       0.000282       0.000000
      0.001828       0.000294       0.000000
      0.001787       0.000244       0.000000
      0.001828       0.000282       0.000000
      0.001621       0.000292       0.000000
      0.007244       0.000630       0.000000
      0.001828       0.000294       0.000000
      0.002087       0.000266       0.000000
      0.002124       0.000314       0.000000
      0.002046       0.000304       0.000000
      0.002023       0.000256       0.000000
      0.002124       0.000314       0.000000
      0.002168       0.000371       0.000000
      0.002073       0.000363       0.000000
      0.002046       0.000304       0.000000
      0.002023       0.000256       0.000000
      0.002046       0.000304       0.000000
      0.001977       0.000300       0.000000
      0.001963       0.000251       0.000000
      0.002046       0.000304       0.000000
      0.002073       0.000363       0.000000
      0.001994       0.000358       0.000000
      0.001977       0.000300       0.000000
      0.002158       0.000307       0.000000
      0.002267       0.000400       0.000000
      0.002270       0.000356       0.000000
      0.002155       0.000265       0.000000
      0.002267       0.000400       0.000000
      0.002390       0.000514       0.000000
      0.002421       0.000483       0.000000
      0.002270       0.000356       0.000000
      0.002155       0.000265       0.000000
      0.002270       0.000356       0.000000
      0.002206       0.000304       0.000000
      0.002106       0.000221       0.000000
      0.002206       0.000304       0.000000
      0.002270       0.000357       0.000000
      0.002202       0.000332       0.000000
      0.002150       0.000282       0.000000
      0.002270       0.000357       0.000000
      0.002352       0.000423       0.000000
      0.002269       0.000391       0.000000
      0.002202       0.000332       0.000000
      0.002150       0.000282       0.000000
      0.002202       0.000332       0.000000
      0.002124       0.000314       0.000000
      0.002087       0.000266       0.000000
      0.002202       0.000332       0.000000
      0.002269       0.000391       0.000000
      0.002168       0.000371       0.000000
      0.002124       0.000314       0.000000
      0.002270       0.000356       0.000000
      0.002340       0.000414       0.000000
      0.002317       0.000386       0.000000
      0.002246       0.000330       0.000000
      0.002340       0.000414       0.000000
      0.002421       0.000483       0.000000
      0.002402       0.000456       0.000000
      0.002317       0.000386       0.000000
      0.002246       0.000330       0.000000
      0.002317       0.000386       0.000000
      0.002270       0.000357       0.000000
      0.002206       0.000304       0.000000
      0.002317       0.000386       0.000000
      0.002402       0.000456       0.000000
      0.002352       0.000423       0.000000
      0.002270       0.000357       0.000000
      0.000000       0.000000       0.000000
      0.000000       0.000000       0.000000
      0.000568       0.000145       0.000000
      0.000574       0.000143       0.000000
      0.000000       0.000000       0.000000
      0.000000       0.000000       0.000000
      0.000568       0.000118       0.000000
      0.000568       0.000145       0.000000
      0.000574       0.000143       0.000000
      0.000568       0.000145       0.000000
      0.001156       0.000291       0.000000
      0.001134       0.000284       0.000000
      0.000568       0.000145       0.000000
      0.000568       0.000118       0.000000
      0.001189       0.000223       0.000000
      0.001156       0.000291       0.000000
      0.000000       0.000000       0.000000
      0.000000       0.000000       0.000000
      0.000584       0.000079       0.000000
      0.000568       0.000118       0.000000
      0.000000       0.000000       0.000000
      0.000000       0.000000       0.000000
      0.000608       0.000044       0.000000
      0.000584       0.000079       0.000000
      0.000568       0.000118       0.000000
      0.000584       0.000079       0.000000
      0.001246       0.000134       0.000000
      0.001189       0.000223       0.000000
      0.000584       0.000079       0.000000
      0.000608       0.000044       0.000000
      0.001306       0.000067       0.000000
      0.001246       0.000134       0.000000
      0.000000       0.000000       0.000000
      0.000000       0.000000       0.000000
      0.000628       0.000019       0.000000
      0.000608       0.000044       0.000000
      0.000000       0.000000       0.000000
      0.000000       0.000000       0.000000
      0.000636       0.000000       0.000000
      0.000628       0.000019       0.000000
      0.000608       0.000044       0.000000
      0.000628       0.000019       0.000000
      0.001349       0.000026       0.000000
      0.001306       0.000067       0.000000
      0.000628       0.000019       0.000000
      0.000636       0.000000       0.000000
      0.001364       0.000000       0.000000
      0.001349       0.000026       0.000000
      0.001134       0.000284       0.000000
      0.001156       0.000291       0.000000
      0.001768       0.000429       0.000000
      0.001685       0.000413       0.000000
      0.001156       0.000291       0.000000
      0.001189       0.000223       0.000000
      0.001878       0.000289       0.000000
      0.001768       0.000429       0.000000
      0.001685       0.000413       0.000000
      0.001768       0.000429       0.000000
      0.002441       0.000546       0.000000
      0.002200       0.000509       0.000000
      0.001768       0.000429       0.000000
      0.001878       0.000289       0.000000
      0.002728       0.000271       0.000000
      0.002441       0.000546       0.000000
      0.001189       0.000223       0.000000
      0.001246       0.000134       0.000000
      0.002011       0.000147       0.000000
      0.001878       0.000289       0.000000
      0.001246       0.000134       0.000000
      0.001306       0.000067       0.000000
      0.002120       0.000060       0.000000
      0.002011       0.000147       0.000000
      0.001878       0.000289       0.000000
      0.002011       0.000147       0.000000
      0.002956       0.000098       0.000000
      0.002728       0.000271       0.000000
      0.002011       0.000147       0.000000
      0.002120       0.000060       0.000000
      0.003095       0.000022       0.000000
      0.002956       0.000098       0.000000
      0.001306       0.000067       0.000000
      0.001349       0.000026       0.000000
      0.002187       0.000019       0.000000
      0.002120       0.000060       0.000000
      0.001349       0.000026       0.000000
      0.001364       0.000000       0.000000
      0.002209       0.000000       0.000000
      0.002187       0.000019       0.000000
      0.002120       0.000060       0.000000
      0.002187       0.000019       0.000000
      0.003169      -0.000000       0.000000
      0.003095       0.000022       0.000000
      0.002187       0.000019       0.000000
      0.002209       0.000000       0.000000
      0.003192       0.000000       0.000000
      0.003169      -0.000000       0.000000
      0.002728       0.000271       0.000000
      0.002956       0.000098       0.000000
      0.004182       0.000022       0.000000
      0.004029       0.000148       0.000000
      0.002956       0.000098       0.000000
      0.003095       0.000022       0.000000
      0.004255      -0.000018       0.000000
      0.004182       0.000022       0.000000
      0.004029       0.000148       0.000000
      0.004182       0.000022       0.000000
      0.005577       0.000027       0.000000