# vtk DataFile Version 2.0
time_10.vtk
ASCII
DATASET UNSTRUCTURED_GRID
POINTS  1596 float
      0.000000       0.000000       0.000000
      0.083333       0.000000       0.000000
      0.083333       0.083333       0.000000
      0.000000       0.083333       0.000000
      0.083333       0.000000       0.000000
      0.166667       0.000000       0.000000
      0.166667       0.083333       0.000000
      0.083333       0.083333       0.000000
      0.000000       0.083333       0.000000
      0.083333       0.083333       0.000000
      0.083333       0.166667       0.000000
      0.000000       0.166667       0.000000
      0.083333       0.083333       0.000000
      0.166667       0.083333       0.000000
      0.166667       0.166667       0.000000
      0.083333       0.166667       0.000000
      0.166667       0.000000       0.000000
      0.250000       0.000000       0.000000
      0.250000       0.083333       0.000000
      0.166667       0.083333       0.000000
      0.250000       0.000000       0.000000
      0.333333       0.000000       0.000000
      0.333333       0.083333       0.000000
      0.250000       0.083333       0.000000
      0.166667       0.083333       0.000000
      0.250000       0.083333       0.000000
      0.250000       0.166667       0.000000
      0.166667       0.166667       0.000000
      0.250000       0.083333       0.000000
      0.333333       0.083333       0.000000
      0.333333       0.166667       0.000000
      0.250000       0.166667       0.000000
      0.333333       0.000000       0.000000
      0.416667       0.000000       0.000000
      0.416667       0.083333       0.000000
      0.333333       0.083333       0.000000
      0.416667       0.000000       0.000000
      0.500000       0.000000       0.000000
      0.500000       0.083333       0.000000
      0.416667       0.083333       0.000000
      0.333333       0.083333       0.000000
      0.416667       0.083333       0.000000
      0.416667       0.166667       0.000000
      0.333333       0.166667       0.000000
      0.416667       0.083333       0.000000
      0.500000       0.083333       0.000000
      0.500000       0.166667       0.000000
      0.416667       0.166667       0.000000
      0.000000       0.166667       0.000000
      0.083333       0.166667       0.000000
      0.083333       0.250000       0.000000
      0.000000       0.250000       0.000000
      0.083333       0.166667       0.000000
      0.166667       0.166667       0.000000
      0.166667       0.250000       0.000000
      0.083333       0.250000       0.000000
      0.000000       0.250000       0.000000
      0.083333       0.250000       0.000000
      0.083333       0.333333       0.000000
      0.000000       0.333333       0.000000
      0.083333       0.250000       0.000000
      0.166667       0.250000       0.000000
      0.166667       0.333333       0.000000
      0.083333       0.333333       0.000000
      0.166667       0.166667       0.000000
      0.250000       0.166667       0.000000
      0.250000       0.250000       0.000000
      0.166667       0.250000       0.000000
      0.250000       0.166667       0.000000
      0.333333       0.166667       0.000000
      0.333333       0.250000       0.000000
      0.250000       0.250000       0.000000
      0.166667       0.250000       0.000000
      0.250000       0.250000       0.000000
      0.250000       0.333333       0.000000
      0.166667       0.333333       0.000000
      0.250000       0.250000       0.000000
      0.333333       0.250000       0.000000
      0.333333       0.333333       0.000000
      0.250000       0.333333       0.000000
      0.333333       0.166667       0.000000
      0.416667       0.166667       0.000000
      0.416667       0.250000       0.000000
      0.333333       0.250000       0.000000
      0.416667       0.166667       0.000000
      0.500000       0.166667       0.000000
      0.500000       0.250000       0.000000
      0.416667       0.250000       0.000000
      0.333333       0.250000       0.000000
      0.416667       0.250000       0.000000
      0.416667       0.333333       0.000000
      0.333333       0.333333       0.000000
      0.000000       0.333333       0.000000
      0.083333       0.333333       0.000000
      0.083333       0.416667       0.000000
      0.000000       0.416667       0.000000
      0.083333       0.333333       0.000000
      0.166667       0.333333       0.000000
      0.166667       0.416667       0.000000
      0.083333       0.416667       0.000000
      0.000000       0.416667       0.000000
      0.083333       0.416667       0.000000
      0.083333       0.500000       0.000000
      0.000000       0.500000       0.000000
      0.083333       0.416667       0.000000
      0.166667       0.416667       0.000000
      0.166667       0.500000       0.000000
      0.083333       0.500000       0.000000
      0.166667       0.333333       0.000000
      0.250000       0.333333       0.000000
      0.250000       0.416667       0.000000
      0.166667       0.416667       0.000000
      0.250000       0.333333       0.000000
      0.333333       0.333333       0.000000
      0.333333       0.416667       0.000000
      0.250000       0.416667       0.000000
      0.166667       0.416667       0.000000
      0.250000       0.416667       0.000000
      0.250000       0.500000       0.000000
      0.166667       0.500000       0.000000
      0.250000       0.416667       0.000000
      0.333333       0.416667       0.000000
      0.333333       0.500000       0.000000
      0.250000       0.500000       0.000000
      0.333333       0.333333       0.000000
      0.375000       0.333333       0.000000
      0.375000       0.375000       0.000000
      0.333333       0.375000       0.000000
      0.375000       0.333333       0.000000
      0.416667       0.333333       0.000000
      0.416667       0.375000       0.000000
      0.375000       0.375000       0.000000
      0.333333       0.375000       0.000000
      0.375000       0.375000       0.000000
      0.375000       0.416667       0.000000
      0.333333       0.416667       0.000000
      0.375000       0.375000       0.000000
      0.416667       0.375000       0.000000
      0.416667       0.416667       0.000000
      0.375000       0.416667       0.000000
      0.416667       0.333333       0.000000
      0.458333       0.333333       0.000000
      0.458333       0.375000       0.000000
      0.416667       0.375000       0.000000
      0.416667       0.375000       0.000000
      0.458333       0.375000       0.000000
      0.458333       0.416667       0.000000
      0.416667       0.416667       0.000000
      0.333333       0.416667       0.000000
      0.375000       0.416667       0.000000
      0.375000       0.458333       0.000000
      0.333333       0.458333       0.000000
      0.375000       0.416667       0.000000
      0.416667       0.416667       0.000000
      0.416667       0.458333       0.000000
      0.375000       0.458333       0.000000
      0.333333       0.458333       0.000000
      0.375000       0.458333       0.000000
      0.375000       0.500000       0.000000
      0.333333       0.500000       0.000000
      0.375000       0.458333       0.000000
      0.416667       0.458333       0.000000
      0.416667       0.500000       0.000000
      0.375000       0.500000       0.000000
      0.416667       0.416667       0.000000
      0.437500       0.416667       0.000000
      0.437500       0.437500       0.000000
      0.416667       0.437500       0.000000
      0.437500       0.416667       0.000000
      0.458333       0.416667       0.000000
      0.458333       0.437500       0.000000
      0.437500       0.437500       0.000000
      0.416667       0.437500       0.000000
      0.437500       0.437500       0.000000
      0.437500       0.458333       0.000000
      0.416667       0.458333       0.000000
      0.437500       0.437500       0.000000
      0.458333       0.437500       0.000000
      0.458333       0.458333       0.000000
      0.437500       0.458333       0.000000
      0.458333       0.416667       0.000000
      0.479167       0.416667       0.000000
      0.479167       0.437500       0.000000
      0.458333       0.437500       0.000000
      0.458333       0.437500       0.000000
      0.479167       0.437500       0.000000
      0.479167       0.458333       0.000000
      0.458333       0.458333       0.000000
      0.416667       0.458333       0.000000
      0.437500       0.458333       0.000000
      0.437500       0.479167       0.000000
      0.416667       0.479167       0.000000
      0.437500       0.458333       0.000000
      0.458333       0.458333       0.000000
      0.458333       0.479167       0.000000
      0.437500       0.479167       0.000000
      0.416667       0.479167       0.000000
      0.437500       0.479167       0.000000
      0.437500       0.500000       0.000000
      0.416667       0.500000       0.000000
      0.437500       0.479167       0.000000
      0.458333       0.479167       0.000000
      0.458333       0.500000       0.000000
      0.437500       0.500000       0.000000
      0.458333       0.458333       0.000000
      0.468750       0.458333       0.000000
      0.468750       0.468750       0.000000
      0.458333       0.468750       0.000000
      0.468750       0.458333       0.000000
      0.479167       0.458333       0.000000
      0.479167       0.468750       0.000000
      0.468750       0.468750       0.000000
      0.458333       0.468750       0.000000
      0.468750       0.468750       0.000000
      0.468750       0.479167       0.000000
      0.458333       0.479167       0.000000
      0.468750       0.468750       0.000000
      0.479167       0.468750       0.000000
      0.479167       0.479167       0.000000
      0.468750       0.479167       0.000000
[...]
POINT_DATA  1596
VECTORS U float 
      0.000000       0.000000       0.000000
      0.000000       0.000000       0.000000
      0.000351       0.000004       0.000000
      0.000342       0.000000       0.000000
      0.000000       0.000000       0.000000
      0.000000       0.000000       0.000000
      0.000378       0.000010       0.000000
      0.000351       0.000004       0.000000
      0.000342       0.000000       0.000000
      0.000351       0.000004       0.000000
      0.000645      -0.000004       0.000000
      0.000631       0.000000       0.000000
      0.000351       0.000004       0.000000
      0.000378       0.000010       0.000000
      0.000687      -0.000002       0.000000
      0.000645      -0.000004       0.000000
      0.000000       0.000000       0.000000
      0.000000       0.000000       0.000000
      0.000421       0.000025       0.000000
      0.000378       0.000010       0.000000
      0.000000       0.000000       0.000000
      0.000000       0.000000       0.000000
      0.000477       0.000052       0.000000
      0.000421       0.000025       0.000000
      0.000378       0.000010       0.000000
      0.000421       0.000025       0.000000
      0.000759       0.000015       0.000000
      0.000687      -0.000002       0.000000
      0.000421       0.000025       0.000000
      0.000477       0.000052       0.000000
      0.000859       0.000060       0.000000
      0.000759       0.000015       0.000000
      0.000000       0.000000       0.000000
      0.000000       0.000000       0.000000
      0.000534       0.000098       0.000000
      0.000477       0.000052       0.000000
      0.000000       0.000000       0.000000
      0.000000       0.000000       0.000000
      0.000571       0.000155       0.000000
      0.000534       0.000098       0.000000
      0.000477       0.000052       0.000000
      0.000534       0.000098       0.000000
      0.000980       0.000150       0.000000
      0.000859       0.000060       0.000000
      0.000534       0.000098       0.000000
      0.000571       0.000155       0.000000
      0.001093       0.000287       0.000000
      0.000980       0.000150       0.000000
      0.000631       0.000000       0.000000
      0.000645      -0.000004       0.000000
      0.000866      -0.000017       0.000000
      0.000850       0.000000       0.000000
      0.000645      -0.000004       0.000000
      0.000687      -0.000002       0.000000
      0.000913      -0.000028       0.000000
      0.000866      -0.000017       0.000000
      0.000850       0.000000       0.000000
      0.000866      -0.000017       0.000000
      0.001014      -0.000032       0.000000
      0.001001       0.000000       0.000000
      0.000866      -0.000017       0.000000
      0.000913      -0.000028       0.000000
      0.001054      -0.000057       0.000000
      0.001014      -0.000032       0.000000
      0.000687      -0.000002       0.000000
      0.000759       0.000015       0.000000
      0.000995      -0.000021       0.000000
      0.000913      -0.000028       0.000000
      0.000759       0.000015       0.000000
      0.000859       0.000060       0.000000
      0.001120       0.000021       0.000000
      0.000995      -0.000021       0.000000
      0.000913      -0.000028       0.000000
      0.000995      -0.000021       0.000000
      0.001123      -0.000066       0.000000
      0.001054      -0.000057       0.000000
      0.000995      -0.000021       0.000000
      0.001120       0.000021       0.000000
      0.001230      -0.000042       0.000000
      0.001123      -0.000066       0.000000
      0.000859       0.000060       0.000000
      0.000980       0.000150       0.000000
      0.001299       0.000128       0.000000
      0.001120       0.000021       0.000000
      0.000980       0.000150       0.000000
      0.001093       0.000287       0.000000
      0.001539       0.000351       0.000000
      0.001299       0.000128       0.000000
      0.001120       0.000021       0.000000
      0.001299       0.000128       0.000000
      0.001391       0.000041       0.000000
      0.001230      -0.000042       0.000000
      0.001001       0.000000       0.000000
      0.001014      -0.000032       0.000000
      0.001105      -0.000042       0.000000
      0.001097       0.000000       0.000000
      0.001014      -0.000032       0.000000
      0.001054      -0.000057       0.000000
      0.001128      -0.000079       0.000000
      0.001105      -0.000042       0.000000
      0.001097       0.000000       0.000000
      0.001105      -0.000042       0.000000
      0.001159      -0.000047       0.000000
      0.001156       0.000000       0.000000
      0.001105      -0.000042       0.000000
      0.001128      -0.000079       0.000000
      0.001167      -0.000088       0.000000
      0.001159      -0.000047       0.000000
      0.001054      -0.000057       0.000000
      0.001123      -0.000066       0.000000
      0.001167      -0.000099       0.000000
      0.001128      -0.000079       0.000000
      0.001123      -0.000066       0.000000
      0.001230      -0.000042       0.000000
      0.001220      -0.000087       0.000000
      0.001167      -0.000099       0.000000
      0.001128      -0.000079       0.000000
      0.001167      -0.000099       0.000000
      0.001175      -0.000111       0.000000
      0.001167      -0.000088       0.000000
      0.001167      -0.000099       0.000000
      0.001220      -0.000087       0.000000
      0.001173      -0.000098       0.000000
      0.001175      -0.000111       0.000000
      0.001230      -0.000042       0.000000
      0.001302      -0.000011       0.000000
      0.001288      -0.000042       0.000000
      0.001235      -0.000069       0.000000
      0.001302      -0.000011       0.000000
      0.001391       0.000041       0.000000
      0.001349       0.000004       0.000000
      0.001288      -0.000042       0.000000
      0.001235      -0.000069       0.000000
      0.001288      -0.000042       0.000000
      0.001251      -0.000060       0.000000
      0.001220      -0.000087       0.000000
      0.001288      -0.000042       0.000000
      0.001349       0.000004       0.000000
      0.001283      -0.000013       0.000000
      0.001251      -0.000060       0.000000
      0.001391       0.000041       0.000000
      0.001505       0.000121       0.000000
      0.001418       0.000076       0.000000
      0.001349       0.000004       0.000000
      0.001349       0.000004       0.000000
      0.001418       0.000076       0.000000
      0.001310       0.000060       0.000000
      0.001283      -0.000013       0.000000
      0.001220      -0.000087       0.000000
      0.001251      -0.000060       0.000000
      0.001208      -0.000068       0.000000
      0.001196      -0.000096       0.000000
      0.001251      -0.000060       0.000000
      0.001283      -0.000013       0.000000
      0.001217      -0.000018       0.000000
      0.001208      -0.000068       0.000000
      0.001196      -0.000096       0.000000
      0.001208      -0.000068       0.000000
      0.001166      -0.000068       0.000000
      0.001173      -0.000098       0.000000
      0.001208      -0.000068       0.000000
      0.001217      -0.000018       0.000000
      0.001156      -0.000017       0.000000
      0.001166      -0.000068       0.000000
      0.001283      -0.000013       0.000000
      0.001297       0.000020       0.000000
      0.001257       0.000017       0.000000
      0.001249      -0.000017       0.000000
      0.001297       0.000020       0.000000
      0.001310       0.000060       0.000000
      0.001264       0.000059       0.000000
      0.001257       0.000017       0.000000
      0.001249      -0.000017       0.000000
      0.001257       0.000017       0.000000
      0.001221       0.000017       0.000000
      0.001217      -0.000018       0.000000
      0.001257       0.000017       0.000000
      0.001264       0.000059       0.000000
      0.001224       0.000058       0.000000
      0.001221       0.000017       0.000000
      0.001310       0.000060       0.000000
      0.001322       0.000111       0.000000
      0.001270       0.000108       0.000000
      0.001264       0.000059       0.000000
      0.001264       0.000059       0.000000
      0.001270       0.000108       0.000000
      0.001228       0.000106       0.000000
      0.001224       0.000058       0.000000
      0.001217      -0.000018       0.000000
      0.001221       0.000017       0.000000
      0.001187       0.000017       0.000000
      0.001187      -0.000018       0.000000
      0.001221       0.000017       0.000000
      0.001224       0.000058       0.000000
      0.001188       0.000058       0.000000
      0.001187       0.000017       0.000000
      0.001187      -0.000018       0.000000
      0.001187       0.000017       0.000000
      0.001152       0.000018       0.000000
      0.001156      -0.000017       0.000000
      0.001187       0.000017       0.000000
      0.001188       0.000058       0.000000
      0.001150       0.000057       0.000000
      0.001152       0.000018       0.000000
      0.001224       0.000058       0.000000
      0.001226       0.000081       0.000000
      0.001207       0.000080       0.000000
      0.001206       0.000058       0.000000
      0.001226       0.000081       0.000000
      0.001228       0.000106       0.000000
      0.001209       0.000104       0.000000
      0.001207       0.000080       0.000000
      0.001206       0.000058       0.000000
      0.001207       0.000080       0.000000
      0.001189       0.000079       0.000000
      0.001188       0.000058       0.000000
      0.001207       0.000080       0.000000
      0.001209       0.000104       0.000000
      0.001191       0.000102       0.000000
      0.001189       0.000079       0.000000
      0.001228       0.000106       0.000000
      0.001231       0.000132       0.000000
      0.001213       0.000130       0.000000
      0.001209       0.000104       0.000000
      0.001231       0.000132       0.000000
      0.001237       0.000161       0.000000
      0.001220       0.000165       0.000000
      0.001213       0.000130       0.000000
      0.001209       0.000104       0.000000
      0.001213       0.000130       0.000000
      0.001195       0.000126       0.000000
      0.001191       0.000102       0.000000
      0.001213       0.000130       0.000000
      0.001220       0.000165       0.000000
      0.001190       0.000167       0.000000
      0.001195       0.000126       0.000000
      0.001188       0.000058       0.000000
      0.001189       0.000079       0.000000
      0.001171       0.000079       0.000000
      0.001170       0.000057       0.000000
      0.001189       0.000079       0.000000
      0.001191       0.000102       0.000000
      0.001173       0.000100       0.000000
      0.001171       0.000079       0.000000
      0.001170       0.000057       0.000000
      0.001171       0.000079       0.000000
      0.001152       0.000079       0.000000
      0.001150       0.000057       0.000000
      0.001171       0.000079       0.000000
      0.001173       0.000100       0.000000
      0.001158       0.000103       0.000000
      0.001152       0.000079       0.000000
      0.001191       0.000102       0.000000
      0.001195       0.000126       0.000000
      0.001176       0.000118       0.000000
      0.001173       0.000100       0.000000
      0.001195       0.000126       0.000000
      0.001190       0.000167       0.000000
      0.000893       0.000131       0.000000
      0.001176       0.000118       0.000000
      0.001173       0.000100       0.000000
      0.001176       0.000118       0.000000
      0.001208       0.000134       0.000000
      0.001158       0.000103       0.000000
      0.001176       0.000118       0.000000
      0.000893       0.000131       0.000000
      0.008188       0.000784       0.000000
      0.001208       0.000134       0.000000
      0.001270       0.000108       0.000000
      0.001274       0.000137       0.000000
      0.001251       0.000135       0.000000
      0.001248       0.000107       0.000000
      0.001274       0.000137       0.000000
      0.001278       0.000168       0.000000
      0.001256       0.000165       0.000000
      0.001251       0.000135       0.000000
      0.001248       0.000107       0.000000
      0.001251       0.000135       0.000000
      0.001231       0.000132       0.000000
      0.001228       0.000106       0.000000
      0.001251       0.000135       0.000000
      0.001256       0.000165       0.000000
      0.001237       0.000161       0.000000
      0.001231       0.000132       0.000000
      0.001418       0.000076       0.000000
      0.001456       0.000125       0.000000
      0.001385       0.000115       0.000000
      0.001363       0.000065       0.000000
      0.001456       0.000125       0.000000
      0.001497       0.000189       0.000000
      0.001405       0.000179       0.000000
      0.001385       0.000115       0.000000
      0.001363       0.000065       0.000000
      0.001385       0.000115       0.000000
      0.001322       0.000111       0.000000
      0.001310       0.000060       0.000000
      0.001322       0.000111       0.000000
      0.001327       0.000141       0.000000
      0.001299       0.000139       0.000000
      0.001295       0.000110       0.000000
      0.001327       0.000141       0.000000
      0.001332       0.000174       0.000000
      0.001303       0.000171       0.000000
      0.001299       0.000139       0.000000
      0.001295       0.000110       0.000000
      0.001299       0.000139       0.000000
      0.001274       0.000137       0.000000
      0.001270       0.000108       0.000000
      0.001299       0.000139       0.000000
      0.001303       0.000171       0.000000
      0.001278       0.000168       0.000000
      0.001274       0.000137       0.000000
      0.001385       0.000115       0.000000
      0.001395       0.000145       0.000000
      0.001359       0.000142       0.000000
      0.001352       0.000112       0.000000
      0.001395       0.000145       0.000000
      0.001405       0.000179       0.000000
      0.001366       0.000177       0.000000
      0.001359       0.000142       0.000000
      0.001352       0.000112       0.000000
      0.001359       0.000142       0.000000
      0.001327       0.000141       0.000000
      0.001322       0.000111       0.000000
      0.001359       0.000142       0.000000
      0.001366       0.000177       0.000000
      0.001332       0.000174       0.000000
      0.001327       0.000141       0.000000
      0.001299       0.000128       0.000000
      0.001413       0.000222       0.000000
      0.001508       0.000181       0.000000
      0.001378       0.000088       0.000000
      0.001413       0.000222       0.000000
      0.001539       0.000351       0.000000
      0.001675       0.000325       0.000000
      0.001508       0.000181       0.000000
      0.001378       0.000088       0.000000
      0.001508       0.000181       0.000000
      0.001505       0.000121       0.000000
      0.001391       0.000041       0.000000
      0.001508       0.000181       0.000000
      0.001675       0.000325       0.000000
      0.001666       0.000250       0.000000
      0.001505       0.000121       0.000000
      0.001505       0.000121       0.000000
      0.001577       0.000177       0.000000
      0.001525       0.000146       0.000000
      0.001469       0.000094       0.000000
      0.001577       0.000177       0.000000
      0.001666       0.000250       0.000000
      0.001593       0.000213       0.000000
      0.001525       0.000146       0.000000
      0.001469       0.000094       0.000000
      0.001525       0.000146       0.000000
      0.001456       0.000125       0.000000
      0.001418       0.000076       0.000000
      0.001525       0.000146       0.000000
      0.001593       0.000213       0.000000
      0.001497       0.000189       0.000000
      0.001456       0.000125       0.000000
      0.000000       0.000000       0.000000
      0.000000       0.000000       0.000000
      0.000577       0.000190       0.000000
      0.000571       0.000155       0.000000
      0.000000       0.000000       0.000000
      0.000000       0.000000       0.000000
      0.000574       0.000170       0.000000
      0.000577       0.000190       0.000000
      0.000571       0.000155       0.000000
      0.000577       0.000190       0.000000
      0.001157       0.000384       0.000000
      0.001093       0.000287       0.000000
      0.000577       0.000190       0.000000
      0.000574       0.000170       0.000000
      0.001207       0.000324       0.000000
      0.001157       0.000384       0.000000
      0.000000       0.000000       0.000000
      0.000000       0.000000       0.000000
      0.000593       0.000113       0.000000
      0.000574       0.000170       0.000000
      0.000000       0.000000       0.000000
      0.000000       0.000000       0.000000
      0.000629       0.000061       0.000000
      0.000593       0.000113       0.000000
      0.000574       0.000170       0.000000
      0.000593       0.000113       0.000000
      0.001295       0.000191       0.000000
      0.001207       0.000324       0.000000
      0.000593       0.000113       0.000000
      0.000629       0.000061       0.000000
      0.001389       0.000089       0.000000
      0.001295       0.000191       0.000000
      0.000000       0.000000       0.000000
      0.000000       0.000000       0.000000
      0.000660       0.000025       0.000000
      0.000629       0.000061       0.000000
      0.000000       0.000000       0.000000
      0.000000       0.000000       0.000000
      0.000673       0.000000       0.000000
      0.000660       0.000025       0.000000
      0.000629       0.000061       0.000000
      0.000660       0.000025       0.000000
      0.001455       0.000032       0.000000
      0.001389       0.000089       0.000000
      0.000660       0.000025       0.000000
      0.000673       0.000000       0.000000
      0.001478       0.000000       0.000000
      0.001455       0.000032       0.000000
      0.001093       0.000287       0.000000
      0.001157       0.000384       0.000000
      0.001748       0.000584       0.000000
      0.001539       0.000351       0.000000
      0.001157       0.000384       0.000000
      0.001207       0.000324       0.000000
      0.001941       0.000422       0.000000
      0.001748       0.000584       0.000000
      0.001207       0.000324       0.000000
      0.001295       0.000191       0.000000
      0.002166       0.000195       0.000000
      0.001941       0.000422       0.000000
      0.001295       0.000191       0.000000
      0.001389       0.000089       0.000000
      0.002331       0.000071       0.000000
      0.002166       0.000195       0.000000
      0.001941       0.000422       0.000000
      0.002166       0.000195       0.000000
      0.003378       0.000121       0.000000
      0.003092       0.000367       0.000000
      0.002166       0.000195       0.000000
      0.002331       0.000071       0.000000
      0.003525       0.000025       0.000000
      0.003378       0.000121       0.000000
      0.001389       0.000089       0.000000
      0.001455       0.000032       0.000000
      0.002424       0.000020       0.000000
      0.002331       0.000071       0.000000
      0.001455       0.000032       0.000000
      0.001478       0.000000       0.000000
      0.002454       0.000000       0.000000
      0.002424       0.000020       0.000000
      0.002331       0.000071       0.000000
      0.002424       0.000020       0.000000
      0.003597      -0.000002       0.000000