# vtk DataFile Version 2.0
time_10.vtk
ASCII
DATASET UNSTRUCTURED_GRID
POINTS  1620 float
      0.000000       0.000000       0.000000
      0.083333       0.000000       0.000000
      0.083333       0.083333       0.000000
      0.000000       0.083333       0.000000
      0.083333       0.000000       0.000000
      0.166667       0.000000       0.000000
      0.166667       0.083333       0.000000
      0.083333       0.083333       0.000000
      0.000000       0.083333       0.000000
      0.083333       0.083333       0.000000
      0.083333       0.166667       0.000000
      0.000000       0.166667       0.000000
      0.083333       0.083333       0.000000
      0.166667       0.083333       0.000000
      0.166667       0.166667       0.000000
      0.083333       0.166667       0.000000
      0.166667       0.000000       0.000000
      0.250000       0.000000       0.000000
      0.250000       0.083333       0.000000
      0.166667       0.083333       0.000000
      0.250000       0.000000       0.000000
      0.333333       0.000000       0.000000
      0.333333       0.083333       0.000000
      0.250000       0.083333       0.000000
      0.166667       0.083333       0.000000
      0.250000       0.083333       0.000000
      0.250000       0.166667       0.000000
      0.166667       0.166667       0.000000
      0.250000       0.083333       0.000000
      0.333333       0.083333       0.000000
      0.333333       0.166667       0.000000
      0.250000       0.166667       0.000000
      0.333333       0.000000       0.000000
      0.416667       0.000000       0.000000
      0.416667       0.083333       0.000000
      0.333333       0.083333       0.000000
      0.416667       0.000000       0.000000
      0.500000       0.000000       0.000000
      0.500000       0.083333       0.000000
      0.416667       0.083333       0.000000
      0.333333       0.083333       0.000000
      0.416667       0.083333       0.000000
      0.416667       0.166667       0.000000
      0.333333       0.166667       0.000000
      0.416667       0.083333       0.000000
      0.500000       0.083333       0.000000
      0.500000       0.166667       0.000000
      0.416667       0.166667       0.000000
      0.000000       0.166667       0.000000
      0.083333       0.166667       0.000000
      0.083333       0.250000       0.000000
      0.000000       0.250000       0.000000
      0.083333       0.166667       0.000000
      0.166667       0.166667       0.000000
      0.166667       0.250000       0.000000
      0.083333       0.250000       0.000000
      0.000000       0.250000       0.000000
      0.083333       0.250000       0.000000
      0.083333       0.333333       0.000000
      0.000000       0.333333       0.000000
      0.083333       0.250000       0.000000
      0.166667       0.250000       0.000000
      0.166667       0.333333       0.000000
      0.083333       0.333333       0.000000
      0.166667       0.166667       0.000000
      0.250000       0.166667       0.000000
      0.250000       0.250000       0.000000
      0.166667       0.250000       0.000000
      0.250000       0.166667       0.000000
      0.333333       0.166667       0.000000
      0.333333       0.250000       0.000000
      0.250000       0.250000       0.000000
      0.166667       0.250000       0.000000
      0.250000       0.250000       0.000000
      0.250000       0.333333       0.000000
      0.166667       0.333333       0.000000
      0.250000       0.250000       0.000000
      0.333333       0.250000       0.000000
      0.333333       0.333333       0.000000
      0.250000       0.333333       0.000000
      0.333333       0.166667       0.000000
      0.416667       0.166667       0.000000
      0.416667       0.250000       0.000000
      0.333333       0.250000       0.000000
      0.416667       0.166667       0.000000
      0.500000       0.166667       0.000000
      0.500000       0.250000       0.000000
      0.416667       0.250000       0.000000
      0.333333       0.250000       0.000000
      0.416667       0.250000       0.000000
      0.416667       0.333333       0.000000
      0.333333       0.333333       0.000000
      0.000000       0.333333       0.000000
      0.083333       0.333333       0.000000
      0.083333       0.416667       0.000000
      0.000000       0.416667       0.000000
      0.083333       0.333333       0.000000
      0.166667       0.333333       0.000000
      0.166667       0.416667       0.000000
      0.083333       0.416667       0.000000
      0.000000       0.416667       0.000000
      0.083333       0.416667       0.000000
      0.083333       0.500000       0.000000
      0.000000       0.500000       0.000000
      0.083333       0.416667       0.000000
      0.166667       0.416667       0.000000
      0.166667       0.500000       0.000000
      0.083333       0.500000       0.000000
      0.166667       0.333333       0.000000
      0.250000       0.333333       0.000000
      0.250000       0.416667       0.000000
      0.166667       0.416667       0.000000
      0.250000       0.333333       0.000000
      0.333333       0.333333       0.000000
      0.333333       0.416667       0.000000
      0.250000       0.416667       0.000000
      0.166667       0.416667       0.000000
      0.250000       0.416667       0.000000
      0.250000       0.500000       0.000000
      0.166667       0.500000       0.000000
      0.250000       0.416667       0.000000
      0.333333       0.416667       0.000000
      0.333333       0.500000       0.000000
      0.250000       0.500000       0.000000
      0.333333       0.333333       0.000000
      0.375000       0.333333       0.000000
      0.375000       0.375000       0.000000
      0.333333       0.375000       0.000000
      0.375000       0.333333       0.000000
      0.416667       0.333333       0.000000
      0.416667       0.375000       0.000000
      0.375000       0.375000       0.000000
      0.333333       0.375000       0.000000
      0.375000       0.375000       0.000000
      0.375000       0.416667       0.000000
      0.333333       0.416667       0.000000
      0.375000       0.375000       0.000000
      0.416667       0.375000       0.000000
      0.416667       0.416667       0.000000
      0.375000       0.416667       0.000000
      0.416667       0.333333       0.000000
      0.458333       0.333333       0.000000
      0.458333       0.375000       0.000000
      0.416667       0.375000       0.000000
      0.416667       0.375000       0.000000
      0.458333       0.375000       0.000000
      0.458333       0.416667       0.000000
      0.416667       0.416667       0.000000
      0.333333       0.416667       0.000000
      0.375000       0.416667       0.000000
      0.375000       0.458333       0.000000
      0.333333       0.458333       0.000000
      0.375000       0.416667       0.000000
      0.416667       0.416667       0.000000
      0.416667       0.458333       0.000000
      0.375000       0.458333       0.000000
      0.333333       0.458333       0.000000
      0.375000       0.458333       0.000000
      0.375000       0.500000       0.000000
      0.333333       0.500000       0.000000
      0.375000       0.458333       0.000000
      0.416667       0.458333       0.000000
      0.416667       0.500000       0.000000
      0.375000       0.500000       0.000000
      0.416667       0.416667       0.000000
      0.437500       0.416667       0.000000
      0.437500       0.437500       0.000000
      0.416667       0.437500       0.000000
      0.437500       0.416667       0.000000
      0.458333       0.416667       0.000000
      0.458333       0.437500       0.000000
      0.437500       0.437500       0.000000
      0.416667       0.437500       0.000000
      0.437500       0.437500       0.000000
      0.437500       0.458333       0.000000
      0.416667       0.458333       0.000000
      0.437500       0.437500       0.000000
      0.458333       0.437500       0.000000
      0.458333       0.458333       0.000000
      0.437500       0.458333       0.000000
      0.458333       0.416667       0.000000
      0.479167       0.416667       0.000000
      0.479167       0.437500       0.000000
      0.458333       0.437500       0.000000
      0.416667       0.458333       0.000000
      0.437500       0.458333       0.000000
      0.437500       0.479167       0.000000
      0.416667       0.479167       0.000000
      0.437500       0.458333       0.000000
      0.458333       0.458333       0.000000
      0.458333       0.479167       0.000000
      0.437500       0.479167       0.000000
      0.416667       0.479167       0.000000
      0.437500       0.479167       0.000000
      0.437500       0.500000       0.000000
      0.416667       0.500000       0.000000
      0.437500       0.479167       0.000000
      0.458333       0.479167       0.000000
      0.458333       0.500000       0.000000
      0.437500       0.500000       0.000000
      0.458333       0.458333       0.000000
      0.468750       0.458333       0.000000
      0.468750       0.468750       0.000000
      0.458333       0.468750       0.000000
      0.468750       0.458333       0.000000
      0.479167       0.458333       0.000000
      0.479167       0.468750       0.000000
      0.468750       0.468750       0.000000
      0.458333       0.468750       0.000000
      0.468750       0.468750       0.000000
      0.468750       0.479167       0.000000
      0.458333       0.479167       0.000000
      0.468750       0.468750       0.000000
      0.479167       0.468750       0.000000
      0.479167       0.479167       0.000000
      0.468750       0.479167       0.000000
      0.479167       0.458333       0.000000
      0.489583       0.458333       0.000000
      0.489583       0.468750       0.000000
      0.479167       0.468750       0.000000
[...]
POINT_DATA  1620
VECTORS U float 
      0.000000       0.000000       0.000000
      0.000000       0.000000       0.000000
      0.000449       0.000010       0.000000
      0.000442       0.000000       0.000000
      0.000000       0.000000       0.000000
      0.000000       0.000000       0.000000
      0.000470       0.000024       0.000000
      0.000449       0.000010       0.000000
      0.000442       0.000000       0.000000
      0.000449       0.000010       0.000000
      0.000831       0.000011       0.000000
      0.000819       0.000000       0.000000
      0.000449       0.000010       0.000000
      0.000470       0.000024       0.000000
      0.000869       0.000029       0.000000
      0.000831       0.000011       0.000000
      0.000000       0.000000       0.000000
      0.000000       0.000000       0.000000
      0.000502       0.000045       0.000000
      0.000470       0.000024       0.000000
      0.000000       0.000000       0.000000
      0.000000       0.000000       0.000000
      0.000537       0.000075       0.000000
      0.000502       0.000045       0.000000
      0.000470       0.000024       0.000000
      0.000502       0.000045       0.000000
      0.000930       0.000063       0.000000
      0.000869       0.000029       0.000000
      0.000502       0.000045       0.000000
      0.000537       0.000075       0.000000
      0.001005       0.000122       0.000000
      0.000930       0.000063       0.000000
      0.000000       0.000000       0.000000
      0.000000       0.000000       0.000000
      0.000564       0.000113       0.000000
      0.000537       0.000075       0.000000
      0.000000       0.000000       0.000000
      0.000000       0.000000       0.000000
      0.000572       0.000145       0.000000
      0.000564       0.000113       0.000000
      0.000537       0.000075       0.000000
      0.000564       0.000113       0.000000
      0.001080       0.000206       0.000000
      0.001005       0.000122       0.000000
      0.000564       0.000113       0.000000
      0.000572       0.000145       0.000000
      0.001128       0.000287       0.000000
      0.001080       0.000206       0.000000
      0.000819       0.000000       0.000000
      0.000831       0.000011       0.000000
      0.001132       0.000003       0.000000
      0.001115       0.000000       0.000000
      0.000831       0.000011       0.000000
      0.000869       0.000029       0.000000
      0.001181       0.000016       0.000000
      0.001132       0.000003       0.000000
      0.001115       0.000000       0.000000
      0.001132       0.000003       0.000000
      0.001343      -0.000010       0.000000
      0.001327       0.000000       0.000000
      0.001132       0.000003       0.000000
      0.001181       0.000016       0.000000
      0.001395      -0.000011       0.000000
      0.001343      -0.000010       0.000000
      0.000869       0.000029       0.000000
      0.000930       0.000063       0.000000
      0.001266       0.000050       0.000000
      0.001181       0.000016       0.000000
      0.000930       0.000063       0.000000
      0.001005       0.000122       0.000000
      0.001387       0.000123       0.000000
      0.001266       0.000050       0.000000
      0.001181       0.000016       0.000000
      0.001266       0.000050       0.000000
      0.001488       0.000008       0.000000
      0.001395      -0.000011       0.000000
      0.001266       0.000050       0.000000
      0.001387       0.000123       0.000000
      0.001634       0.000068       0.000000
      0.001488       0.000008       0.000000
      0.001005       0.000122       0.000000
      0.001080       0.000206       0.000000
      0.001536       0.000253       0.000000
      0.001387       0.000123       0.000000
      0.001080       0.000206       0.000000
      0.001128       0.000287       0.000000
      0.001671       0.000414       0.000000
      0.001536       0.000253       0.000000
      0.001387       0.000123       0.000000
      0.001536       0.000253       0.000000
      0.001856       0.000212       0.000000
      0.001634       0.000068       0.000000
      0.001327       0.000000       0.000000
      0.001343      -0.000010       0.000000
      0.001471      -0.000024       0.000000
      0.001457       0.000000       0.000000
      0.001343      -0.000010       0.000000
      0.001395      -0.000011       0.000000
      0.001514      -0.000040       0.000000
      0.001471      -0.000024       0.000000
      0.001457       0.000000       0.000000
      0.001471      -0.000024       0.000000
      0.001530      -0.000034       0.000000
      0.001520       0.000000       0.000000
      0.001471      -0.000024       0.000000
      0.001514      -0.000040       0.000000
      0.001560      -0.000061       0.000000
      0.001530      -0.000034       0.000000
      0.001395      -0.000011       0.000000
      0.001488       0.000008       0.000000
      0.001588      -0.000041       0.000000
      0.001514      -0.000040       0.000000
      0.001488       0.000008       0.000000
      0.001634       0.000068       0.000000
      0.001702      -0.000009       0.000000
      0.001588      -0.000041       0.000000
      0.001514      -0.000040       0.000000
      0.001588      -0.000041       0.000000
      0.001606      -0.000073       0.000000
      0.001560      -0.000061       0.000000
      0.001588      -0.000041       0.000000
      0.001702      -0.000009       0.000000
      0.001658      -0.000051       0.000000
      0.001606      -0.000073       0.000000
      0.001634       0.000068       0.000000
      0.001734       0.000126       0.000000
      0.001786       0.000076       0.000000
      0.001689       0.000029       0.000000
      0.001734       0.000126       0.000000
      0.001856       0.000212       0.000000
      0.001911       0.000153       0.000000
      0.001786       0.000076       0.000000
      0.001689       0.000029       0.000000
      0.001786       0.000076       0.000000
      0.001779       0.000029       0.000000
      0.001702      -0.000009       0.000000
      0.001786       0.000076       0.000000
      0.001911       0.000153       0.000000
      0.001874       0.000092       0.000000
      0.001779       0.000029       0.000000
      0.001856       0.000212       0.000000
      0.002004       0.000336       0.000000
      0.002078       0.000275       0.000000
      0.001911       0.000153       0.000000
      0.001911       0.000153       0.000000
      0.002078       0.000275       0.000000
      0.001997       0.000195       0.000000
      0.001874       0.000092       0.000000
      0.001702      -0.000009       0.000000
      0.001779       0.000029       0.000000
      0.001732      -0.000003       0.000000
      0.001685      -0.000036       0.000000
      0.001779       0.000029       0.000000
      0.001874       0.000092       0.000000
      0.001782       0.000056       0.000000
      0.001732      -0.000003       0.000000
      0.001685      -0.000036       0.000000
      0.001732      -0.000003       0.000000
      0.001679      -0.000018       0.000000
      0.001658      -0.000051       0.000000
      0.001732      -0.000003       0.000000
      0.001782       0.000056       0.000000
      0.001689       0.000045       0.000000
      0.001679      -0.000018       0.000000
      0.001874       0.000092       0.000000
      0.001931       0.000137       0.000000
      0.001871       0.000114       0.000000
      0.001831       0.000070       0.000000
      0.001931       0.000137       0.000000
      0.001997       0.000195       0.000000
      0.001914       0.000170       0.000000
      0.001871       0.000114       0.000000
      0.001831       0.000070       0.000000
      0.001871       0.000114       0.000000
      0.001807       0.000100       0.000000
      0.001782       0.000056       0.000000
      0.001871       0.000114       0.000000
      0.001914       0.000170       0.000000
      0.001830       0.000158       0.000000
      0.001807       0.000100       0.000000
      0.001997       0.000195       0.000000
      0.002078       0.000270       0.000000
      0.001961       0.000243       0.000000
      0.001914       0.000170       0.000000
      0.001782       0.000056       0.000000
      0.001807       0.000100       0.000000
      0.001745       0.000094       0.000000
      0.001733       0.000048       0.000000
      0.001807       0.000100       0.000000
      0.001830       0.000158       0.000000
      0.001755       0.000154       0.000000
      0.001745       0.000094       0.000000
      0.001733       0.000048       0.000000
      0.001745       0.000094       0.000000
      0.001690       0.000092       0.000000
      0.001689       0.000045       0.000000
      0.001745       0.000094       0.000000
      0.001755       0.000154       0.000000
      0.001689       0.000152       0.000000
      0.001690       0.000092       0.000000
      0.001830       0.000158       0.000000
      0.001840       0.000193       0.000000
      0.001798       0.000191       0.000000
      0.001791       0.000155       0.000000
      0.001840       0.000193       0.000000
      0.001851       0.000233       0.000000
      0.001805       0.000230       0.000000
      0.001798       0.000191       0.000000
      0.001791       0.000155       0.000000
      0.001798       0.000191       0.000000
      0.001759       0.000189       0.000000
      0.001755       0.000154       0.000000
      0.001798       0.000191       0.000000
      0.001805       0.000230       0.000000
      0.001764       0.000228       0.000000
      0.001759       0.000189       0.000000
      0.001851       0.000233       0.000000
      0.001861       0.000279       0.000000
      0.001813       0.000276       0.000000
      0.001805       0.000230       0.000000
      0.001861       0.000279       0.000000
      0.001874       0.000334       0.000000
      0.001828       0.000335       0.000000
      0.001813       0.000276       0.000000
      0.001805       0.000230       0.000000
      0.001813       0.000276       0.000000
      0.001771       0.000271       0.000000
      0.001764       0.000228       0.000000
      0.001813       0.000276       0.000000
      0.001828       0.000335       0.000000
      0.001776       0.000336       0.000000
      0.001771       0.000271       0.000000
      0.001755       0.000154       0.000000
      0.001759       0.000189       0.000000
      0.001724       0.000188       0.000000
      0.001722       0.000153       0.000000
      0.001759       0.000189       0.000000
      0.001764       0.000228       0.000000
      0.001727       0.000225       0.000000
      0.001724       0.000188       0.000000
      0.001722       0.000153       0.000000
      0.001724       0.000188       0.000000
      0.001690       0.000188       0.000000
      0.001689       0.000152       0.000000
      0.001724       0.000188       0.000000
      0.001727       0.000225       0.000000
      0.001695       0.000227       0.000000
      0.001690       0.000188       0.000000
      0.001764       0.000228       0.000000
      0.001771       0.000271       0.000000
      0.001732       0.000262       0.000000
      0.001727       0.000225       0.000000
      0.001771       0.000271       0.000000
      0.001776       0.000336       0.000000
      0.001514       0.000271       0.000000
      0.001732       0.000262       0.000000
      0.001727       0.000225       0.000000
      0.001732       0.000262       0.000000
      0.001737       0.000275       0.000000
      0.001695       0.000227       0.000000
      0.001732       0.000262       0.000000
      0.001514       0.000271       0.000000
      0.007329       0.000650       0.000000
      0.001737       0.000275       0.000000
      0.001961       0.000243       0.000000
      0.001986       0.000288       0.000000
      0.001919       0.000283       0.000000
      0.001903       0.000236       0.000000
      0.001986       0.000288       0.000000
      0.002014       0.000342       0.000000
      0.001937       0.000338       0.000000
      0.001919       0.000283       0.000000
      0.001903       0.000236       0.000000
      0.001919       0.000283       0.000000
      0.001861       0.000279       0.000000
      0.001851       0.000233       0.000000
      0.001919       0.000283       0.000000
      0.001937       0.000338       0.000000
      0.001874       0.000334       0.000000
      0.001861       0.000279       0.000000
      0.002078       0.000275       0.000000
      0.002186       0.000364       0.000000
      0.002163       0.000316       0.000000
      0.002057       0.000233       0.000000
      0.002057       0.000233       0.000000
      0.002163       0.000316       0.000000
      0.002078       0.000270       0.000000
      0.001997       0.000195       0.000000
      0.002078       0.000270       0.000000
      0.002129       0.000317       0.000000
      0.002058       0.000299       0.000000
      0.002021       0.000254       0.000000
      0.002129       0.000317       0.000000
      0.002192       0.000374       0.000000
      0.002103       0.000353       0.000000
      0.002058       0.000299       0.000000
      0.002021       0.000254       0.000000
      0.002058       0.000299       0.000000
      0.001986       0.000288       0.000000
      0.001961       0.000243       0.000000
      0.002058       0.000299       0.000000
      0.002103       0.000353       0.000000
      0.002014       0.000342       0.000000
      0.001986       0.000288       0.000000
      0.001914       0.000170       0.000000
      0.001937       0.000204       0.000000
      0.001887       0.000197       0.000000
      0.001871       0.000163       0.000000
      0.001937       0.000204       0.000000
      0.001961       0.000243       0.000000
      0.001903       0.000236       0.000000
      0.001887       0.000197       0.000000
      0.001871       0.000163       0.000000
      0.001887       0.000197       0.000000
      0.001840       0.000193       0.000000
      0.001830       0.000158       0.000000
      0.001887       0.000197       0.000000
      0.001903       0.000236       0.000000
      0.001851       0.000233       0.000000
      0.001840       0.000193       0.000000
      0.002163       0.000316       0.000000
      0.002228       0.000370       0.000000
      0.002188       0.000342       0.000000
      0.002127       0.000292       0.000000
      0.002228       0.000370       0.000000
      0.002306       0.000434       0.000000
      0.002263       0.000403       0.000000
      0.002188       0.000342       0.000000
      0.002127       0.000292       0.000000
      0.002188       0.000342       0.000000
      0.002129       0.000317       0.000000
      0.002078       0.000270       0.000000
      0.002188       0.000342       0.000000
      0.002263       0.000403       0.000000
      0.002192       0.000374       0.000000
      0.002129       0.000317       0.000000
      0.001536       0.000253       0.000000
      0.001610       0.000337       0.000000
      0.001831       0.000353       0.000000
      0.001723       0.000246       0.000000
      0.001610       0.000337       0.000000
      0.001671       0.000414       0.000000
      0.001931       0.000466       0.000000
      0.001831       0.000353       0.000000
      0.001723       0.000246       0.000000
      0.001831       0.000353       0.000000
      0.002004       0.000336       0.000000
      0.001856       0.000212       0.000000
      0.001831       0.000353       0.000000
      0.001931       0.000466       0.000000
      0.002164       0.000498       0.000000
      0.002004       0.000336       0.000000
      0.002004       0.000336       0.000000
      0.002085       0.000415       0.000000
      0.002154       0.000397       0.000000
      0.002058       0.000311       0.000000
      0.002085       0.000415       0.000000
      0.002164       0.000498       0.000000
      0.002258       0.000498       0.000000
      0.002154       0.000397       0.000000
      0.002058       0.000311       0.000000
      0.002154       0.000397       0.000000
      0.002186       0.000364       0.000000
      0.002078       0.000275       0.000000
      0.002154       0.000397       0.000000
      0.002258       0.000498       0.000000
      0.002316       0.000479       0.000000
      0.002186       0.000364       0.000000
      0.002186       0.000364       0.000000
      0.002248       0.000418       0.000000
      0.002247       0.000396       0.000000
      0.002182       0.000341       0.000000
      0.002248       0.000418       0.000000
      0.002316       0.000479       0.000000
      0.002322       0.000460       0.000000
      0.002247       0.000396       0.000000
      0.002182       0.000341       0.000000
      0.002247       0.000396       0.000000
      0.002228       0.000370       0.000000
      0.002163       0.000316       0.000000
      0.002247       0.000396       0.000000
      0.002322       0.000460       0.000000
      0.002306       0.000434       0.000000
      0.002228       0.000370       0.000000
      0.000000       0.000000       0.000000
      0.000000       0.000000       0.000000
      0.000567       0.000150       0.000000
      0.000572       0.000145       0.000000
      0.000000       0.000000       0.000000
      0.000000       0.000000       0.000000
      0.000567       0.000123       0.000000
      0.000567       0.000150       0.000000
      0.000572       0.000145       0.000000
      0.000567       0.000150       0.000000
      0.001152       0.000301       0.000000
      0.001128       0.000287       0.000000
      0.000567       0.000150       0.000000
      0.000567       0.000123       0.000000
      0.001187       0.000232       0.000000
      0.001152       0.000301       0.000000
      0.000000       0.000000       0.000000
      0.000000       0.000000       0.000000
      0.000583       0.000082       0.000000
      0.000567       0.000123       0.000000
      0.000000       0.000000       0.000000
      0.000000       0.000000       0.000000
      0.000608       0.000046       0.000000
      0.000583       0.000082       0.000000
      0.000567       0.000123       0.000000
      0.000583       0.000082       0.000000
      0.001246       0.000140       0.000000
      0.001187       0.000232       0.000000
      0.000583       0.000082       0.000000
      0.000608       0.000046       0.000000
      0.001308       0.000070       0.000000
      0.001246       0.000140       0.000000
      0.000000       0.000000       0.000000
      0.000000       0.000000       0.000000
      0.000629       0.000020       0.000000
      0.000608       0.000046       0.000000
      0.000000       0.000000       0.000000
      0.000000       0.000000       0.000000
      0.000637       0.000000       0.000000
      0.000629       0.000020       0.000000
      0.000608       0.000046       0.000000
      0.000629       0.000020       0.000000
      0.001353       0.000027       0.000000
      0.001308       0.000070       0.000000
      0.000629       0.000020       0.000000
      0.000637       0.000000       0.000000
      0.001369       0.000000       0.000000
      0.001353       0.000027       0.000000
      0.001128       0.000287       0.000000
      0.001152       0.000301       0.000000
      0.001761       0.000445       0.000000
      0.001671       0.000414       0.000000
      0.001152       0.000301       0.000000
      0.001187       0.000232       0.000000
      0.001877       0.000301       0.000000
      0.001761       0.000445       0.000000
      0.001761       0.000445       0.000000
      0.001877       0.000301       0.000000
      0.002741       0.000279       0.000000