# vtk DataFile Version 2.0
time_10.vtk
ASCII
DATASET UNSTRUCTURED_GRID
POINTS  1152 float
      0.000000       0.000000       0.000000
      0.083333       0.000000       0.000000
      0.083333       0.083333       0.000000
      0.000000       0.083333       0.000000
      0.083333       0.000000       0.000000
      0.166667       0.000000       0.000000
      0.166667       0.083333       0.000000
      0.083333       0.083333       0.000000
      0.000000       0.083333       0.000000
      0.083333       0.083333       0.000000
      0.083333       0.166667       0.000000
      0.000000       0.166667       0.000000
      0.083333       0.083333       0.000000
      0.166667       0.083333       0.000000
      0.166667       0.166667       0.000000
      0.083333       0.166667       0.000000
      0.166667       0.000000       0.000000
      0.250000       0.000000       0.000000
      0.250000       0.083333       0.000000
      0.166667       0.083333       0.000000
      0.250000       0.000000       0.000000
      0.333333       0.000000       0.000000
      0.333333       0.083333       0.000000
      0.250000       0.083333       0.000000
      0.166667       0.083333       0.000000
      0.250000       0.083333       0.000000
      0.250000       0.166667       0.000000
      0.166667       0.166667       0.000000
      0.250000       0.083333       0.000000
      0.333333       0.083333       0.000000
      0.333333       0.166667       0.000000
      0.250000       0.166667       0.000000
      0.333333       0.000000       0.000000
      0.416667       0.000000       0.000000
      0.416667       0.083333       0.000000
      0.333333       0.083333       0.000000
      0.416667       0.000000       0.000000
      0.500000       0.000000       0.000000
      0.500000       0.083333       0.000000
      0.416667       0.083333       0.000000
      0.333333       0.083333       0.000000
      0.416667       0.083333       0.000000
      0.416667       0.166667       0.000000
      0.333333       0.166667       0.000000
      0.416667       0.083333       0.000000
      0.500000       0.083333       0.000000
      0.500000       0.166667       0.000000
      0.416667       0.166667       0.000000
      0.000000       0.166667       0.000000
      0.083333       0.166667       0.000000
      0.083333       0.250000       0.000000
      0.000000       0.250000       0.000000
      0.083333       0.166667       0.000000
      0.166667       0.166667       0.000000
      0.166667       0.250000       0.000000
      0.083333       0.250000       0.000000
      0.000000       0.250000       0.000000
      0.083333       0.250000       0.000000
      0.083333       0.333333       0.000000
      0.000000       0.333333       0.000000
      0.083333       0.250000       0.000000
      0.166667       0.250000       0.000000
      0.166667       0.333333       0.000000
      0.083333       0.333333       0.000000
      0.166667       0.166667       0.000000
      0.250000       0.166667       0.000000
      0.250000       0.250000       0.000000
      0.166667       0.250000       0.000000
      0.250000       0.166667       0.000000
      0.333333       0.166667       0.000000
      0.333333       0.250000       0.000000
      0.250000       0.250000       0.000000
      0.166667       0.250000       0.000000
      0.250000       0.250000       0.000000
      0.250000       0.333333       0.000000
      0.166667       0.333333       0.000000
      0.250000       0.250000       0.000000
      0.333333       0.250000       0.000000
      0.333333       0.333333       0.000000
      0.250000       0.333333       0.000000
      0.333333       0.166667       0.000000
      0.416667       0.166667       0.000000
      0.416667       0.250000       0.000000
      0.333333       0.250000       0.000000
      0.416667       0.166667       0.000000
      0.500000       0.166667       0.000000
      0.500000       0.250000       0.000000
      0.416667       0.250000       0.000000
      0.333333       0.250000       0.000000
      0.416667       0.250000       0.000000
      0.416667       0.333333       0.000000
      0.333333       0.333333       0.000000
      0.416667       0.250000       0.000000
      0.500000       0.250000       0.000000
      0.500000       0.333333       0.000000
      0.416667       0.333333       0.000000
      0.000000       0.333333       0.000000
      0.083333       0.333333       0.000000
      0.083333       0.416667       0.000000
      0.000000       0.416667       0.000000
      0.083333       0.333333       0.000000
      0.166667       0.333333       0.000000
      0.166667       0.416667       0.000000
      0.083333       0.416667       0.000000
      0.000000       0.416667       0.000000
      0.083333       0.416667       0.000000
      0.083333       0.500000       0.000000
      0.000000       0.500000       0.000000
      0.083333       0.416667       0.000000
      0.166667       0.416667       0.000000
      0.166667       0.500000       0.000000
      0.083333       0.500000       0.000000
      0.166667       0.333333       0.000000
      0.250000       0.333333       0.000000
      0.250000       0.416667       0.000000
      0.166667       0.416667       0.000000
      0.250000       0.333333       0.000000
      0.333333       0.333333       0.000000
      0.333333       0.416667       0.000000
      0.250000       0.416667       0.000000
      0.166667       0.416667       0.000000
      0.250000       0.416667       0.000000
      0.250000       0.500000       0.000000
      0.166667       0.500000       0.000000
      0.250000       0.416667       0.000000
      0.333333       0.416667       0.000000
      0.333333       0.500000       0.000000
      0.250000       0.500000       0.000000
      0.333333       0.333333       0.000000
      0.375000       0.333333       0.000000
      0.375000       0.375000       0.000000
      0.333333       0.375000       0.000000
      0.375000       0.333333       0.000000
      0.416667       0.333333       0.000000
      0.416667       0.375000       0.000000
      0.375000       0.375000       0.000000
      0.333333       0.375000       0.000000
      0.375000       0.375000       0.000000
      0.375000       0.416667       0.000000
      0.333333       0.416667       0.000000
      0.375000       0.375000       0.000000
      0.416667       0.375000       0.000000
      0.416667       0.416667       0.000000
      0.375000       0.416667       0.000000
      0.416667       0.333333       0.000000
      0.458333       0.333333       0.000000
      0.458333       0.375000       0.000000
      0.416667       0.375000       0.000000
      0.458333       0.333333       0.000000
      0.500000       0.333333       0.000000
      0.500000       0.375000       0.000000
      0.458333       0.375000       0.000000
      0.416667       0.375000       0.000000
      0.458333       0.375000       0.000000
      0.458333       0.416667       0.000000
      0.416667       0.416667       0.000000
      0.458333       0.375000       0.000000
      0.500000       0.375000       0.000000
      0.500000       0.416667       0.000000
      0.458333       0.416667       0.000000
      0.333333       0.416667       0.000000
      0.375000       0.416667       0.000000
      0.375000       0.458333       0.000000
      0.333333       0.458333       0.000000
      0.375000       0.416667       0.000000
      0.416667       0.416667       0.000000
      0.416667       0.458333       0.000000
      0.375000       0.458333       0.000000
      0.333333       0.458333       0.000000
      0.375000       0.458333       0.000000
      0.375000       0.500000       0.000000
      0.333333       0.500000       0.000000
      0.375000       0.458333       0.000000
      0.416667       0.458333       0.000000
      0.416667       0.500000       0.000000
      0.375000       0.500000       0.000000
      0.416667       0.416667       0.000000
      0.437500       0.416667       0.000000
      0.437500       0.437500       0.000000
      0.416667       0.437500       0.000000
      0.437500       0.416667       0.000000
      0.458333       0.416667       0.000000
      0.458333       0.437500       0.000000
      0.437500       0.437500       0.000000
      0.416667       0.437500       0.000000
      0.437500       0.437500       0.000000
      0.437500       0.458333       0.000000
      0.416667       0.458333       0.000000
      0.437500       0.437500       0.000000
      0.458333       0.437500       0.000000
      0.458333       0.458333       0.000000
      0.437500       0.458333       0.000000
      0.458333       0.416667       0.000000
      0.479167       0.416667       0.000000
      0.479167       0.437500       0.000000
      0.458333       0.437500       0.000000
      0.479167       0.416667       0.000000
      0.500000       0.416667       0.000000
      0.500000       0.437500       0.000000
      0.479167       0.437500       0.000000
      0.458333       0.437500       0.000000
      0.479167       0.437500       0.000000
      0.479167       0.458333       0.000000
      0.458333       0.458333       0.000000
      0.479167       0.437500       0.000000
      0.500000       0.437500       0.000000
      0.500000       0.458333       0.000000
      0.479167       0.458333       0.000000
      0.416667       0.458333       0.000000
      0.437500       0.458333       0.000000
      0.437500       0.479167       0.000000
      0.416667       0.479167       0.000000
      0.437500       0.458333       0.000000
      0.458333       0.458333       0.000000
      0.458333       0.479167       0.000000
      0.437500       0.479167       0.000000
      0.416667       0.479167       0.000000
      0.437500       0.479167       0.000000
      0.437500       0.500000       0.000000
      0.416667       0.500000       0.000000
[...]
POINT_DATA  1152
VECTORS U float 
      0.000000       0.000000       0.000000
      0.000000       0.000000       0.000000
      0.000511       0.000018       0.000000
      0.000507       0.000000       0.000000
      0.000000       0.000000       0.000000
      0.000000       0.000000       0.000000
      0.000523       0.000037       0.000000
      0.000511       0.000018       0.000000
      0.000507       0.000000       0.000000
      0.000511       0.000018       0.000000
      0.000956       0.000029       0.000000
      0.000947       0.000000       0.000000
      0.000511       0.000018       0.000000
      0.000523       0.000037       0.000000
      0.000981       0.000063       0.000000
      0.000956       0.000029       0.000000
      0.000000       0.000000       0.000000
      0.000000       0.000000       0.000000
      0.000538       0.000060       0.000000
      0.000523       0.000037       0.000000
      0.000000       0.000000       0.000000
      0.000000       0.000000       0.000000
      0.000551       0.000085       0.000000
      0.000538       0.000060       0.000000
      0.000523       0.000037       0.000000
      0.000538       0.000060       0.000000
      0.001017       0.000106       0.000000
      0.000981       0.000063       0.000000
      0.000538       0.000060       0.000000
      0.000551       0.000085       0.000000
      0.001058       0.000158       0.000000
      0.001017       0.000106       0.000000
      0.000000       0.000000       0.000000
      0.000000       0.000000       0.000000
      0.000556       0.000108       0.000000
      0.000551       0.000085       0.000000
      0.000000       0.000000       0.000000
      0.000000       0.000000       0.000000
      0.000553       0.000118       0.000000
      0.000556       0.000108       0.000000
      0.000551       0.000085       0.000000
      0.000556       0.000108       0.000000
      0.001090       0.000210       0.000000
      0.001058       0.000158       0.000000
      0.000556       0.000108       0.000000
      0.000553       0.000118       0.000000
      0.001108       0.000238       0.000000
      0.001090       0.000210       0.000000
      0.000947       0.000000       0.000000
      0.000956       0.000029       0.000000
      0.001319       0.000032       0.000000
      0.001305       0.000000       0.000000
      0.000956       0.000029       0.000000
      0.000981       0.000063       0.000000
      0.001361       0.000071       0.000000
      0.001319       0.000032       0.000000
      0.001305       0.000000       0.000000
      0.001319       0.000032       0.000000
      0.001587       0.000025       0.000000
      0.001569       0.000000       0.000000
      0.001319       0.000032       0.000000
      0.001361       0.000071       0.000000
      0.001644       0.000059       0.000000
      0.001587       0.000025       0.000000
      0.000981       0.000063       0.000000
      0.001017       0.000106       0.000000
      0.001427       0.000126       0.000000
      0.001361       0.000071       0.000000
      0.001017       0.000106       0.000000
      0.001058       0.000158       0.000000
      0.001513       0.000202       0.000000
      0.001427       0.000126       0.000000
      0.001361       0.000071       0.000000
      0.001427       0.000126       0.000000
      0.001742       0.000112       0.000000
      0.001644       0.000059       0.000000
      0.001427       0.000126       0.000000
      0.001513       0.000202       0.000000
      0.001883       0.000197       0.000000
      0.001742       0.000112       0.000000
      0.001058       0.000158       0.000000
      0.001090       0.000210       0.000000
      0.001600       0.000293       0.000000
      0.001513       0.000202       0.000000
      0.001090       0.000210       0.000000
      0.001108       0.000238       0.000000
      0.001665       0.000352       0.000000
      0.001600       0.000293       0.000000
      0.001513       0.000202       0.000000
      0.001600       0.000293       0.000000
      0.002063       0.000329       0.000000
      0.001883       0.000197       0.000000
      0.001600       0.000293       0.000000
      0.001665       0.000352       0.000000
      0.002229       0.000457       0.000000
      0.002063       0.000329       0.000000
      0.001569       0.000000       0.000000
      0.001587       0.000025       0.000000
      0.001750       0.000011       0.000000
      0.001729       0.000000       0.000000
      0.001587       0.000025       0.000000
      0.001644       0.000059       0.000000
      0.001815       0.000030       0.000000
      0.001750       0.000011       0.000000
      0.001729       0.000000       0.000000
      0.001750       0.000011       0.000000
      0.001806      -0.000007       0.000000
      0.001786       0.000000       0.000000
      0.001750       0.000011       0.000000
      0.001815       0.000030       0.000000
      0.001866      -0.000006       0.000000
      0.001806      -0.000007       0.000000
      0.001644       0.000059       0.000000
      0.001742       0.000112       0.000000
      0.001928       0.000066       0.000000
      0.001815       0.000030       0.000000
      0.001742       0.000112       0.000000
      0.001883       0.000197       0.000000
      0.002103       0.000131       0.000000
      0.001928       0.000066       0.000000
      0.001815       0.000030       0.000000
      0.001928       0.000066       0.000000
      0.001972       0.000008       0.000000
      0.001866      -0.000006       0.000000
      0.001928       0.000066       0.000000
      0.002103       0.000131       0.000000
      0.002132       0.000044       0.000000
      0.001972       0.000008       0.000000
      0.001883       0.000197       0.000000
      0.001970       0.000257       0.000000
      0.002124       0.000231       0.000000
      0.002016       0.000171       0.000000
      0.001970       0.000257       0.000000
      0.002063       0.000329       0.000000
      0.002251       0.000312       0.000000
      0.002124       0.000231       0.000000
      0.002016       0.000171       0.000000
      0.002124       0.000231       0.000000
      0.002223       0.000183       0.000000
      0.002103       0.000131       0.000000
      0.002124       0.000231       0.000000
      0.002251       0.000312       0.000000
      0.002374       0.000259       0.000000
      0.002223       0.000183       0.000000
      0.002063       0.000329       0.000000
      0.002152       0.000406       0.000000
      0.002388       0.000417       0.000000
      0.002251       0.000312       0.000000
      0.002152       0.000406       0.000000
      0.002229       0.000457       0.000000
      0.002513       0.000505       0.000000
      0.002388       0.000417       0.000000
      0.002251       0.000312       0.000000
      0.002388       0.000417       0.000000
      0.002571       0.000384       0.000000
      0.002374       0.000259       0.000000
      0.002388       0.000417       0.000000
      0.002513       0.000505       0.000000
      0.002791       0.000547       0.000000
      0.002571       0.000384       0.000000
      0.002103       0.000131       0.000000
      0.002223       0.000183       0.000000
      0.002254       0.000125       0.000000
      0.002139       0.000087       0.000000
      0.002223       0.000183       0.000000
      0.002374       0.000259       0.000000
      0.002397       0.000182       0.000000
      0.002254       0.000125       0.000000
      0.002139       0.000087       0.000000
      0.002254       0.000125       0.000000
      0.002233       0.000075       0.000000
      0.002132       0.000044       0.000000
      0.002254       0.000125       0.000000
      0.002397       0.000182       0.000000
      0.002344       0.000121       0.000000
      0.002233       0.000075       0.000000
      0.002374       0.000259       0.000000
      0.002467       0.000314       0.000000
      0.002496       0.000271       0.000000
      0.002399       0.000221       0.000000
      0.002467       0.000314       0.000000
      0.002571       0.000384       0.000000
      0.002613       0.000342       0.000000
      0.002496       0.000271       0.000000
      0.002399       0.000221       0.000000
      0.002496       0.000271       0.000000
      0.002486       0.000223       0.000000
      0.002397       0.000182       0.000000
      0.002496       0.000271       0.000000
      0.002613       0.000342       0.000000
      0.002599       0.000284       0.000000
      0.002486       0.000223       0.000000
      0.002571       0.000384       0.000000
      0.002682       0.000470       0.000000
      0.002757       0.000444       0.000000
      0.002613       0.000342       0.000000
      0.002682       0.000470       0.000000
      0.002791       0.000547       0.000000
      0.002920       0.000560       0.000000
      0.002757       0.000444       0.000000
      0.002613       0.000342       0.000000
      0.002757       0.000444       0.000000
      0.002761       0.000386       0.000000
      0.002599       0.000284       0.000000
      0.002757       0.000444       0.000000
      0.002920       0.000560       0.000000
      0.003023       0.000556       0.000000
      0.002761       0.000386       0.000000
      0.002397       0.000182       0.000000
      0.002486       0.000223       0.000000
      0.002445       0.000182       0.000000
      0.002374       0.000148       0.000000
      0.002486       0.000223       0.000000
      0.002599       0.000284       0.000000
      0.002527       0.000229       0.000000
      0.002445       0.000182       0.000000
      0.002374       0.000148       0.000000
      0.002445       0.000182       0.000000
      0.002400       0.000153       0.000000
      0.002344       0.000121       0.000000
      0.002445       0.000182       0.000000
      0.002527       0.000229       0.000000
      0.002452       0.000199       0.000000
      0.002400       0.000153       0.000000
      0.002599       0.000284       0.000000
      0.002671       0.000328       0.000000
      0.002633       0.000292       0.000000
      0.002568       0.000254       0.000000
      0.002671       0.000328       0.000000
      0.002761       0.000386       0.000000
      0.002717       0.000345       0.000000
      0.002633       0.000292       0.000000
      0.002568       0.000254       0.000000
      0.002633       0.000292       0.000000
      0.002577       0.000262       0.000000
      0.002527       0.000229       0.000000
      0.002633       0.000292       0.000000
      0.002717       0.000345       0.000000
      0.002641       0.000306       0.000000
      0.002577       0.000262       0.000000
      0.002761       0.000386       0.000000
      0.002877       0.000464       0.000000
      0.002841       0.000421       0.000000
      0.002717       0.000345       0.000000
      0.002877       0.000464       0.000000
      0.003023       0.000556       0.000000
      0.003043       0.000534       0.000000
      0.002841       0.000421       0.000000
      0.002717       0.000345       0.000000
      0.002841       0.000421       0.000000
      0.002742       0.000369       0.000000
      0.002641       0.000306       0.000000
      0.002841       0.000421       0.000000
      0.003043       0.000534       0.000000
      0.002986       0.000477       0.000000
      0.002742       0.000369       0.000000
      0.002527       0.000229       0.000000
      0.002577       0.000262       0.000000
      0.002519       0.000242       0.000000
      0.002485       0.000211       0.000000
      0.002577       0.000262       0.000000
      0.002641       0.000306       0.000000
      0.002557       0.000281       0.000000
      0.002519       0.000242       0.000000
      0.002485       0.000211       0.000000
      0.002519       0.000242       0.000000
      0.002475       0.000230       0.000000
      0.002452       0.000199       0.000000
      0.002519       0.000242       0.000000
      0.002557       0.000281       0.000000
      0.002499       0.000271       0.000000
      0.002475       0.000230       0.000000
      0.002641       0.000306       0.000000
      0.002742       0.000369       0.000000
      0.002608       0.000331       0.000000
      0.002557       0.000281       0.000000
      0.002742       0.000369       0.000000
      0.002986       0.000477       0.000000
      0.002715       0.000341       0.000000
      0.002608       0.000331       0.000000
      0.002557       0.000281       0.000000
      0.002608       0.000331       0.000000
      0.002545       0.000330       0.000000
      0.002499       0.000271       0.000000
      0.002608       0.000331       0.000000
      0.002715       0.000341       0.000000
      0.006184       0.000448       0.000000
      0.002545       0.000330       0.000000
      0.000000       0.000000       0.000000
      0.000000       0.000000       0.000000
      0.000549       0.000110       0.000000
      0.000553       0.000118       0.000000
      0.000000       0.000000       0.000000
      0.000000       0.000000       0.000000
      0.000552       0.000085       0.000000
      0.000549       0.000110       0.000000
      0.000553       0.000118       0.000000
      0.000549       0.000110       0.000000
      0.001121       0.000217       0.000000
      0.001108       0.000238       0.000000
      0.000549       0.000110       0.000000
      0.000552       0.000085       0.000000
      0.001149       0.000158       0.000000
      0.001121       0.000217       0.000000
      0.000000       0.000000       0.000000
      0.000000       0.000000       0.000000
      0.000566       0.000056       0.000000
      0.000552       0.000085       0.000000
      0.000000       0.000000       0.000000
      0.000000       0.000000       0.000000
      0.000585       0.000032       0.000000
      0.000566       0.000056       0.000000
      0.000552       0.000085       0.000000
      0.000566       0.000056       0.000000
      0.001192       0.000095       0.000000
      0.001149       0.000158       0.000000
      0.000566       0.000056       0.000000
      0.000585       0.000032       0.000000
      0.001235       0.000049       0.000000
      0.001192       0.000095       0.000000
      0.000000       0.000000       0.000000
      0.000000       0.000000       0.000000
      0.000600       0.000014       0.000000
      0.000585       0.000032       0.000000
      0.000000       0.000000       0.000000
      0.000000       0.000000       0.000000
      0.000605       0.000000       0.000000
      0.000600       0.000014       0.000000
      0.000585       0.000032       0.000000
      0.000600       0.000014       0.000000
      0.001265       0.000019       0.000000
      0.001235       0.000049       0.000000
      0.000600       0.000014       0.000000
      0.000605       0.000000       0.000000
      0.001276       0.000000       0.000000
      0.001265       0.000019       0.000000
      0.001108       0.000238       0.000000
      0.001121       0.000217       0.000000
      0.001721       0.000312       0.000000
      0.001665       0.000352       0.000000
      0.001121       0.000217       0.000000
      0.001149       0.000158       0.000000
      0.001800       0.000204       0.000000
      0.001721       0.000312       0.000000
      0.001665       0.000352       0.000000
      0.001721       0.000312       0.000000
      0.002370       0.000379       0.000000
      0.002229       0.000457       0.000000
      0.001721       0.000312       0.000000
      0.001800       0.000204       0.000000
      0.002549       0.000195       0.000000
      0.002370       0.000379       0.000000
      0.001149       0.000158       0.000000
      0.001192       0.000095       0.000000
      0.001891       0.000105       0.000000
      0.001800       0.000204       0.000000
      0.001192       0.000095       0.000000
      0.001235       0.000049       0.000000
      0.001967       0.000045       0.000000
      0.001891       0.000105       0.000000
      0.001800       0.000204       0.000000
      0.001891       0.000105       0.000000
      0.002704       0.000073       0.000000
      0.002549       0.000195       0.000000
      0.001891       0.000105       0.000000
      0.001967       0.000045       0.000000
      0.002808       0.000017       0.000000
      0.002704       0.000073       0.000000
      0.001235       0.000049       0.000000
      0.001265       0.000019       0.000000
      0.002015       0.000015       0.000000
      0.001967       0.000045       0.000000
      0.001265       0.000019       0.000000
      0.001276       0.000000       0.000000
      0.002032       0.000000       0.000000
      0.002015       0.000015       0.000000
      0.001967       0.000045       0.000000
      0.002015       0.000015       0.000000
      0.002866      -0.000000       0.000000
      0.002808       0.000017       0.000000
      0.002015       0.000015       0.000000
      0.002032       0.000000       0.000000
      0.002884       0.000000       0.000000
      0.002866      -0.000000       0.000000
      0.002549       0.000195       0.000000
      0.002704       0.000073       0.000000
      0.003698       0.000009       0.000000
      0.003537       0.000106       0.000000
      0.002704       0.000073       0.000000
      0.002808       0.000017       0.000000
      0.003780      -0.000020       0.000000
      0.003698       0.000009       0.000000
      0.003537       0.000106       0.000000
      0.003698       0.000009       0.000000
      0.004862      -0.000019       0.000000
      0.004896       0.000045       0.000000
      0.003698       0.000009       0.000000
      0.003780      -0.000020       0.000000
      0.004846      -0.000034       0.000000
      0.004862      -0.000019       0.000000
      0.002808       0.000017       0.000000
      0.002866      -0.000000       0.000000
      0.003819      -0.000017       0.000000
      0.003780      -0.000020       0.000000
      0.002866      -0.000000       0.000000
      0.002884       0.000000       0.000000
      0.003831       0.000000       0.000000
      0.003819      -0.000017       0.000000
      0.003780      -0.000020       0.000000
      0.003819      -0.000017       0.000000
      0.004839      -0.000023       0.000000
      0.004846      -0.000034       0.000000
      0.003819      -0.000017       0.000000
      0.003831       0.000000       0.000000
      0.004837       0.000000       0.000000
      0.004839      -0.000023       0.000000
      0.002229       0.000457       0.000000
      0.002296       0.000448       0.000000
      0.002621       0.000495       0.000000
      0.002513       0.000505       0.000000
      0.002296       0.000448       0.000000
      0.002370       0.000379       0.000000
      0.002744       0.000386       0.000000
      0.002621       0.000495       0.000000
      0.002513       0.000505       0.000000
      0.002621       0.000495       0.000000
      0.002996       0.000528       0.000000
      0.002791       0.000547       0.000000
      0.002621       0.000495       0.000000
      0.002744       0.000386       0.000000
      0.003216       0.000352       0.000000
      0.002996       0.000528       0.000000
      0.002370       0.000379       0.000000
      0.002458       0.000284       0.000000
      0.002877       0.000261       0.000000
      0.002744       0.000386       0.000000
      0.002458       0.000284       0.000000
      0.002549       0.000195       0.000000
      0.002999       0.000160       0.000000
      0.002877       0.000261       0.000000
      0.002744       0.000386       0.000000
      0.002877       0.000261       0.000000
      0.003402       0.000203       0.000000