# vtk DataFile Version 2.0
time_10.vtk
ASCII
DATASET UNSTRUCTURED_GRID
POINTS  1248 float
      0.000000       0.000000       0.000000
      0.083333       0.000000       0.000000
      0.083333       0.083333       0.000000
      0.000000       0.083333       0.000000
      0.083333       0.000000       0.000000
      0.166667       0.000000       0.000000
      0.166667       0.083333       0.000000
      0.083333       0.083333       0.000000
      0.000000       0.083333       0.000000
      0.083333       0.083333       0.000000
      0.083333       0.166667       0.000000
      0.000000       0.166667       0.000000
      0.083333       0.083333       0.000000
      0.166667       0.083333       0.000000
      0.166667       0.166667       0.000000
      0.083333       0.166667       0.000000
      0.166667       0.000000       0.000000
      0.250000       0.000000       0.000000
      0.250000       0.083333       0.000000
      0.166667       0.083333       0.000000
      0.250000       0.000000       0.000000
      0.333333       0.000000       0.000000
      0.333333       0.083333       0.000000
      0.250000       0.083333       0.000000
      0.166667       0.083333       0.000000
      0.250000       0.083333       0.000000
      0.250000       0.166667       0.000000
      0.166667       0.166667       0.000000
      0.250000       0.083333       0.000000
      0.333333       0.083333       0.000000
      0.333333       0.166667       0.000000
      0.250000       0.166667       0.000000
      0.333333       0.000000       0.000000
      0.416667       0.000000       0.000000
      0.416667       0.083333       0.000000
      0.333333       0.083333       0.000000
      0.416667       0.000000       0.000000
      0.500000       0.000000       0.000000
      0.500000       0.083333       0.000000
      0.416667       0.083333       0.000000
      0.333333       0.083333       0.000000
      0.416667       0.083333       0.000000
      0.416667       0.166667       0.000000
      0.333333       0.166667       0.000000
      0.416667       0.083333       0.000000
      0.500000       0.083333       0.000000
      0.500000       0.166667       0.000000
      0.416667       0.166667       0.000000
      0.000000       0.166667       0.000000
      0.083333       0.166667       0.000000
      0.083333       0.250000       0.000000
      0.000000       0.250000       0.000000
      0.083333       0.166667       0.000000
      0.166667       0.166667       0.000000
      0.166667       0.250000       0.000000
      0.083333       0.250000       0.000000
      0.000000       0.250000       0.000000
      0.083333       0.250000       0.000000
      0.083333       0.333333       0.000000
      0.000000       0.333333       0.000000
      0.083333       0.250000       0.000000
      0.166667       0.250000       0.000000
      0.166667       0.333333       0.000000
      0.083333       0.333333       0.000000
      0.166667       0.166667       0.000000
      0.250000       0.166667       0.000000
      0.250000       0.250000       0.000000
      0.166667       0.250000       0.000000
      0.250000       0.166667       0.000000
      0.333333       0.166667       0.000000
      0.333333       0.250000       0.000000
      0.250000       0.250000       0.000000
      0.166667       0.250000       0.000000
      0.250000       0.250000       0.000000
      0.250000       0.333333       0.000000
      0.166667       0.333333       0.000000
      0.250000       0.250000       0.000000
      0.333333       0.250000       0.000000
      0.333333       0.333333       0.000000
      0.250000       0.333333       0.000000
      0.333333       0.166667       0.000000
      0.416667       0.166667       0.000000
      0.416667       0.250000       0.000000
      0.333333       0.250000       0.000000
      0.416667       0.166667       0.000000
      0.500000       0.166667       0.000000
      0.500000       0.250000       0.000000
      0.416667       0.250000       0.000000
      0.333333       0.250000       0.000000
      0.416667       0.250000       0.000000
      0.416667       0.333333       0.000000
      0.333333       0.333333       0.000000
      0.416667       0.250000       0.000000
      0.500000       0.250000       0.000000
      0.500000       0.333333       0.000000
      0.416667       0.333333       0.000000
      0.000000       0.333333       0.000000
      0.083333       0.333333       0.000000
      0.083333       0.416667       0.000000
      0.000000       0.416667       0.000000
      0.083333       0.333333       0.000000
      0.166667       0.333333       0.000000
      0.166667       0.416667       0.000000
      0.083333       0.416667       0.000000
      0.000000       0.416667       0.000000
      0.083333       0.416667       0.000000
      0.083333       0.500000       0.000000
      0.000000       0.500000       0.000000
      0.083333       0.416667       0.000000
      0.166667       0.416667       0.000000
      0.166667       0.500000       0.000000
      0.083333       0.500000       0.000000
      0.166667       0.333333       0.000000
      0.250000       0.333333       0.000000
      0.250000       0.416667       0.000000
      0.166667       0.416667       0.000000
      0.250000       0.333333       0.000000
      0.333333       0.333333       0.000000
      0.333333       0.416667       0.000000
      0.250000       0.416667       0.000000
      0.166667       0.416667       0.000000
      0.250000       0.416667       0.000000
      0.250000       0.500000       0.000000
      0.166667       0.500000       0.000000
      0.250000       0.416667       0.000000
      0.333333       0.416667       0.000000
      0.333333       0.500000       0.000000
      0.250000       0.500000       0.000000
      0.333333       0.333333       0.000000
      0.375000       0.333333       0.000000
      0.375000       0.375000       0.000000
      0.333333       0.375000       0.000000
      0.375000       0.333333       0.000000
      0.416667       0.333333       0.000000
      0.416667       0.375000       0.000000
      0.375000       0.375000       0.000000
      0.333333       0.375000       0.000000
      0.375000       0.375000       0.000000
      0.375000       0.416667       0.000000
      0.333333       0.416667       0.000000
      0.375000       0.375000       0.000000
      0.416667       0.375000       0.000000
      0.416667       0.416667       0.000000
      0.375000       0.416667       0.000000
      0.416667       0.333333       0.000000
      0.458333       0.333333       0.000000
      0.458333       0.375000       0.000000
      0.416667       0.375000       0.000000
      0.458333       0.333333       0.000000
      0.500000       0.333333       0.000000
      0.500000       0.375000       0.000000
      0.458333       0.375000       0.000000
      0.416667       0.375000       0.000000
      0.458333       0.375000       0.000000
      0.458333       0.416667       0.000000
      0.416667       0.416667       0.000000
      0.333333       0.416667       0.000000
      0.375000       0.416667       0.000000
      0.375000       0.458333       0.000000
      0.333333       0.458333       0.000000
      0.375000       0.416667       0.000000
      0.416667       0.416667       0.000000
      0.416667       0.458333       0.000000
      0.375000       0.458333       0.000000
      0.333333       0.458333       0.000000
      0.375000       0.458333       0.000000
      0.375000       0.500000       0.000000
      0.333333       0.500000       0.000000
      0.375000       0.458333       0.000000
      0.416667       0.458333       0.000000
      0.416667       0.500000       0.000000
      0.375000       0.500000       0.000000
      0.416667       0.416667       0.000000
      0.437500       0.416667       0.000000
      0.437500       0.437500       0.000000
      0.416667       0.437500       0.000000
      0.437500       0.416667       0.000000
      0.458333       0.416667       0.000000
      0.458333       0.437500       0.000000
      0.437500       0.437500       0.000000
      0.416667       0.437500       0.000000
      0.437500       0.437500       0.000000
      0.437500       0.458333       0.000000
      0.416667       0.458333       0.000000
      0.437500       0.437500       0.000000
      0.458333       0.437500       0.000000
      0.458333       0.458333       0.000000
      0.437500       0.458333       0.000000
      0.458333       0.416667       0.000000
      0.479167       0.416667       0.000000
      0.479167       0.437500       0.000000
      0.458333       0.437500       0.000000
      0.458333       0.437500       0.000000
      0.479167       0.437500       0.000000
      0.479167       0.458333       0.000000
      0.458333       0.458333       0.000000
      0.416667       0.458333       0.000000
      0.437500       0.458333       0.000000
      0.437500       0.479167       0.000000
      0.416667       0.479167       0.000000
      0.437500       0.458333       0.000000
      0.458333       0.458333       0.000000
      0.458333       0.479167       0.000000
      0.437500       0.479167       0.000000
      0.416667       0.479167       0.000000
      0.437500       0.479167       0.000000
      0.437500       0.500000       0.000000
      0.416667       0.500000       0.000000
      0.437500       0.479167       0.000000
      0.458333       0.479167       0.000000
      0.458333       0.500000       0.000000
      0.437500       0.500000       0.000000
      0.458333       0.458333       0.000000
      0.468750       0.458333       0.000000
      0.468750       0.468750       0.000000
      0.458333       0.468750       0.000000
      0.468750       0.458333       0.000000
      0.479167       0.458333       0.000000
      0.479167       0.468750       0.000000
      0.468750       0.468750       0.000000
[...]
POINT_DATA  1248
VECTORS U float 
      0.000000       0.000000       0.000000
      0.000000       0.000000       0.000000
      0.000489       0.000014       0.000000
      0.000483       0.000000       0.000000
      0.000000       0.000000       0.000000
      0.000000       0.000000       0.000000
      0.000506       0.000031       0.000000
      0.000489       0.000014       0.000000
      0.000483       0.000000       0.000000
      0.000489       0.000014       0.000000
      0.000909       0.000020       0.000000
      0.000898       0.000000       0.000000
      0.000489       0.000014       0.000000
      0.000506       0.000031       0.000000
      0.000942       0.000046       0.000000
      0.000909       0.000020       0.000000
      0.000000       0.000000       0.000000
      0.000000       0.000000       0.000000
      0.000530       0.000054       0.000000
      0.000506       0.000031       0.000000
      0.000000       0.000000       0.000000
      0.000000       0.000000       0.000000
      0.000554       0.000082       0.000000
      0.000530       0.000054       0.000000
      0.000506       0.000031       0.000000
      0.000530       0.000054       0.000000
      0.000992       0.000086       0.000000
      0.000942       0.000046       0.000000
      0.000530       0.000054       0.000000
      0.000554       0.000082       0.000000
      0.001052       0.000144       0.000000
      0.000992       0.000086       0.000000
      0.000000       0.000000       0.000000
      0.000000       0.000000       0.000000
      0.000569       0.000113       0.000000
      0.000554       0.000082       0.000000
      0.000000       0.000000       0.000000
      0.000000       0.000000       0.000000
      0.000571       0.000134       0.000000
      0.000569       0.000113       0.000000
      0.000554       0.000082       0.000000
      0.000569       0.000113       0.000000
      0.001104       0.000215       0.000000
      0.001052       0.000144       0.000000
      0.000569       0.000113       0.000000
      0.000571       0.000134       0.000000
      0.001135       0.000269       0.000000
      0.001104       0.000215       0.000000
      0.000898       0.000000       0.000000
      0.000909       0.000020       0.000000
      0.001247       0.000017       0.000000
      0.001231       0.000000       0.000000
      0.000909       0.000020       0.000000
      0.000942       0.000046       0.000000
      0.001294       0.000042       0.000000
      0.001247       0.000017       0.000000
      0.001231       0.000000       0.000000
      0.001247       0.000017       0.000000
      0.001490       0.000006       0.000000
      0.001472       0.000000       0.000000
      0.001247       0.000017       0.000000
      0.001294       0.000042       0.000000
      0.001546       0.000021       0.000000
      0.001490       0.000006       0.000000
      0.000942       0.000046       0.000000
      0.000992       0.000086       0.000000
      0.001373       0.000088       0.000000
      0.001294       0.000042       0.000000
      0.000992       0.000086       0.000000
      0.001052       0.000144       0.000000
      0.001480       0.000167       0.000000
      0.001373       0.000088       0.000000
      0.001294       0.000042       0.000000
      0.001373       0.000088       0.000000
      0.001644       0.000057       0.000000
      0.001546       0.000021       0.000000
      0.001373       0.000088       0.000000
      0.001480       0.000167       0.000000
      0.001795       0.000133       0.000000
      0.001644       0.000057       0.000000
      0.001052       0.000144       0.000000
      0.001104       0.000215       0.000000
      0.001600       0.000285       0.000000
      0.001480       0.000167       0.000000
      0.001104       0.000215       0.000000
      0.001135       0.000269       0.000000
      0.001696       0.000396       0.000000
      0.001600       0.000285       0.000000
      0.001480       0.000167       0.000000
      0.001600       0.000285       0.000000
      0.002010       0.000285       0.000000
      0.001795       0.000133       0.000000
      0.001600       0.000285       0.000000
      0.001696       0.000396       0.000000
      0.002245       0.000509       0.000000
      0.002010       0.000285       0.000000
      0.001472       0.000000       0.000000
      0.001490       0.000006       0.000000
      0.001637      -0.000008       0.000000
      0.001620       0.000000       0.000000
      0.001490       0.000006       0.000000
      0.001546       0.000021       0.000000
      0.001691      -0.000009       0.000000
      0.001637      -0.000008       0.000000
      0.001620       0.000000       0.000000
      0.001637      -0.000008       0.000000
      0.001697      -0.000022       0.000000
      0.001682       0.000000       0.000000
      0.001637      -0.000008       0.000000
      0.001691      -0.000009       0.000000
      0.001741      -0.000038       0.000000
      0.001697      -0.000022       0.000000
      0.001546       0.000021       0.000000
      0.001644       0.000057       0.000000
      0.001786       0.000006       0.000000
      0.001691      -0.000009       0.000000
      0.001644       0.000057       0.000000
      0.001795       0.000133       0.000000
      0.001933       0.000052       0.000000
      0.001786       0.000006       0.000000
      0.001691      -0.000009       0.000000
      0.001786       0.000006       0.000000
      0.001816      -0.000039       0.000000
      0.001741      -0.000038       0.000000
      0.001786       0.000006       0.000000
      0.001933       0.000052       0.000000
      0.001915      -0.000013       0.000000
      0.001816      -0.000039       0.000000
      0.001795       0.000133       0.000000
      0.001895       0.000197       0.000000
      0.001998       0.000152       0.000000
      0.001889       0.000095       0.000000
      0.001895       0.000197       0.000000
      0.002010       0.000285       0.000000
      0.002137       0.000240       0.000000
      0.001998       0.000152       0.000000
      0.001889       0.000095       0.000000
      0.001998       0.000152       0.000000
      0.002035       0.000097       0.000000
      0.001933       0.000052       0.000000
      0.001998       0.000152       0.000000
      0.002137       0.000240       0.000000
      0.002169       0.000170       0.000000
      0.002035       0.000097       0.000000
      0.002010       0.000285       0.000000
      0.002133       0.000399       0.000000
      0.002309       0.000375       0.000000
      0.002137       0.000240       0.000000
      0.002133       0.000399       0.000000
      0.002245       0.000509       0.000000
      0.002496       0.000549       0.000000
      0.002309       0.000375       0.000000
      0.002137       0.000240       0.000000
      0.002309       0.000375       0.000000
      0.002357       0.000297       0.000000
      0.002169       0.000170       0.000000
      0.001933       0.000052       0.000000
      0.002035       0.000097       0.000000
      0.002013       0.000049       0.000000
      0.001935       0.000015       0.000000
      0.002035       0.000097       0.000000
      0.002169       0.000170       0.000000
      0.002104       0.000106       0.000000
      0.002013       0.000049       0.000000
      0.001935       0.000015       0.000000
      0.002013       0.000049       0.000000
      0.001967       0.000019       0.000000
      0.001915      -0.000013       0.000000
      0.002013       0.000049       0.000000
      0.002104       0.000106       0.000000
      0.002010       0.000077       0.000000
      0.001967       0.000019       0.000000
      0.002169       0.000170       0.000000
      0.002254       0.000224       0.000000
      0.002217       0.000182       0.000000
      0.002145       0.000134       0.000000
      0.002254       0.000224       0.000000
      0.002357       0.000297       0.000000
      0.002305       0.000247       0.000000
      0.002217       0.000182       0.000000
      0.002145       0.000134       0.000000
      0.002217       0.000182       0.000000
      0.002155       0.000150       0.000000
      0.002104       0.000106       0.000000
      0.002217       0.000182       0.000000
      0.002305       0.000247       0.000000
      0.002213       0.000210       0.000000
      0.002155       0.000150       0.000000
      0.002357       0.000297       0.000000
      0.002489       0.000399       0.000000
      0.002423       0.000339       0.000000
      0.002305       0.000247       0.000000
      0.002305       0.000247       0.000000
      0.002423       0.000339       0.000000
      0.002282       0.000293       0.000000
      0.002213       0.000210       0.000000
      0.002104       0.000106       0.000000
      0.002155       0.000150       0.000000
      0.002085       0.000131       0.000000
      0.002055       0.000088       0.000000
      0.002155       0.000150       0.000000
      0.002213       0.000210       0.000000
      0.002114       0.000192       0.000000
      0.002085       0.000131       0.000000
      0.002055       0.000088       0.000000
      0.002085       0.000131       0.000000
      0.002024       0.000123       0.000000
      0.002010       0.000077       0.000000
      0.002085       0.000131       0.000000
      0.002114       0.000192       0.000000
      0.002032       0.000186       0.000000
      0.002024       0.000123       0.000000
      0.002213       0.000210       0.000000
      0.002245       0.000248       0.000000
      0.002184       0.000237       0.000000
      0.002162       0.000199       0.000000
      0.002245       0.000248       0.000000
      0.002282       0.000293       0.000000
      0.002207       0.000283       0.000000
      0.002184       0.000237       0.000000
      0.002162       0.000199       0.000000
      0.002184       0.000237       0.000000
      0.002127       0.000231       0.000000
      0.002114       0.000192       0.000000
      0.002184       0.000237       0.000000
      0.002207       0.000283       0.000000
      0.002140       0.000277       0.000000
      0.002127       0.000231       0.000000
      0.002282       0.000293       0.000000
      0.002327       0.000348       0.000000
      0.002233       0.000338       0.000000
      0.002207       0.000283       0.000000
      0.002327       0.000348       0.000000
      0.002389       0.000415       0.000000
      0.002270       0.000411       0.000000
      0.002233       0.000338       0.000000
      0.002207       0.000283       0.000000
      0.002233       0.000338       0.000000
      0.002155       0.000332       0.000000
      0.002140       0.000277       0.000000
      0.002233       0.000338       0.000000
      0.002270       0.000411       0.000000
      0.002175       0.000413       0.000000
      0.002155       0.000332       0.000000
      0.002114       0.000192       0.000000
      0.002127       0.000231       0.000000
      0.002078       0.000228       0.000000
      0.002071       0.000188       0.000000
      0.002127       0.000231       0.000000
      0.002140       0.000277       0.000000
      0.002085       0.000273       0.000000
      0.002078       0.000228       0.000000
      0.002071       0.000188       0.000000
      0.002078       0.000228       0.000000
      0.002035       0.000227       0.000000
      0.002032       0.000186       0.000000
      0.002078       0.000228       0.000000
      0.002085       0.000273       0.000000
      0.002041       0.000274       0.000000
      0.002035       0.000227       0.000000
      0.002140       0.000277       0.000000
      0.002155       0.000332       0.000000
      0.002094       0.000323       0.000000
      0.002085       0.000273       0.000000
      0.002155       0.000332       0.000000
      0.002175       0.000413       0.000000
      0.001935       0.000341       0.000000
      0.002094       0.000323       0.000000
      0.002085       0.000273       0.000000
      0.002094       0.000323       0.000000
      0.002079       0.000333       0.000000
      0.002041       0.000274       0.000000
      0.002094       0.000323       0.000000
      0.001935       0.000341       0.000000
      0.006901       0.000567       0.000000
      0.002079       0.000333       0.000000
      0.002423       0.000339       0.000000
      0.002506       0.000402       0.000000
      0.002425       0.000370       0.000000
      0.002358       0.000313       0.000000
      0.002506       0.000402       0.000000
      0.002621       0.000484       0.000000
      0.002525       0.000443       0.000000
      0.002425       0.000370       0.000000
      0.002358       0.000313       0.000000
      0.002425       0.000370       0.000000
      0.002327       0.000348       0.000000
      0.002282       0.000293       0.000000
      0.002425       0.000370       0.000000
      0.002525       0.000443       0.000000
      0.002389       0.000415       0.000000
      0.002327       0.000348       0.000000
      0.002309       0.000375       0.000000
      0.002403       0.000462       0.000000
      0.002473       0.000442       0.000000
      0.002355       0.000343       0.000000
      0.002403       0.000462       0.000000
      0.002496       0.000549       0.000000
      0.002600       0.000556       0.000000
      0.002473       0.000442       0.000000
      0.002355       0.000343       0.000000
      0.002473       0.000442       0.000000
      0.002489       0.000399       0.000000
      0.002357       0.000297       0.000000
      0.002473       0.000442       0.000000
      0.002600       0.000556       0.000000
      0.002663       0.000541       0.000000
      0.002489       0.000399       0.000000
      0.002489       0.000399       0.000000
      0.002570       0.000465       0.000000
      0.002554       0.000437       0.000000
      0.002468       0.000370       0.000000
      0.002570       0.000465       0.000000
      0.002663       0.000541       0.000000
      0.002662       0.000519       0.000000
      0.002554       0.000437       0.000000
      0.002468       0.000370       0.000000
      0.002554       0.000437       0.000000
      0.002506       0.000402       0.000000
      0.002423       0.000339       0.000000
      0.002554       0.000437       0.000000
      0.002662       0.000519       0.000000
      0.002621       0.000484       0.000000
      0.002506       0.000402       0.000000
      0.000000       0.000000       0.000000
      0.000000       0.000000       0.000000
      0.000565       0.000131       0.000000
      0.000571       0.000134       0.000000
      0.000000       0.000000       0.000000
      0.000000       0.000000       0.000000
      0.000566       0.000105       0.000000
      0.000565       0.000131       0.000000
      0.000571       0.000134       0.000000
      0.000565       0.000131       0.000000
      0.001152       0.000262       0.000000
      0.001135       0.000269       0.000000
      0.000565       0.000131       0.000000
      0.000566       0.000105       0.000000
      0.001183       0.000197       0.000000
      0.001152       0.000262       0.000000
      0.000000       0.000000       0.000000
      0.000000       0.000000       0.000000
      0.000581       0.000070       0.000000
      0.000566       0.000105       0.000000
      0.000000       0.000000       0.000000
      0.000000       0.000000       0.000000
      0.000603       0.000039       0.000000
      0.000581       0.000070       0.000000
      0.000566       0.000105       0.000000
      0.000581       0.000070       0.000000
      0.001233       0.000119       0.000000
      0.001183       0.000197       0.000000
      0.000581       0.000070       0.000000
      0.000603       0.000039       0.000000
      0.001285       0.000060       0.000000
      0.001233       0.000119       0.000000
      0.000000       0.000000       0.000000
      0.000000       0.000000       0.000000
      0.000621       0.000017       0.000000
      0.000603       0.000039       0.000000
      0.000000       0.000000       0.000000
      0.000000       0.000000       0.000000
      0.000627       0.000000       0.000000
      0.000621       0.000017       0.000000
      0.000603       0.000039       0.000000
      0.000621       0.000017       0.000000
      0.001323       0.000024       0.000000
      0.001285       0.000060       0.000000
      0.000621       0.000017       0.000000
      0.000627       0.000000       0.000000
      0.001336       0.000000       0.000000
      0.001323       0.000024       0.000000
      0.001135       0.000269       0.000000
      0.001152       0.000262       0.000000
      0.001765       0.000383       0.000000
      0.001696       0.000396       0.000000
      0.001152       0.000262       0.000000
      0.001183       0.000197       0.000000
      0.001861       0.000255       0.000000
      0.001765       0.000383       0.000000
      0.001696       0.000396       0.000000
      0.001765       0.000383       0.000000
      0.002433       0.000477       0.000000
      0.002245       0.000509       0.000000
      0.001765       0.000383       0.000000
      0.001861       0.000255       0.000000
      0.002669       0.000243       0.000000
      0.002433       0.000477       0.000000
      0.001183       0.000197       0.000000
      0.001233       0.000119       0.000000
      0.001975       0.000131       0.000000
      0.001861       0.000255       0.000000
      0.001233       0.000119       0.000000
      0.001285       0.000060       0.000000
      0.002070       0.000055       0.000000
      0.001975       0.000131       0.000000
      0.001861       0.000255       0.000000
      0.001975       0.000131       0.000000
      0.002867       0.000090       0.000000
      0.002669       0.000243       0.000000
      0.001975       0.000131       0.000000
      0.002070       0.000055       0.000000
      0.002994       0.000021       0.000000
      0.002867       0.000090       0.000000
      0.001285       0.000060       0.000000
      0.001323       0.000024       0.000000
      0.002129       0.000018       0.000000
      0.002070       0.000055       0.000000
      0.001323       0.000024       0.000000
      0.001336       0.000000       0.000000
      0.002149       0.000000       0.000000
      0.002129       0.000018       0.000000
      0.002070       0.000055       0.000000
      0.002129       0.000018       0.000000
      0.003062       0.000000       0.000000
      0.002994       0.000021       0.000000
      0.002129       0.000018       0.000000
      0.002149       0.000000       0.000000
      0.003084       0.000000       0.000000
      0.003062       0.000000       0.000000
      0.002669       0.000243       0.000000
      0.002867       0.000090       0.000000
      0.003999       0.000016       0.000000
      0.003829       0.000131       0.000000
      0.002867       0.000090       0.000000
      0.002994       0.000021       0.000000
      0.004082      -0.000020       0.000000
      0.003999       0.000016       0.000000
      0.003829       0.000131       0.000000
      0.003999       0.000016       0.000000
      0.005316       0.000003       0.000000
      0.005414       0.000100       0.000000
      0.003999       0.000016       0.000000
      0.004082      -0.000020       0.000000
      0.005271      -0.000026       0.000000
      0.005316       0.000003       0.000000
      0.002994       0.000021       0.000000
      0.003062       0.000000       0.000000
      0.004121      -0.000018       0.000000
      0.004082      -0.000020       0.000000
      0.003062       0.000000       0.000000
      0.003084       0.000000       0.000000
      0.004133       0.000000       0.000000