# vtk DataFile Version 2.0
time_10.vtk
ASCII
DATASET UNSTRUCTURED_GRID
POINTS  1248 float
      0.000000       0.000000       0.000000
      0.083333       0.000000       0.000000
      0.083333       0.083333       0.000000
      0.000000       0.083333       0.000000
      0.083333       0.000000       0.000000
      0.166667       0.000000       0.000000
      0.166667       0.083333       0.000000
      0.083333       0.083333       0.000000
      0.000000       0.083333       0.000000
      0.083333       0.083333       0.000000
      0.083333       0.166667       0.000000
      0.000000       0.166667       0.000000
      0.083333       0.083333       0.000000
      0.166667       0.083333       0.000000
      0.166667       0.166667       0.000000
      0.083333       0.166667       0.000000
      0.166667       0.000000       0.000000
      0.250000       0.000000       0.000000
      0.250000       0.083333       0.000000
      0.166667       0.083333       0.000000
      0.250000       0.000000       0.000000
      0.333333       0.000000       0.000000
      0.333333       0.083333       0.000000
      0.250000       0.083333       0.000000
      0.166667       0.083333       0.000000
      0.250000       0.083333       0.000000
      0.250000       0.166667       0.000000
      0.166667       0.166667       0.000000
      0.250000       0.083333       0.000000
      0.333333       0.083333       0.000000
      0.333333       0.166667       0.000000
      0.250000       0.166667       0.000000
      0.333333       0.000000       0.000000
      0.416667       0.000000       0.000000
      0.416667       0.083333       0.000000
      0.333333       0.083333       0.000000
      0.416667       0.000000       0.000000
      0.500000       0.000000       0.000000
      0.500000       0.083333       0.000000
      0.416667       0.083333       0.000000
      0.333333       0.083333       0.000000
      0.416667       0.083333       0.000000
      0.416667       0.166667       0.000000
      0.333333       0.166667       0.000000
      0.416667       0.083333       0.000000
      0.500000       0.083333       0.000000
      0.500000       0.166667       0.000000
      0.416667       0.166667       0.000000
      0.000000       0.166667       0.000000
      0.083333       0.166667       0.000000
      0.083333       0.250000       0.000000
      0.000000       0.250000       0.000000
      0.083333       0.166667       0.000000
      0.166667       0.166667       0.000000
      0.166667       0.250000       0.000000
      0.083333       0.250000       0.000000
      0.000000       0.250000       0.000000
      0.083333       0.250000       0.000000
      0.083333       0.333333       0.000000
      0.000000       0.333333       0.000000
      0.083333       0.250000       0.000000
      0.166667       0.250000       0.000000
      0.166667       0.333333       0.000000
      0.083333       0.333333       0.000000
      0.166667       0.166667       0.000000
      0.250000       0.166667       0.000000
      0.250000       0.250000       0.000000
      0.166667       0.250000       0.000000
      0.250000       0.166667       0.000000
      0.333333       0.166667       0.000000
      0.333333       0.250000       0.000000
      0.250000       0.250000       0.000000
      0.166667       0.250000       0.000000
      0.250000       0.250000       0.000000
      0.250000       0.333333       0.000000
      0.166667       0.333333       0.000000
      0.250000       0.250000       0.000000
      0.333333       0.250000       0.000000
      0.333333       0.333333       0.000000
      0.250000       0.333333       0.000000
      0.333333       0.166667       0.000000
      0.416667       0.166667       0.000000
      0.416667       0.250000       0.000000
      0.333333       0.250000       0.000000
      0.416667       0.166667       0.000000
      0.500000       0.166667       0.000000
      0.500000       0.250000       0.000000
      0.416667       0.250000       0.000000
      0.333333       0.250000       0.000000
      0.416667       0.250000       0.000000
      0.416667       0.333333       0.000000
      0.333333       0.333333       0.000000
      0.416667       0.250000       0.000000
      0.500000       0.250000       0.000000
      0.500000       0.333333       0.000000
      0.416667       0.333333       0.000000
      0.000000       0.333333       0.000000
      0.083333       0.333333       0.000000
      0.083333       0.416667       0.000000
      0.000000       0.416667       0.000000
      0.083333       0.333333       0.000000
      0.166667       0.333333       0.000000
      0.166667       0.416667       0.000000
      0.083333       0.416667       0.000000
      0.000000       0.416667       0.000000
      0.083333       0.416667       0.000000
      0.083333       0.500000       0.000000
      0.000000       0.500000       0.000000
      0.083333       0.416667       0.000000
      0.166667       0.416667       0.000000
      0.166667       0.500000       0.000000
      0.083333       0.500000       0.000000
      0.166667       0.333333       0.000000
      0.250000       0.333333       0.000000
      0.250000       0.416667       0.000000
      0.166667       0.416667       0.000000
      0.250000       0.333333       0.000000
      0.333333       0.333333       0.000000
      0.333333       0.416667       0.000000
      0.250000       0.416667       0.000000
      0.166667       0.416667       0.000000
      0.250000       0.416667       0.000000
      0.250000       0.500000       0.000000
      0.166667       0.500000       0.000000
      0.250000       0.416667       0.000000
      0.333333       0.416667       0.000000
      0.333333       0.500000       0.000000
      0.250000       0.500000       0.000000
      0.333333       0.333333       0.000000
      0.375000       0.333333       0.000000
      0.375000       0.375000       0.000000
      0.333333       0.375000       0.000000
      0.375000       0.333333       0.000000
      0.416667       0.333333       0.000000
      0.416667       0.375000       0.000000
      0.375000       0.375000       0.000000
      0.333333       0.375000       0.000000
      0.375000       0.375000       0.000000
      0.375000       0.416667       0.000000
      0.333333       0.416667       0.000000
      0.375000       0.375000       0.000000
      0.416667       0.375000       0.000000
      0.416667       0.416667       0.000000
      0.375000       0.416667       0.000000
      0.416667       0.333333       0.000000
      0.458333       0.333333       0.000000
      0.458333       0.375000       0.000000
      0.416667       0.375000       0.000000
      0.458333       0.333333       0.000000
      0.500000       0.333333       0.000000
      0.500000       0.375000       0.000000
      0.458333       0.375000       0.000000
      0.416667       0.375000       0.000000
      0.458333       0.375000       0.000000
      0.458333       0.416667       0.000000
      0.416667       0.416667       0.000000
      0.333333       0.416667       0.000000
      0.375000       0.416667       0.000000
      0.375000       0.458333       0.000000
      0.333333       0.458333       0.000000
      0.375000       0.416667       0.000000
      0.416667       0.416667       0.000000
      0.416667       0.458333       0.000000
      0.375000       0.458333       0.000000
      0.333333       0.458333       0.000000
      0.375000       0.458333       0.000000
      0.375000       0.500000       0.000000
      0.333333       0.500000       0.000000
      0.375000       0.458333       0.000000
      0.416667       0.458333       0.000000
      0.416667       0.500000       0.000000
      0.375000       0.500000       0.000000
      0.416667       0.416667       0.000000
      0.437500       0.416667       0.000000
      0.437500       0.437500       0.000000
      0.416667       0.437500       0.000000
      0.437500       0.416667       0.000000
      0.458333       0.416667       0.000000
      0.458333       0.437500       0.000000
      0.437500       0.437500       0.000000
      0.416667       0.437500       0.000000
      0.437500       0.437500       0.000000
      0.437500       0.458333       0.000000
      0.416667       0.458333       0.000000
      0.437500       0.437500       0.000000
      0.458333       0.437500       0.000000
      0.458333       0.458333       0.000000
      0.437500       0.458333       0.000000
      0.458333       0.416667       0.000000
      0.479167       0.416667       0.000000
      0.479167       0.437500       0.000000
      0.458333       0.437500       0.000000
      0.458333       0.437500       0.000000
      0.479167       0.437500       0.000000
      0.479167       0.458333       0.000000
      0.458333       0.458333       0.000000
      0.416667       0.458333       0.000000
      0.437500       0.458333       0.000000
      0.437500       0.479167       0.000000
      0.416667       0.479167       0.000000
      0.437500       0.458333       0.000000
      0.458333       0.458333       0.000000
      0.458333       0.479167       0.000000
      0.437500       0.479167       0.000000
      0.416667       0.479167       0.000000
      0.437500       0.479167       0.000000
      0.437500       0.500000       0.000000
      0.416667       0.500000       0.000000
      0.437500       0.479167       0.000000
      0.458333       0.479167       0.000000
      0.458333       0.500000       0.000000
      0.437500       0.500000       0.000000
      0.458333       0.458333       0.000000
      0.468750       0.458333       0.000000
      0.468750       0.468750       0.000000
      0.458333       0.468750       0.000000
      0.468750       0.458333       0.000000
      0.479167       0.458333       0.000000
      0.479167       0.468750       0.000000
      0.468750       0.468750       0.000000
[...]
POINT_DATA  1248
VECTORS U float 
      0.000000       0.000000       0.000000
      0.000000       0.000000       0.000000
      0.000490       0.000014       0.000000
      0.000484       0.000000       0.000000
      0.000000       0.000000       0.000000
      0.000000       0.000000       0.000000
      0.000506       0.000032       0.000000
      0.000490       0.000014       0.000000
      0.000484       0.000000       0.000000
      0.000490       0.000014       0.000000
      0.000912       0.000020       0.000000
      0.000901       0.000000       0.000000
      0.000490       0.000014       0.000000
      0.000506       0.000032       0.000000
      0.000944       0.000047       0.000000
      0.000912       0.000020       0.000000
      0.000000       0.000000       0.000000
      0.000000       0.000000       0.000000
      0.000530       0.000054       0.000000
      0.000506       0.000032       0.000000
      0.000000       0.000000       0.000000
      0.000000       0.000000       0.000000
      0.000554       0.000083       0.000000
      0.000530       0.000054       0.000000
      0.000506       0.000032       0.000000
      0.000530       0.000054       0.000000
      0.000994       0.000087       0.000000
      0.000944       0.000047       0.000000
      0.000530       0.000054       0.000000
      0.000554       0.000083       0.000000
      0.001052       0.000145       0.000000
      0.000994       0.000087       0.000000
      0.000000       0.000000       0.000000
      0.000000       0.000000       0.000000
      0.000568       0.000113       0.000000
      0.000554       0.000083       0.000000
      0.000000       0.000000       0.000000
      0.000000       0.000000       0.000000
      0.000569       0.000133       0.000000
      0.000568       0.000113       0.000000
      0.000554       0.000083       0.000000
      0.000568       0.000113       0.000000
      0.001103       0.000215       0.000000
      0.001052       0.000145       0.000000
      0.000568       0.000113       0.000000
      0.000569       0.000133       0.000000
      0.001133       0.000267       0.000000
      0.001103       0.000215       0.000000
      0.000901       0.000000       0.000000
      0.000912       0.000020       0.000000
      0.001250       0.000018       0.000000
      0.001235       0.000000       0.000000
      0.000912       0.000020       0.000000
      0.000944       0.000047       0.000000
      0.001297       0.000044       0.000000
      0.001250       0.000018       0.000000
      0.001235       0.000000       0.000000
      0.001250       0.000018       0.000000
      0.001495       0.000007       0.000000
      0.001477       0.000000       0.000000
      0.001250       0.000018       0.000000
      0.001297       0.000044       0.000000
      0.001551       0.000023       0.000000
      0.001495       0.000007       0.000000
      0.000944       0.000047       0.000000
      0.000994       0.000087       0.000000
      0.001376       0.000090       0.000000
      0.001297       0.000044       0.000000
      0.000994       0.000087       0.000000
      0.001052       0.000145       0.000000
      0.001482       0.000169       0.000000
      0.001376       0.000090       0.000000
      0.001297       0.000044       0.000000
      0.001376       0.000090       0.000000
      0.001649       0.000060       0.000000
      0.001551       0.000023       0.000000
      0.001376       0.000090       0.000000
      0.001482       0.000169       0.000000
      0.001800       0.000136       0.000000
      0.001649       0.000060       0.000000
      0.001052       0.000145       0.000000
      0.001103       0.000215       0.000000
      0.001600       0.000286       0.000000
      0.001482       0.000169       0.000000
      0.001103       0.000215       0.000000
      0.001133       0.000267       0.000000
      0.001693       0.000394       0.000000
      0.001600       0.000286       0.000000
      0.001482       0.000169       0.000000
      0.001600       0.000286       0.000000
      0.002013       0.000287       0.000000
      0.001800       0.000136       0.000000
      0.001600       0.000286       0.000000
      0.001693       0.000394       0.000000
      0.002243       0.000506       0.000000
      0.002013       0.000287       0.000000
      0.001477       0.000000       0.000000
      0.001495       0.000007       0.000000
      0.001643      -0.000007       0.000000
      0.001626       0.000000       0.000000
      0.001495       0.000007       0.000000
      0.001551       0.000023       0.000000
      0.001698      -0.000007       0.000000
      0.001643      -0.000007       0.000000
      0.001626       0.000000       0.000000
      0.001643      -0.000007       0.000000
      0.001702      -0.000022       0.000000
      0.001687       0.000000       0.000000
      0.001643      -0.000007       0.000000
      0.001698      -0.000007       0.000000
      0.001748      -0.000036       0.000000
      0.001702      -0.000022       0.000000
      0.001551       0.000023       0.000000
      0.001649       0.000060       0.000000
      0.001794       0.000009       0.000000
      0.001698      -0.000007       0.000000
      0.001649       0.000060       0.000000
      0.001800       0.000136       0.000000
      0.001942       0.000056       0.000000
      0.001794       0.000009       0.000000
      0.001698      -0.000007       0.000000
      0.001794       0.000009       0.000000
      0.001824      -0.000037       0.000000
      0.001748      -0.000036       0.000000
      0.001794       0.000009       0.000000
      0.001942       0.000056       0.000000
      0.001927      -0.000010       0.000000
      0.001824      -0.000037       0.000000
      0.001800       0.000136       0.000000
      0.001899       0.000200       0.000000
      0.002006       0.000156       0.000000
      0.001896       0.000099       0.000000
      0.001899       0.000200       0.000000
      0.002013       0.000287       0.000000
      0.002144       0.000244       0.000000
      0.002006       0.000156       0.000000
      0.001896       0.000099       0.000000
      0.002006       0.000156       0.000000
      0.002046       0.000101       0.000000
      0.001942       0.000056       0.000000
      0.002006       0.000156       0.000000
      0.002144       0.000244       0.000000
      0.002181       0.000174       0.000000
      0.002046       0.000101       0.000000
      0.002013       0.000287       0.000000
      0.002134       0.000400       0.000000
      0.002314       0.000378       0.000000
      0.002144       0.000244       0.000000
      0.002134       0.000400       0.000000
      0.002243       0.000506       0.000000
      0.002497       0.000547       0.000000
      0.002314       0.000378       0.000000
      0.002144       0.000244       0.000000
      0.002314       0.000378       0.000000
      0.002371       0.000302       0.000000
      0.002181       0.000174       0.000000
      0.001942       0.000056       0.000000
      0.002046       0.000101       0.000000
      0.002026       0.000052       0.000000
      0.001946       0.000018       0.000000
      0.002046       0.000101       0.000000
      0.002181       0.000174       0.000000
      0.002119       0.000109       0.000000
      0.002026       0.000052       0.000000
      0.001946       0.000018       0.000000
      0.002026       0.000052       0.000000
      0.001981       0.000022       0.000000
      0.001927      -0.000010       0.000000
      0.002026       0.000052       0.000000
      0.002119       0.000109       0.000000
      0.002027       0.000078       0.000000
      0.001981       0.000022       0.000000
      0.002181       0.000174       0.000000
      0.002267       0.000228       0.000000
      0.002233       0.000186       0.000000
      0.002160       0.000138       0.000000
      0.002267       0.000228       0.000000
      0.002371       0.000302       0.000000
      0.002324       0.000251       0.000000
      0.002233       0.000186       0.000000
      0.002160       0.000138       0.000000
      0.002233       0.000186       0.000000
      0.002173       0.000153       0.000000
      0.002119       0.000109       0.000000
      0.002233       0.000186       0.000000
      0.002324       0.000251       0.000000
      0.002233       0.000212       0.000000
      0.002173       0.000153       0.000000
      0.002371       0.000302       0.000000
      0.002504       0.000405       0.000000
      0.002446       0.000345       0.000000
      0.002324       0.000251       0.000000
      0.002324       0.000251       0.000000
      0.002446       0.000345       0.000000
      0.002307       0.000296       0.000000
      0.002233       0.000212       0.000000
      0.002119       0.000109       0.000000
      0.002173       0.000153       0.000000
      0.002103       0.000133       0.000000
      0.002071       0.000090       0.000000
      0.002173       0.000153       0.000000
      0.002233       0.000212       0.000000
      0.002134       0.000193       0.000000
      0.002103       0.000133       0.000000
      0.002071       0.000090       0.000000
      0.002103       0.000133       0.000000
      0.002043       0.000123       0.000000
      0.002027       0.000078       0.000000
      0.002103       0.000133       0.000000
      0.002134       0.000193       0.000000
      0.002052       0.000186       0.000000
      0.002043       0.000123       0.000000
      0.002233       0.000212       0.000000
      0.002268       0.000251       0.000000
      0.002206       0.000239       0.000000
      0.002183       0.000201       0.000000
      0.002268       0.000251       0.000000
      0.002307       0.000296       0.000000
      0.002231       0.000284       0.000000
      0.002206       0.000239       0.000000
      0.002183       0.000201       0.000000
      0.002206       0.000239       0.000000
      0.002148       0.000232       0.000000
      0.002134       0.000193       0.000000
      0.002206       0.000239       0.000000
      0.002231       0.000284       0.000000
      0.002163       0.000278       0.000000
      0.002148       0.000232       0.000000
      0.002307       0.000296       0.000000
      0.002356       0.000351       0.000000
      0.002259       0.000339       0.000000
      0.002231       0.000284       0.000000
      0.002356       0.000351       0.000000
      0.002427       0.000418       0.000000
      0.002301       0.000412       0.000000
      0.002259       0.000339       0.000000
      0.002231       0.000284       0.000000
      0.002259       0.000339       0.000000
      0.002178       0.000333       0.000000
      0.002163       0.000278       0.000000
      0.002259       0.000339       0.000000
      0.002301       0.000412       0.000000
      0.002200       0.000415       0.000000
      0.002178       0.000333       0.000000
      0.002134       0.000193       0.000000
      0.002148       0.000232       0.000000
      0.002099       0.000228       0.000000
      0.002090       0.000188       0.000000
      0.002148       0.000232       0.000000
      0.002163       0.000278       0.000000
      0.002106       0.000274       0.000000
      0.002099       0.000228       0.000000
      0.002090       0.000188       0.000000
      0.002099       0.000228       0.000000
      0.002055       0.000227       0.000000
      0.002052       0.000186       0.000000
      0.002099       0.000228       0.000000
      0.002106       0.000274       0.000000
      0.002061       0.000274       0.000000
      0.002055       0.000227       0.000000
      0.002163       0.000278       0.000000
      0.002178       0.000333       0.000000
      0.002115       0.000323       0.000000
      0.002106       0.000274       0.000000
      0.002178       0.000333       0.000000
      0.002200       0.000415       0.000000
      0.001962       0.000342       0.000000
      0.002115       0.000323       0.000000
      0.002106       0.000274       0.000000
      0.002115       0.000323       0.000000
      0.002099       0.000333       0.000000
      0.002061       0.000274       0.000000
      0.002115       0.000323       0.000000
      0.001962       0.000342       0.000000
      0.006858       0.000561       0.000000
      0.002099       0.000333       0.000000
      0.002446       0.000345       0.000000
      0.002531       0.000409       0.000000
      0.002455       0.000375       0.000000
      0.002383       0.000317       0.000000
      0.002531       0.000409       0.000000
      0.002649       0.000493       0.000000
      0.002562       0.000450       0.000000
      0.002455       0.000375       0.000000
      0.002383       0.000317       0.000000
      0.002455       0.000375       0.000000
      0.002356       0.000351       0.000000
      0.002307       0.000296       0.000000
      0.002455       0.000375       0.000000
      0.002562       0.000450       0.000000
      0.002427       0.000418       0.000000
      0.002356       0.000351       0.000000
      0.002314       0.000378       0.000000
      0.002407       0.000464       0.000000
      0.002481       0.000445       0.000000
      0.002365       0.000347       0.000000
      0.002407       0.000464       0.000000
      0.002497       0.000547       0.000000
      0.002605       0.000556       0.000000
      0.002481       0.000445       0.000000
      0.002365       0.000347       0.000000
      0.002481       0.000445       0.000000
      0.002504       0.000405       0.000000
      0.002371       0.000302       0.000000
      0.002481       0.000445       0.000000
      0.002605       0.000556       0.000000
      0.002674       0.000544       0.000000
      0.002504       0.000405       0.000000
      0.002504       0.000405       0.000000
      0.002584       0.000470       0.000000
      0.002573       0.000443       0.000000
      0.002486       0.000376       0.000000
      0.002584       0.000470       0.000000
      0.002674       0.000544       0.000000
      0.002680       0.000525       0.000000
      0.002573       0.000443       0.000000
      0.002486       0.000376       0.000000
      0.002573       0.000443       0.000000
      0.002531       0.000409       0.000000
      0.002446       0.000345       0.000000
      0.002573       0.000443       0.000000
      0.002680       0.000525       0.000000
      0.002649       0.000493       0.000000
      0.002531       0.000409       0.000000
      0.000000       0.000000       0.000000
      0.000000       0.000000       0.000000
      0.000564       0.000130       0.000000
      0.000569       0.000133       0.000000
      0.000000       0.000000       0.000000
      0.000000       0.000000       0.000000
      0.000565       0.000104       0.000000
      0.000564       0.000130       0.000000
      0.000569       0.000133       0.000000
      0.000564       0.000130       0.000000
      0.001150       0.000259       0.000000
      0.001133       0.000267       0.000000
      0.000564       0.000130       0.000000
      0.000565       0.000104       0.000000
      0.001180       0.000194       0.000000
      0.001150       0.000259       0.000000
      0.000000       0.000000       0.000000
      0.000000       0.000000       0.000000
      0.000580       0.000069       0.000000
      0.000565       0.000104       0.000000
      0.000000       0.000000       0.000000
      0.000000       0.000000       0.000000
      0.000601       0.000039       0.000000
      0.000580       0.000069       0.000000
      0.000565       0.000104       0.000000
      0.000580       0.000069       0.000000
      0.001230       0.000118       0.000000
      0.001180       0.000194       0.000000
      0.000580       0.000069       0.000000
      0.000601       0.000039       0.000000
      0.001281       0.000060       0.000000
      0.001230       0.000118       0.000000
      0.000000       0.000000       0.000000
      0.000000       0.000000       0.000000
      0.000619       0.000017       0.000000
      0.000601       0.000039       0.000000
      0.000000       0.000000       0.000000
      0.000000       0.000000       0.000000
      0.000626       0.000000       0.000000
      0.000619       0.000017       0.000000
      0.000601       0.000039       0.000000
      0.000619       0.000017       0.000000
      0.001319       0.000024       0.000000
      0.001281       0.000060       0.000000
      0.000619       0.000017       0.000000
      0.000626       0.000000       0.000000
      0.001332       0.000000       0.000000
      0.001319       0.000024       0.000000
      0.001133       0.000267       0.000000
      0.001150       0.000259       0.000000
      0.001761       0.000378       0.000000
      0.001693       0.000394       0.000000
      0.001150       0.000259       0.000000
      0.001180       0.000194       0.000000
      0.001856       0.000252       0.000000
      0.001761       0.000378       0.000000
      0.001693       0.000394       0.000000
      0.001761       0.000378       0.000000
      0.002428       0.000471       0.000000
      0.002243       0.000506       0.000000
      0.001761       0.000378       0.000000
      0.001856       0.000252       0.000000
      0.002660       0.000240       0.000000
      0.002428       0.000471       0.000000
      0.001180       0.000194       0.000000
      0.001230       0.000118       0.000000
      0.001969       0.000130       0.000000
      0.001856       0.000252       0.000000
      0.001230       0.000118       0.000000
      0.001281       0.000060       0.000000
      0.002062       0.000055       0.000000
      0.001969       0.000130       0.000000
      0.001856       0.000252       0.000000
      0.001969       0.000130       0.000000
      0.002855       0.000089       0.000000
      0.002660       0.000240       0.000000
      0.001969       0.000130       0.000000
      0.002062       0.000055       0.000000
      0.002981       0.000021       0.000000
      0.002855       0.000089       0.000000
      0.001281       0.000060       0.000000
      0.001319       0.000024       0.000000
      0.002121       0.000018       0.000000
      0.002062       0.000055       0.000000
      0.001319       0.000024       0.000000
      0.001332       0.000000       0.000000
      0.002141       0.000000       0.000000
      0.002121       0.000018       0.000000
      0.002062       0.000055       0.000000
      0.002121       0.000018       0.000000
      0.003049       0.000000       0.000000
      0.002981       0.000021       0.000000
      0.002121       0.000018       0.000000
      0.002141       0.000000       0.000000
      0.003070       0.000000       0.000000
      0.003049       0.000000       0.000000
      0.002660       0.000240       0.000000
      0.002855       0.000089       0.000000
      0.003978       0.000016       0.000000
      0.003808       0.000130       0.000000
      0.002855       0.000089       0.000000
      0.002981       0.000021       0.000000
      0.004061      -0.000020       0.000000
      0.003978       0.000016       0.000000
      0.003808       0.000130       0.000000
      0.003978       0.000016       0.000000
      0.005286       0.000001       0.000000
      0.005380       0.000097       0.000000
      0.003978       0.000016       0.000000
      0.004061      -0.000020       0.000000
      0.005242      -0.000027       0.000000
      0.005286       0.000001       0.000000
      0.002981       0.000021       0.000000
      0.003049       0.000000       0.000000
      0.004101      -0.000018       0.000000
      0.004061      -0.000020       0.000000
      0.003049       0.000000       0.000000
      0.003070       0.000000       0.000000
      0.004112       0.000000       0.000000