# vtk DataFile Version 2.0
time_10.vtk
ASCII
DATASET UNSTRUCTURED_GRID
POINTS  1152 float
      0.000000       0.000000       0.000000
      0.083333       0.000000       0.000000
      0.083333       0.083333       0.000000
      0.000000       0.083333       0.000000
      0.083333       0.000000       0.000000
      0.166667       0.000000       0.000000
      0.166667       0.083333       0.000000
      0.083333       0.083333       0.000000
      0.000000       0.083333       0.000000
      0.083333       0.083333       0.000000
      0.083333       0.166667       0.000000
      0.000000       0.166667       0.000000
      0.083333       0.083333       0.000000
      0.166667       0.083333       0.000000
      0.166667       0.166667       0.000000
      0.083333       0.166667       0.000000
      0.166667       0.000000       0.000000
      0.250000       0.000000       0.000000
      0.250000       0.083333       0.000000
      0.166667       0.083333       0.000000
      0.250000       0.000000       0.000000
      0.333333       0.000000       0.000000
      0.333333       0.083333       0.000000
      0.250000       0.083333       0.000000
      0.166667       0.083333       0.000000
      0.250000       0.083333       0.000000
      0.250000       0.166667       0.000000
      0.166667       0.166667       0.000000
      0.250000       0.083333       0.000000
      0.333333       0.083333       0.000000
      0.333333       0.166667       0.000000
      0.250000       0.166667       0.000000
      0.333333       0.000000       0.000000
      0.416667       0.000000       0.000000
      0.416667       0.083333       0.000000
      0.333333       0.083333       0.000000
      0.416667       0.000000       0.000000
      0.500000       0.000000       0.000000
      0.500000       0.083333       0.000000
      0.416667       0.083333       0.000000
      0.333333       0.083333       0.000000
      0.416667       0.083333       0.000000
      0.416667       0.166667       0.000000
      0.333333       0.166667       0.000000
      0.416667       0.083333       0.000000
      0.500000       0.083333       0.000000
      0.500000       0.166667       0.000000
      0.416667       0.166667       0.000000
      0.000000       0.166667       0.000000
      0.083333       0.166667       0.000000
      0.083333       0.250000       0.000000
      0.000000       0.250000       0.000000
      0.083333       0.166667       0.000000
      0.166667       0.166667       0.000000
      0.166667       0.250000       0.000000
      0.083333       0.250000       0.000000
      0.000000       0.250000       0.000000
      0.083333       0.250000       0.000000
      0.083333       0.333333       0.000000
      0.000000       0.333333       0.000000
      0.083333       0.250000       0.000000
      0.166667       0.250000       0.000000
      0.166667       0.333333       0.000000
      0.083333       0.333333       0.000000
      0.166667       0.166667       0.000000
      0.250000       0.166667       0.000000
      0.250000       0.250000       0.000000
      0.166667       0.250000       0.000000
      0.250000       0.166667       0.000000
      0.333333       0.166667       0.000000
      0.333333       0.250000       0.000000
      0.250000       0.250000       0.000000
      0.166667       0.250000       0.000000
      0.250000       0.250000       0.000000
      0.250000       0.333333       0.000000
      0.166667       0.333333       0.000000
      0.250000       0.250000       0.000000
      0.333333       0.250000       0.000000
      0.333333       0.333333       0.000000
      0.250000       0.333333       0.000000
      0.333333       0.166667       0.000000
      0.416667       0.166667       0.000000
      0.416667       0.250000       0.000000
      0.333333       0.250000       0.000000
      0.416667       0.166667       0.000000
      0.500000       0.166667       0.000000
      0.500000       0.250000       0.000000
      0.416667       0.250000       0.000000
      0.333333       0.250000       0.000000
      0.416667       0.250000       0.000000
      0.416667       0.333333       0.000000
      0.333333       0.333333       0.000000
      0.416667       0.250000       0.000000
      0.500000       0.250000       0.000000
      0.500000       0.333333       0.000000
      0.416667       0.333333       0.000000
      0.000000       0.333333       0.000000
      0.083333       0.333333       0.000000
      0.083333       0.416667       0.000000
      0.000000       0.416667       0.000000
      0.083333       0.333333       0.000000
      0.166667       0.333333       0.000000
      0.166667       0.416667       0.000000
      0.083333       0.416667       0.000000
      0.000000       0.416667       0.000000
      0.083333       0.416667       0.000000
      0.083333       0.500000       0.000000
      0.000000       0.500000       0.000000
      0.083333       0.416667       0.000000
      0.166667       0.416667       0.000000
      0.166667       0.500000       0.000000
      0.083333       0.500000       0.000000
      0.166667       0.333333       0.000000
      0.250000       0.333333       0.000000
      0.250000       0.416667       0.000000
      0.166667       0.416667       0.000000
      0.250000       0.333333       0.000000
      0.333333       0.333333       0.000000
      0.333333       0.416667       0.000000
      0.250000       0.416667       0.000000
      0.166667       0.416667       0.000000
      0.250000       0.416667       0.000000
      0.250000       0.500000       0.000000
      0.166667       0.500000       0.000000
      0.250000       0.416667       0.000000
      0.333333       0.416667       0.000000
      0.333333       0.500000       0.000000
      0.250000       0.500000       0.000000
      0.333333       0.333333       0.000000
      0.375000       0.333333       0.000000
      0.375000       0.375000       0.000000
      0.333333       0.375000       0.000000
      0.375000       0.333333       0.000000
      0.416667       0.333333       0.000000
      0.416667       0.375000       0.000000
      0.375000       0.375000       0.000000
      0.333333       0.375000       0.000000
      0.375000       0.375000       0.000000
      0.375000       0.416667       0.000000
      0.333333       0.416667       0.000000
      0.375000       0.375000       0.000000
      0.416667       0.375000       0.000000
      0.416667       0.416667       0.000000
      0.375000       0.416667       0.000000
      0.416667       0.333333       0.000000
      0.458333       0.333333       0.000000
      0.458333       0.375000       0.000000
      0.416667       0.375000       0.000000
      0.458333       0.333333       0.000000
      0.500000       0.333333       0.000000
      0.500000       0.375000       0.000000
      0.458333       0.375000       0.000000
      0.416667       0.375000       0.000000
      0.458333       0.375000       0.000000
      0.458333       0.416667       0.000000
      0.416667       0.416667       0.000000
      0.458333       0.375000       0.000000
      0.500000       0.375000       0.000000
      0.500000       0.416667       0.000000
      0.458333       0.416667       0.000000
      0.333333       0.416667       0.000000
      0.375000       0.416667       0.000000
      0.375000       0.458333       0.000000
      0.333333       0.458333       0.000000
      0.375000       0.416667       0.000000
      0.416667       0.416667       0.000000
      0.416667       0.458333       0.000000
      0.375000       0.458333       0.000000
      0.333333       0.458333       0.000000
      0.375000       0.458333       0.000000
      0.375000       0.500000       0.000000
      0.333333       0.500000       0.000000
      0.375000       0.458333       0.000000
      0.416667       0.458333       0.000000
      0.416667       0.500000       0.000000
      0.375000       0.500000       0.000000
      0.416667       0.416667       0.000000
      0.437500       0.416667       0.000000
      0.437500       0.437500       0.000000
      0.416667       0.437500       0.000000
      0.437500       0.416667       0.000000
      0.458333       0.416667       0.000000
      0.458333       0.437500       0.000000
      0.437500       0.437500       0.000000
      0.416667       0.437500       0.000000
      0.437500       0.437500       0.000000
      0.437500       0.458333       0.000000
      0.416667       0.458333       0.000000
      0.437500       0.437500       0.000000
      0.458333       0.437500       0.000000
      0.458333       0.458333       0.000000
      0.437500       0.458333       0.000000
      0.458333       0.416667       0.000000
      0.479167       0.416667       0.000000
      0.479167       0.437500       0.000000
      0.458333       0.437500       0.000000
      0.479167       0.416667       0.000000
      0.500000       0.416667       0.000000
      0.500000       0.437500       0.000000
      0.479167       0.437500       0.000000
      0.458333       0.437500       0.000000
      0.479167       0.437500       0.000000
      0.479167       0.458333       0.000000
      0.458333       0.458333       0.000000
      0.479167       0.437500       0.000000
      0.500000       0.437500       0.000000
      0.500000       0.458333       0.000000
      0.479167       0.458333       0.000000
      0.416667       0.458333       0.000000
      0.437500       0.458333       0.000000
      0.437500       0.479167       0.000000
      0.416667       0.479167       0.000000
      0.437500       0.458333       0.000000
      0.458333       0.458333       0.000000
      0.458333       0.479167       0.000000
      0.437500       0.479167       0.000000
      0.416667       0.479167       0.000000
      0.437500       0.479167       0.000000
      0.437500       0.500000       0.000000
      0.416667       0.500000       0.000000
[...]
POINT_DATA  1152
VECTORS U float 
      0.000000       0.000000       0.000000
      0.000000       0.000000       0.000000
      0.000285       0.000012       0.000000
      0.000284       0.000000       0.000000
      0.000000       0.000000       0.000000
      0.000000       0.000000       0.000000
      0.000287       0.000024       0.000000
      0.000285       0.000012       0.000000
      0.000284       0.000000       0.000000
      0.000285       0.000012       0.000000
      0.000536       0.000022       0.000000
      0.000534       0.000000       0.000000
      0.000285       0.000012       0.000000
      0.000287       0.000024       0.000000
      0.000543       0.000046       0.000000
      0.000536       0.000022       0.000000
      0.000000       0.000000       0.000000
      0.000000       0.000000       0.000000
      0.000288       0.000036       0.000000
      0.000287       0.000024       0.000000
      0.000000       0.000000       0.000000
      0.000000       0.000000       0.000000
      0.000287       0.000046       0.000000
      0.000288       0.000036       0.000000
      0.000287       0.000024       0.000000
      0.000288       0.000036       0.000000
      0.000553       0.000070       0.000000
      0.000543       0.000046       0.000000
      0.000288       0.000036       0.000000
      0.000287       0.000046       0.000000
      0.000560       0.000091       0.000000
      0.000553       0.000070       0.000000
      0.000000       0.000000       0.000000
      0.000000       0.000000       0.000000
      0.000284       0.000050       0.000000
      0.000287       0.000046       0.000000
      0.000000       0.000000       0.000000
      0.000000       0.000000       0.000000
      0.000281       0.000047       0.000000
      0.000284       0.000050       0.000000
      0.000287       0.000046       0.000000
      0.000284       0.000050       0.000000
      0.000565       0.000101       0.000000
      0.000560       0.000091       0.000000
      0.000284       0.000050       0.000000
      0.000281       0.000047       0.000000
      0.000569       0.000094       0.000000
      0.000565       0.000101       0.000000
      0.000534       0.000000       0.000000
      0.000536       0.000022       0.000000
      0.000748       0.000029       0.000000
      0.000742       0.000000       0.000000
      0.000536       0.000022       0.000000
      0.000543       0.000046       0.000000
      0.000765       0.000060       0.000000
      0.000748       0.000029       0.000000
      0.000742       0.000000       0.000000
      0.000748       0.000029       0.000000
      0.000909       0.000028       0.000000
      0.000899       0.000000       0.000000
      0.000748       0.000029       0.000000
      0.000765       0.000060       0.000000
      0.000940       0.000061       0.000000
      0.000909       0.000028       0.000000
      0.000543       0.000046       0.000000
      0.000553       0.000070       0.000000
      0.000791       0.000095       0.000000
      0.000765       0.000060       0.000000
      0.000553       0.000070       0.000000
      0.000560       0.000091       0.000000
      0.000818       0.000128       0.000000
      0.000791       0.000095       0.000000
      0.000765       0.000060       0.000000
      0.000791       0.000095       0.000000
      0.000990       0.000102       0.000000
      0.000940       0.000061       0.000000
      0.000791       0.000095       0.000000
      0.000818       0.000128       0.000000
      0.001053       0.000149       0.000000
      0.000990       0.000102       0.000000
      0.000560       0.000091       0.000000
      0.000565       0.000101       0.000000
      0.000842       0.000148       0.000000
      0.000818       0.000128       0.000000
      0.000565       0.000101       0.000000
      0.000569       0.000094       0.000000
      0.000863       0.000137       0.000000
      0.000842       0.000148       0.000000
      0.000818       0.000128       0.000000
      0.000842       0.000148       0.000000
      0.001117       0.000187       0.000000
      0.001053       0.000149       0.000000
      0.000842       0.000148       0.000000
      0.000863       0.000137       0.000000
      0.001171       0.000173       0.000000
      0.001117       0.000187       0.000000
      0.000899       0.000000       0.000000
      0.000909       0.000028       0.000000
      0.001008       0.000021       0.000000
      0.000994       0.000000       0.000000
      0.000909       0.000028       0.000000
      0.000940       0.000061       0.000000
      0.001050       0.000047       0.000000
      0.001008       0.000021       0.000000
      0.000994       0.000000       0.000000
      0.001008       0.000021       0.000000
      0.001034       0.000009       0.000000
      0.001020       0.000000       0.000000
      0.001008       0.000021       0.000000
      0.001050       0.000047       0.000000
      0.001078       0.000022       0.000000
      0.001034       0.000009       0.000000
      0.000940       0.000061       0.000000
      0.000990       0.000102       0.000000
      0.001125       0.000083       0.000000
      0.001050       0.000047       0.000000
      0.000990       0.000102       0.000000
      0.001053       0.000149       0.000000
      0.001236       0.000134       0.000000
      0.001125       0.000083       0.000000
      0.001050       0.000047       0.000000
      0.001125       0.000083       0.000000
      0.001159       0.000042       0.000000
      0.001078       0.000022       0.000000
      0.001125       0.000083       0.000000
      0.001236       0.000134       0.000000
      0.001292       0.000073       0.000000
      0.001159       0.000042       0.000000
      0.001053       0.000149       0.000000
      0.001086       0.000171       0.000000
      0.001204       0.000175       0.000000
      0.001155       0.000147       0.000000
      0.001086       0.000171       0.000000
      0.001117       0.000187       0.000000
      0.001252       0.000198       0.000000
      0.001204       0.000175       0.000000
      0.001155       0.000147       0.000000
      0.001204       0.000175       0.000000
      0.001306       0.000165       0.000000
      0.001236       0.000134       0.000000
      0.001204       0.000175       0.000000
      0.001252       0.000198       0.000000
      0.001381       0.000198       0.000000
      0.001306       0.000165       0.000000
      0.001117       0.000187       0.000000
      0.001144       0.000189       0.000000
      0.001296       0.000206       0.000000
      0.001252       0.000198       0.000000
      0.001144       0.000189       0.000000
      0.001171       0.000173       0.000000
      0.001335       0.000187       0.000000
      0.001296       0.000206       0.000000
      0.001252       0.000198       0.000000
      0.001296       0.000206       0.000000
      0.001454       0.000218       0.000000
      0.001381       0.000198       0.000000
      0.001296       0.000206       0.000000
      0.001335       0.000187       0.000000
      0.001516       0.000196       0.000000
      0.001454       0.000218       0.000000
      0.001236       0.000134       0.000000
      0.001306       0.000165       0.000000
      0.001375       0.000137       0.000000
      0.001286       0.000108       0.000000
      0.001306       0.000165       0.000000
      0.001381       0.000198       0.000000
      0.001486       0.000173       0.000000
      0.001375       0.000137       0.000000
      0.001286       0.000108       0.000000
      0.001375       0.000137       0.000000
      0.001389       0.000093       0.000000
      0.001292       0.000073       0.000000
      0.001375       0.000137       0.000000
      0.001486       0.000173       0.000000
      0.001518       0.000116       0.000000
      0.001389       0.000093       0.000000
      0.001381       0.000198       0.000000
      0.001419       0.000211       0.000000
      0.001488       0.000206       0.000000
      0.001439       0.000189       0.000000
      0.001419       0.000211       0.000000
      0.001454       0.000218       0.000000
      0.001535       0.000219       0.000000
      0.001488       0.000206       0.000000
      0.001439       0.000189       0.000000
      0.001488       0.000206       0.000000
      0.001550       0.000193       0.000000
      0.001486       0.000173       0.000000
      0.001488       0.000206       0.000000
      0.001535       0.000219       0.000000
      0.001617       0.000213       0.000000
      0.001550       0.000193       0.000000
      0.001454       0.000218       0.000000
      0.001486       0.000214       0.000000
      0.001578       0.000220       0.000000
      0.001535       0.000219       0.000000
      0.001486       0.000214       0.000000
      0.001516       0.000196       0.000000
      0.001618       0.000199       0.000000
      0.001578       0.000220       0.000000
      0.001535       0.000219       0.000000
      0.001578       0.000220       0.000000
      0.001680       0.000222       0.000000
      0.001617       0.000213       0.000000
      0.001578       0.000220       0.000000
      0.001618       0.000199       0.000000
      0.001735       0.000200       0.000000
      0.001680       0.000222       0.000000
      0.001486       0.000173       0.000000
      0.001550       0.000193       0.000000
      0.001594       0.000167       0.000000
      0.001515       0.000147       0.000000
      0.001550       0.000193       0.000000
      0.001617       0.000213       0.000000
      0.001686       0.000189       0.000000
      0.001594       0.000167       0.000000
      0.001515       0.000147       0.000000
      0.001594       0.000167       0.000000
      0.001602       0.000129       0.000000
      0.001518       0.000116       0.000000
      0.001594       0.000167       0.000000
      0.001686       0.000189       0.000000
      0.001709       0.000143       0.000000
      0.001602       0.000129       0.000000
      0.001617       0.000213       0.000000
      0.001649       0.000220       0.000000
      0.001695       0.000214       0.000000
      0.001654       0.000204       0.000000
      0.001649       0.000220       0.000000
      0.001680       0.000222       0.000000
      0.001735       0.000220       0.000000
      0.001695       0.000214       0.000000
      0.001654       0.000204       0.000000
      0.001695       0.000214       0.000000
      0.001738       0.000202       0.000000
      0.001686       0.000189       0.000000
      0.001695       0.000214       0.000000
      0.001735       0.000220       0.000000
      0.001791       0.000214       0.000000
      0.001738       0.000202       0.000000
      0.001680       0.000222       0.000000
      0.001708       0.000216       0.000000
      0.001770       0.000217       0.000000
      0.001735       0.000220       0.000000
      0.001708       0.000216       0.000000
      0.001735       0.000200       0.000000
      0.001803       0.000199       0.000000
      0.001770       0.000217       0.000000
      0.001735       0.000220       0.000000
      0.001770       0.000217       0.000000
      0.001841       0.000217       0.000000
      0.001791       0.000214       0.000000
      0.001770       0.000217       0.000000
      0.001803       0.000199       0.000000
      0.001885       0.000197       0.000000
      0.001841       0.000217       0.000000
      0.001686       0.000189       0.000000
      0.001738       0.000202       0.000000
      0.001769       0.000181       0.000000
      0.001706       0.000168       0.000000
      0.001738       0.000202       0.000000
      0.001791       0.000214       0.000000
      0.001841       0.000195       0.000000
      0.001769       0.000181       0.000000
      0.001706       0.000168       0.000000
      0.001769       0.000181       0.000000
      0.001776       0.000151       0.000000
      0.001709       0.000143       0.000000
      0.001769       0.000181       0.000000
      0.001841       0.000195       0.000000
      0.001860       0.000159       0.000000
      0.001776       0.000151       0.000000
      0.001791       0.000214       0.000000
      0.001841       0.000217       0.000000
      0.001922       0.000210       0.000000
      0.001841       0.000195       0.000000
      0.001841       0.000217       0.000000
      0.001885       0.000197       0.000000
      0.001995       0.000191       0.000000
      0.001922       0.000210       0.000000
      0.001841       0.000195       0.000000
      0.001922       0.000210       0.000000
      0.001976       0.000168       0.000000
      0.001860       0.000159       0.000000
      0.001922       0.000210       0.000000
      0.001995       0.000191       0.000000
      0.002254       0.000164       0.000000
      0.001976       0.000168       0.000000
      0.000000       0.000000       0.000000
      0.000000       0.000000       0.000000
      0.000282       0.000038       0.000000
      0.000281       0.000047       0.000000
      0.000000       0.000000       0.000000
      0.000000       0.000000       0.000000
      0.000288       0.000027       0.000000
      0.000282       0.000038       0.000000
      0.000281       0.000047       0.000000
      0.000282       0.000038       0.000000
      0.000579       0.000072       0.000000
      0.000569       0.000094       0.000000
      0.000282       0.000038       0.000000
      0.000288       0.000027       0.000000
      0.000596       0.000046       0.000000
      0.000579       0.000072       0.000000
      0.000000       0.000000       0.000000
      0.000000       0.000000       0.000000
      0.000297       0.000016       0.000000
      0.000288       0.000027       0.000000
      0.000000       0.000000       0.000000
      0.000000       0.000000       0.000000
      0.000306       0.000009       0.000000
      0.000297       0.000016       0.000000
      0.000288       0.000027       0.000000
      0.000297       0.000016       0.000000
      0.000616       0.000025       0.000000
      0.000596       0.000046       0.000000
      0.000297       0.000016       0.000000
      0.000306       0.000009       0.000000
      0.000634       0.000011       0.000000
      0.000616       0.000025       0.000000
      0.000000       0.000000       0.000000
      0.000000       0.000000       0.000000
      0.000312       0.000004       0.000000
      0.000306       0.000009       0.000000
      0.000000       0.000000       0.000000
      0.000000       0.000000       0.000000
      0.000315       0.000000       0.000000
      0.000312       0.000004       0.000000
      0.000306       0.000009       0.000000
      0.000312       0.000004       0.000000
      0.000647       0.000004       0.000000
      0.000634       0.000011       0.000000
      0.000312       0.000004       0.000000
      0.000315       0.000000       0.000000
      0.000651       0.000000       0.000000
      0.000647       0.000004       0.000000
      0.000569       0.000094       0.000000
      0.000579       0.000072       0.000000
      0.000891       0.000097       0.000000
      0.000863       0.000137       0.000000
      0.000579       0.000072       0.000000
      0.000596       0.000046       0.000000
      0.000928       0.000053       0.000000
      0.000891       0.000097       0.000000
      0.000863       0.000137       0.000000
      0.000891       0.000097       0.000000
      0.001232       0.000103       0.000000
      0.001171       0.000173       0.000000
      0.000891       0.000097       0.000000
      0.000928       0.000053       0.000000
      0.001297       0.000042       0.000000
      0.001232       0.000103       0.000000
      0.000596       0.000046       0.000000
      0.000616       0.000025       0.000000
      0.000963       0.000023       0.000000
      0.000928       0.000053       0.000000
      0.000616       0.000025       0.000000
      0.000634       0.000011       0.000000
      0.000991       0.000007       0.000000
      0.000963       0.000023       0.000000
      0.000928       0.000053       0.000000
      0.000963       0.000023       0.000000
      0.001347       0.000009       0.000000
      0.001297       0.000042       0.000000
      0.000963       0.000023       0.000000
      0.000991       0.000007       0.000000
      0.001380      -0.000003       0.000000
      0.001347       0.000009       0.000000
      0.000634       0.000011       0.000000
      0.000647       0.000004       0.000000
      0.001008       0.000001       0.000000
      0.000991       0.000007       0.000000
      0.000647       0.000004       0.000000
      0.000651       0.000000       0.000000
      0.001013       0.000000       0.000000
      0.001008       0.000001       0.000000
      0.000991       0.000007       0.000000
      0.001008       0.000001       0.000000
      0.001398      -0.000004       0.000000
      0.001380      -0.000003       0.000000
      0.001008       0.000001       0.000000
      0.001013       0.000000       0.000000
      0.001404       0.000000       0.000000
      0.001398      -0.000004       0.000000
      0.001297       0.000042       0.000000
      0.001347       0.000009       0.000000
      0.001779      -0.000012       0.000000
      0.001733       0.000010       0.000000
      0.001347       0.000009       0.000000
      0.001380      -0.000003       0.000000
      0.001804      -0.000015       0.000000
      0.001779      -0.000012       0.000000
      0.001733       0.000010       0.000000
      0.001779      -0.000012       0.000000
      0.002251      -0.000023       0.000000
      0.002251      -0.000012       0.000000
      0.001779      -0.000012       0.000000
      0.001804      -0.000015       0.000000
      0.002251      -0.000021       0.000000
      0.002251      -0.000023       0.000000
      0.001380      -0.000003       0.000000
      0.001398      -0.000004       0.000000
      0.001816      -0.000010       0.000000
      0.001804      -0.000015       0.000000
      0.001398      -0.000004       0.000000
      0.001404       0.000000       0.000000
      0.001820       0.000000       0.000000
      0.001816      -0.000010       0.000000
      0.001804      -0.000015       0.000000
      0.001816      -0.000010       0.000000
      0.002251      -0.000012       0.000000
      0.002251      -0.000021       0.000000
      0.001816      -0.000010       0.000000
      0.001820       0.000000       0.000000
      0.002251       0.000000       0.000000
      0.002251      -0.000012       0.000000
      0.001171       0.000173       0.000000
      0.001199       0.000141       0.000000
      0.001377       0.000143       0.000000
      0.001335       0.000187       0.000000
      0.001199       0.000141       0.000000
      0.001232       0.000103       0.000000
      0.001424       0.000095       0.000000
      0.001377       0.000143       0.000000
      0.001335       0.000187       0.000000
      0.001377       0.000143       0.000000
      0.001580       0.000133       0.000000
      0.001516       0.000196       0.000000
      0.001377       0.000143       0.000000
      0.001424       0.000095       0.000000
      0.001645       0.000074       0.000000
      0.001580       0.000133       0.000000
      0.001232       0.000103       0.000000
      0.001265       0.000069       0.000000
      0.001467       0.000055       0.000000
      0.001424       0.000095       0.000000
      0.001265       0.000069       0.000000
      0.001297       0.000042       0.000000
      0.001504       0.000028       0.000000
      0.001467       0.000055       0.000000
      0.001424       0.000095       0.000000
      0.001467       0.000055       0.000000
      0.001696       0.000034       0.000000