# vtk DataFile Version 2.0
time_10.vtk
ASCII
DATASET UNSTRUCTURED_GRID
POINTS  1464 float
      0.000000       0.000000       0.000000
      0.083333       0.000000       0.000000
      0.083333       0.083333       0.000000
      0.000000       0.083333       0.000000
      0.083333       0.000000       0.000000
      0.166667       0.000000       0.000000
      0.166667       0.083333       0.000000
      0.083333       0.083333       0.000000
      0.000000       0.083333       0.000000
      0.083333       0.083333       0.000000
      0.083333       0.166667       0.000000
      0.000000       0.166667       0.000000
      0.083333       0.083333       0.000000
      0.166667       0.083333       0.000000
      0.166667       0.166667       0.000000
      0.083333       0.166667       0.000000
      0.166667       0.000000       0.000000
      0.250000       0.000000       0.000000
      0.250000       0.083333       0.000000
      0.166667       0.083333       0.000000
      0.250000       0.000000       0.000000
      0.333333       0.000000       0.000000
      0.333333       0.083333       0.000000
      0.250000       0.083333       0.000000
      0.166667       0.083333       0.000000
      0.250000       0.083333       0.000000
      0.250000       0.166667       0.000000
      0.166667       0.166667       0.000000
      0.250000       0.083333       0.000000
      0.333333       0.083333       0.000000
      0.333333       0.166667       0.000000
      0.250000       0.166667       0.000000
      0.333333       0.000000       0.000000
      0.416667       0.000000       0.000000
      0.416667       0.083333       0.000000
      0.333333       0.083333       0.000000
      0.416667       0.000000       0.000000
      0.500000       0.000000       0.000000
      0.500000       0.083333       0.000000
      0.416667       0.083333       0.000000
      0.333333       0.083333       0.000000
      0.416667       0.083333       0.000000
      0.416667       0.166667       0.000000
      0.333333       0.166667       0.000000
      0.416667       0.083333       0.000000
      0.500000       0.083333       0.000000
      0.500000       0.166667       0.000000
      0.416667       0.166667       0.000000
      0.000000       0.166667       0.000000
      0.083333       0.166667       0.000000
      0.083333       0.250000       0.000000
      0.000000       0.250000       0.000000
      0.083333       0.166667       0.000000
      0.166667       0.166667       0.000000
      0.166667       0.250000       0.000000
      0.083333       0.250000       0.000000
      0.000000       0.250000       0.000000
      0.083333       0.250000       0.000000
      0.083333       0.333333       0.000000
      0.000000       0.333333       0.000000
      0.083333       0.250000       0.000000
      0.166667       0.250000       0.000000
      0.166667       0.333333       0.000000
      0.083333       0.333333       0.000000
      0.166667       0.166667       0.000000
      0.250000       0.166667       0.000000
      0.250000       0.250000       0.000000
      0.166667       0.250000       0.000000
      0.250000       0.166667       0.000000
      0.333333       0.166667       0.000000
      0.333333       0.250000       0.000000
      0.250000       0.250000       0.000000
      0.166667       0.250000       0.000000
      0.250000       0.250000       0.000000
      0.250000       0.333333       0.000000
      0.166667       0.333333       0.000000
      0.250000       0.250000       0.000000
      0.333333       0.250000       0.000000
      0.333333       0.333333       0.000000
      0.250000       0.333333       0.000000
      0.333333       0.166667       0.000000
      0.416667       0.166667       0.000000
      0.416667       0.250000       0.000000
      0.333333       0.250000       0.000000
      0.416667       0.166667       0.000000
      0.500000       0.166667       0.000000
      0.500000       0.250000       0.000000
      0.416667       0.250000       0.000000
      0.333333       0.250000       0.000000
      0.416667       0.250000       0.000000
      0.416667       0.333333       0.000000
      0.333333       0.333333       0.000000
      0.000000       0.333333       0.000000
      0.083333       0.333333       0.000000
      0.083333       0.416667       0.000000
      0.000000       0.416667       0.000000
      0.083333       0.333333       0.000000
      0.166667       0.333333       0.000000
      0.166667       0.416667       0.000000
      0.083333       0.416667       0.000000
      0.000000       0.416667       0.000000
      0.083333       0.416667       0.000000
      0.083333       0.500000       0.000000
      0.000000       0.500000       0.000000
      0.083333       0.416667       0.000000
      0.166667       0.416667       0.000000
      0.166667       0.500000       0.000000
      0.083333       0.500000       0.000000
      0.166667       0.333333       0.000000
      0.250000       0.333333       0.000000
      0.250000       0.416667       0.000000
      0.166667       0.416667       0.000000
      0.250000       0.333333       0.000000
      0.333333       0.333333       0.000000
      0.333333       0.416667       0.000000
      0.250000       0.416667       0.000000
      0.166667       0.416667       0.000000
      0.250000       0.416667       0.000000
      0.250000       0.500000       0.000000
      0.166667       0.500000       0.000000
      0.250000       0.416667       0.000000
      0.333333       0.416667       0.000000
      0.333333       0.500000       0.000000
      0.250000       0.500000       0.000000
      0.333333       0.333333       0.000000
      0.375000       0.333333       0.000000
      0.375000       0.375000       0.000000
      0.333333       0.375000       0.000000
      0.375000       0.333333       0.000000
      0.416667       0.333333       0.000000
      0.416667       0.375000       0.000000
      0.375000       0.375000       0.000000
      0.333333       0.375000       0.000000
      0.375000       0.375000       0.000000
      0.375000       0.416667       0.000000
      0.333333       0.416667       0.000000
      0.375000       0.375000       0.000000
      0.416667       0.375000       0.000000
      0.416667       0.416667       0.000000
      0.375000       0.416667       0.000000
      0.416667       0.333333       0.000000
      0.458333       0.333333       0.000000
      0.458333       0.375000       0.000000
      0.416667       0.375000       0.000000
      0.416667       0.375000       0.000000
      0.458333       0.375000       0.000000
      0.458333       0.416667       0.000000
      0.416667       0.416667       0.000000
      0.333333       0.416667       0.000000
      0.375000       0.416667       0.000000
      0.375000       0.458333       0.000000
      0.333333       0.458333       0.000000
      0.375000       0.416667       0.000000
      0.416667       0.416667       0.000000
      0.416667       0.458333       0.000000
      0.375000       0.458333       0.000000
      0.333333       0.458333       0.000000
      0.375000       0.458333       0.000000
      0.375000       0.500000       0.000000
      0.333333       0.500000       0.000000
      0.375000       0.458333       0.000000
      0.416667       0.458333       0.000000
      0.416667       0.500000       0.000000
      0.375000       0.500000       0.000000
      0.416667       0.416667       0.000000
      0.437500       0.416667       0.000000
      0.437500       0.437500       0.000000
      0.416667       0.437500       0.000000
      0.437500       0.416667       0.000000
      0.458333       0.416667       0.000000
      0.458333       0.437500       0.000000
      0.437500       0.437500       0.000000
      0.416667       0.437500       0.000000
      0.437500       0.437500       0.000000
      0.437500       0.458333       0.000000
      0.416667       0.458333       0.000000
      0.437500       0.437500       0.000000
      0.458333       0.437500       0.000000
      0.458333       0.458333       0.000000
      0.437500       0.458333       0.000000
      0.458333       0.416667       0.000000
      0.479167       0.416667       0.000000
      0.479167       0.437500       0.000000
      0.458333       0.437500       0.000000
      0.458333       0.437500       0.000000
      0.479167       0.437500       0.000000
      0.479167       0.458333       0.000000
      0.458333       0.458333       0.000000
      0.416667       0.458333       0.000000
      0.437500       0.458333       0.000000
      0.437500       0.479167       0.000000
      0.416667       0.479167       0.000000
      0.437500       0.458333       0.000000
      0.458333       0.458333       0.000000
      0.458333       0.479167       0.000000
      0.437500       0.479167       0.000000
      0.416667       0.479167       0.000000
      0.437500       0.479167       0.000000
      0.437500       0.500000       0.000000
      0.416667       0.500000       0.000000
      0.437500       0.479167       0.000000
      0.458333       0.479167       0.000000
      0.458333       0.500000       0.000000
      0.437500       0.500000       0.000000
      0.458333       0.458333       0.000000
      0.468750       0.458333       0.000000
      0.468750       0.468750       0.000000
      0.458333       0.468750       0.000000
      0.468750       0.458333       0.000000
      0.479167       0.458333       0.000000
      0.479167       0.468750       0.000000
      0.468750       0.468750       0.000000
      0.458333       0.468750       0.000000
      0.468750       0.468750       0.000000
      0.468750       0.479167       0.000000
      0.458333       0.479167       0.000000
      0.468750       0.468750       0.000000
      0.479167       0.468750       0.000000
      0.479167       0.479167       0.000000
      0.468750       0.479167       0.000000
[...]
POINT_DATA  1464
VECTORS U float 
      0.000000       0.000000       0.000000
      0.000000       0.000000       0.000000
      0.000417       0.000008       0.000000
      0.000409       0.000000       0.000000
      0.000000       0.000000       0.000000
      0.000000       0.000000       0.000000
      0.000441       0.000019       0.000000
      0.000417       0.000008       0.000000
      0.000409       0.000000       0.000000
      0.000417       0.000008       0.000000
      0.000769       0.000005       0.000000
      0.000755       0.000000       0.000000
      0.000417       0.000008       0.000000
      0.000441       0.000019       0.000000
      0.000810       0.000017       0.000000
      0.000769       0.000005       0.000000
      0.000000       0.000000       0.000000
      0.000000       0.000000       0.000000
      0.000478       0.000038       0.000000
      0.000441       0.000019       0.000000
      0.000000       0.000000       0.000000
      0.000000       0.000000       0.000000
      0.000521       0.000069       0.000000
      0.000478       0.000038       0.000000
      0.000441       0.000019       0.000000
      0.000478       0.000038       0.000000
      0.000877       0.000046       0.000000
      0.000810       0.000017       0.000000
      0.000478       0.000038       0.000000
      0.000521       0.000069       0.000000
      0.000964       0.000102       0.000000
      0.000877       0.000046       0.000000
      0.000000       0.000000       0.000000
      0.000000       0.000000       0.000000
      0.000558       0.000111       0.000000
      0.000521       0.000069       0.000000
      0.000000       0.000000       0.000000
      0.000000       0.000000       0.000000
      0.000574       0.000152       0.000000
      0.000558       0.000111       0.000000
      0.000521       0.000069       0.000000
      0.000558       0.000111       0.000000
      0.001056       0.000193       0.000000
      0.000964       0.000102       0.000000
      0.000558       0.000111       0.000000
      0.000574       0.000152       0.000000
      0.001124       0.000296       0.000000
      0.001056       0.000193       0.000000
      0.000755       0.000000       0.000000
      0.000769       0.000005       0.000000
      0.001041      -0.000006       0.000000
      0.001025       0.000000       0.000000
      0.000769       0.000005       0.000000
      0.000810       0.000017       0.000000
      0.001091      -0.000002       0.000000
      0.001041      -0.000006       0.000000
      0.001025       0.000000       0.000000
      0.001041      -0.000006       0.000000
      0.001229      -0.000020       0.000000
      0.001214       0.000000       0.000000
      0.001041      -0.000006       0.000000
      0.001091      -0.000002       0.000000
      0.001277      -0.000032       0.000000
      0.001229      -0.000020       0.000000
      0.000810       0.000017       0.000000
      0.000877       0.000046       0.000000
      0.001178       0.000022       0.000000
      0.001091      -0.000002       0.000000
      0.000877       0.000046       0.000000
      0.000964       0.000102       0.000000
      0.001306       0.000086       0.000000
      0.001178       0.000022       0.000000
      0.001091      -0.000002       0.000000
      0.001178       0.000022       0.000000
      0.001363      -0.000024       0.000000
      0.001277      -0.000032       0.000000
      0.001178       0.000022       0.000000
      0.001306       0.000086       0.000000
      0.001499       0.000023       0.000000
      0.001363      -0.000024       0.000000
      0.000964       0.000102       0.000000
      0.001056       0.000193       0.000000
      0.001473       0.000217       0.000000
      0.001306       0.000086       0.000000
      0.001056       0.000193       0.000000
      0.001124       0.000296       0.000000
      0.001647       0.000413       0.000000
      0.001473       0.000217       0.000000
      0.001306       0.000086       0.000000
      0.001473       0.000217       0.000000
      0.001711       0.000148       0.000000
      0.001499       0.000023       0.000000
      0.001214       0.000000       0.000000
      0.001229      -0.000020       0.000000
      0.001343      -0.000033       0.000000
      0.001331       0.000000       0.000000
      0.001229      -0.000020       0.000000
      0.001277      -0.000032       0.000000
      0.001378      -0.000059       0.000000
      0.001343      -0.000033       0.000000
      0.001331       0.000000       0.000000
      0.001343      -0.000033       0.000000
      0.001401      -0.000041       0.000000
      0.001394       0.000000       0.000000
      0.001343      -0.000033       0.000000
      0.001378      -0.000059       0.000000
      0.001421      -0.000075       0.000000
      0.001401      -0.000041       0.000000
      0.001277      -0.000032       0.000000
      0.001363      -0.000024       0.000000
      0.001438      -0.000068       0.000000
      0.001378      -0.000059       0.000000
      0.001363      -0.000024       0.000000
      0.001499       0.000023       0.000000
      0.001528      -0.000045       0.000000
      0.001438      -0.000068       0.000000
      0.001378      -0.000059       0.000000
      0.001438      -0.000068       0.000000
      0.001450      -0.000091       0.000000
      0.001421      -0.000075       0.000000
      0.001438      -0.000068       0.000000
      0.001528      -0.000045       0.000000
      0.001476      -0.000073       0.000000
      0.001450      -0.000091       0.000000
      0.001499       0.000023       0.000000
      0.001593       0.000072       0.000000
      0.001613       0.000026       0.000000
      0.001531      -0.000014       0.000000
      0.001593       0.000072       0.000000
      0.001711       0.000148       0.000000
      0.001716       0.000091       0.000000
      0.001613       0.000026       0.000000
      0.001531      -0.000014       0.000000
      0.001613       0.000026       0.000000
      0.001585      -0.000011       0.000000
      0.001528      -0.000045       0.000000
      0.001613       0.000026       0.000000
      0.001716       0.000091       0.000000
      0.001652       0.000047       0.000000
      0.001585      -0.000011       0.000000
      0.001711       0.000148       0.000000
      0.001863       0.000264       0.000000
      0.001853       0.000191       0.000000
      0.001716       0.000091       0.000000
      0.001716       0.000091       0.000000
      0.001853       0.000191       0.000000
      0.001728       0.000138       0.000000
      0.001652       0.000047       0.000000
      0.001528      -0.000045       0.000000
      0.001585      -0.000011       0.000000
      0.001534      -0.000032       0.000000
      0.001503      -0.000064       0.000000
      0.001585      -0.000011       0.000000
      0.001652       0.000047       0.000000
      0.001563       0.000027       0.000000
      0.001534      -0.000032       0.000000
      0.001503      -0.000064       0.000000
      0.001534      -0.000032       0.000000
      0.001482      -0.000039       0.000000
      0.001476      -0.000073       0.000000
      0.001534      -0.000032       0.000000
      0.001563       0.000027       0.000000
      0.001480       0.000023       0.000000
      0.001482      -0.000039       0.000000
      0.001652       0.000047       0.000000
      0.001689       0.000087       0.000000
      0.001632       0.000075       0.000000
      0.001608       0.000034       0.000000
      0.001689       0.000087       0.000000
      0.001728       0.000138       0.000000
      0.001654       0.000127       0.000000
      0.001632       0.000075       0.000000
      0.001608       0.000034       0.000000
      0.001632       0.000075       0.000000
      0.001576       0.000069       0.000000
      0.001563       0.000027       0.000000
      0.001632       0.000075       0.000000
      0.001654       0.000127       0.000000
      0.001587       0.000123       0.000000
      0.001576       0.000069       0.000000
      0.001728       0.000138       0.000000
      0.001769       0.000202       0.000000
      0.001675       0.000193       0.000000
      0.001654       0.000127       0.000000
      0.001654       0.000127       0.000000
      0.001675       0.000193       0.000000
      0.001597       0.000189       0.000000
      0.001587       0.000123       0.000000
      0.001563       0.000027       0.000000
      0.001576       0.000069       0.000000
      0.001525       0.000067       0.000000
      0.001520       0.000023       0.000000
      0.001576       0.000069       0.000000
      0.001587       0.000123       0.000000
      0.001530       0.000121       0.000000
      0.001525       0.000067       0.000000
      0.001520       0.000023       0.000000
      0.001525       0.000067       0.000000
      0.001477       0.000067       0.000000
      0.001480       0.000023       0.000000
      0.001525       0.000067       0.000000
      0.001530       0.000121       0.000000
      0.001474       0.000121       0.000000
      0.001477       0.000067       0.000000
      0.001587       0.000123       0.000000
      0.001592       0.000154       0.000000
      0.001561       0.000153       0.000000
      0.001558       0.000122       0.000000
      0.001592       0.000154       0.000000
      0.001597       0.000189       0.000000
      0.001564       0.000187       0.000000
      0.001561       0.000153       0.000000
      0.001558       0.000122       0.000000
      0.001561       0.000153       0.000000
      0.001532       0.000152       0.000000
      0.001530       0.000121       0.000000
      0.001561       0.000153       0.000000
      0.001564       0.000187       0.000000
      0.001534       0.000185       0.000000
      0.001532       0.000152       0.000000
      0.001597       0.000189       0.000000
      0.001603       0.000228       0.000000
      0.001570       0.000225       0.000000
      0.001564       0.000187       0.000000
      0.001603       0.000228       0.000000
      0.001610       0.000271       0.000000
      0.001582       0.000273       0.000000
      0.001570       0.000225       0.000000
      0.001564       0.000187       0.000000
      0.001570       0.000225       0.000000
      0.001540       0.000220       0.000000
      0.001534       0.000185       0.000000
      0.001570       0.000225       0.000000
      0.001582       0.000273       0.000000
      0.001541       0.000275       0.000000
      0.001540       0.000220       0.000000
      0.001530       0.000121       0.000000
      0.001532       0.000152       0.000000
      0.001504       0.000151       0.000000
      0.001502       0.000121       0.000000
      0.001532       0.000152       0.000000
      0.001534       0.000185       0.000000
      0.001506       0.000182       0.000000
      0.001504       0.000151       0.000000
      0.001502       0.000121       0.000000
      0.001504       0.000151       0.000000
      0.001475       0.000151       0.000000
      0.001474       0.000121       0.000000
      0.001504       0.000151       0.000000
      0.001506       0.000182       0.000000
      0.001481       0.000185       0.000000
      0.001475       0.000151       0.000000
      0.001534       0.000185       0.000000
      0.001540       0.000220       0.000000
      0.001510       0.000211       0.000000
      0.001506       0.000182       0.000000
      0.001540       0.000220       0.000000
      0.001541       0.000275       0.000000
      0.001260       0.000219       0.000000
      0.001510       0.000211       0.000000
      0.001506       0.000182       0.000000
      0.001510       0.000211       0.000000
      0.001526       0.000225       0.000000
      0.001481       0.000185       0.000000
      0.001510       0.000211       0.000000
      0.001260       0.000219       0.000000
      0.007673       0.000707       0.000000
      0.001526       0.000225       0.000000
      0.001675       0.000193       0.000000
      0.001685       0.000233       0.000000
      0.001641       0.000230       0.000000
      0.001634       0.000191       0.000000
      0.001685       0.000233       0.000000
      0.001695       0.000279       0.000000
      0.001649       0.000277       0.000000
      0.001641       0.000230       0.000000
      0.001634       0.000191       0.000000
      0.001641       0.000230       0.000000
      0.001603       0.000228       0.000000
      0.001597       0.000189       0.000000
      0.001641       0.000230       0.000000
      0.001649       0.000277       0.000000
      0.001610       0.000271       0.000000
      0.001603       0.000228       0.000000
      0.001853       0.000191       0.000000
      0.001943       0.000264       0.000000
      0.001868       0.000225       0.000000
      0.001799       0.000159       0.000000
      0.001943       0.000264       0.000000
      0.002061       0.000363       0.000000
      0.001956       0.000313       0.000000
      0.001868       0.000225       0.000000
      0.001799       0.000159       0.000000
      0.001868       0.000225       0.000000
      0.001769       0.000202       0.000000
      0.001728       0.000138       0.000000
      0.001769       0.000202       0.000000
      0.001791       0.000242       0.000000
      0.001735       0.000236       0.000000
      0.001720       0.000196       0.000000
      0.001791       0.000242       0.000000
      0.001814       0.000287       0.000000
      0.001750       0.000283       0.000000
      0.001735       0.000236       0.000000
      0.001720       0.000196       0.000000
      0.001735       0.000236       0.000000
      0.001685       0.000233       0.000000
      0.001675       0.000193       0.000000
      0.001735       0.000236       0.000000
      0.001750       0.000283       0.000000
      0.001695       0.000279       0.000000
      0.001685       0.000233       0.000000
      0.001868       0.000225       0.000000
      0.001909       0.000266       0.000000
      0.001851       0.000251       0.000000
      0.001820       0.000212       0.000000
      0.001909       0.000266       0.000000
      0.001956       0.000313       0.000000
      0.001885       0.000297       0.000000
      0.001851       0.000251       0.000000
      0.001820       0.000212       0.000000
      0.001851       0.000251       0.000000
      0.001791       0.000242       0.000000
      0.001769       0.000202       0.000000
      0.001851       0.000251       0.000000
      0.001885       0.000297       0.000000
      0.001814       0.000287       0.000000
      0.001791       0.000242       0.000000
      0.001473       0.000217       0.000000
      0.001564       0.000312       0.000000
      0.001750       0.000307       0.000000
      0.001624       0.000194       0.000000
      0.001564       0.000312       0.000000
      0.001647       0.000413       0.000000
      0.001880       0.000448       0.000000
      0.001750       0.000307       0.000000
      0.001624       0.000194       0.000000
      0.001750       0.000307       0.000000
      0.001863       0.000264       0.000000
      0.001711       0.000148       0.000000
      0.001750       0.000307       0.000000
      0.001880       0.000448       0.000000
      0.002055       0.000441       0.000000
      0.001863       0.000264       0.000000
      0.001863       0.000264       0.000000
      0.001954       0.000344       0.000000
      0.001972       0.000308       0.000000
      0.001875       0.000229       0.000000
      0.001954       0.000344       0.000000
      0.002055       0.000441       0.000000
      0.002090       0.000412       0.000000
      0.001972       0.000308       0.000000
      0.001875       0.000229       0.000000
      0.001972       0.000308       0.000000
      0.001943       0.000264       0.000000
      0.001853       0.000191       0.000000
      0.001972       0.000308       0.000000
      0.002090       0.000412       0.000000
      0.002061       0.000363       0.000000
      0.001943       0.000264       0.000000
      0.000000       0.000000       0.000000
      0.000000       0.000000       0.000000
      0.000571       0.000165       0.000000
      0.000574       0.000152       0.000000
      0.000000       0.000000       0.000000
      0.000000       0.000000       0.000000
      0.000570       0.000139       0.000000
      0.000571       0.000165       0.000000
      0.000574       0.000152       0.000000
      0.000571       0.000165       0.000000
      0.001157       0.000332       0.000000
      0.001124       0.000296       0.000000
      0.000571       0.000165       0.000000
      0.000570       0.000139       0.000000
      0.001196       0.000263       0.000000
      0.001157       0.000332       0.000000
      0.000000       0.000000       0.000000
      0.000000       0.000000       0.000000
      0.000587       0.000093       0.000000
      0.000570       0.000139       0.000000
      0.000000       0.000000       0.000000
      0.000000       0.000000       0.000000
      0.000615       0.000051       0.000000
      0.000587       0.000093       0.000000
      0.000570       0.000139       0.000000
      0.000587       0.000093       0.000000
      0.001264       0.000157       0.000000
      0.001196       0.000263       0.000000
      0.000587       0.000093       0.000000
      0.000615       0.000051       0.000000
      0.001336       0.000077       0.000000
      0.001264       0.000157       0.000000
      0.000000       0.000000       0.000000
      0.000000       0.000000       0.000000
      0.000640       0.000022       0.000000
      0.000615       0.000051       0.000000
      0.000000       0.000000       0.000000
      0.000000       0.000000       0.000000
      0.000649       0.000000       0.000000
      0.000640       0.000022       0.000000
      0.000615       0.000051       0.000000
      0.000640       0.000022       0.000000
      0.001388       0.000029       0.000000
      0.001336       0.000077       0.000000
      0.000640       0.000022       0.000000
      0.000649       0.000000       0.000000
      0.001407       0.000000       0.000000
      0.001388       0.000029       0.000000
      0.001124       0.000296       0.000000
      0.001157       0.000332       0.000000
      0.001764       0.000497       0.000000
      0.001647       0.000413       0.000000
      0.001157       0.000332       0.000000
      0.001196       0.000263       0.000000
      0.001901       0.000341       0.000000
      0.001764       0.000497       0.000000
      0.001764       0.000497       0.000000
      0.001901       0.000341       0.000000
      0.002836       0.000308       0.000000
      0.002446       0.000655       0.000000
      0.001196       0.000263       0.000000
      0.001264       0.000157       0.000000
      0.002067       0.000167       0.000000
      0.001901       0.000341       0.000000
      0.001264       0.000157       0.000000
      0.001336       0.000077       0.000000
      0.002198       0.000066       0.000000
      0.002067       0.000167       0.000000
      0.001901       0.000341       0.000000
      0.002067       0.000167       0.000000
      0.003106       0.000106       0.000000
      0.002836       0.000308       0.000000
      0.002067       0.000167       0.000000
      0.002198       0.000066       0.000000
      0.003258       0.000022       0.000000
      0.003106       0.000106       0.000000
      0.001336       0.000077       0.000000
      0.001388       0.000029       0.000000
      0.002277       0.000020       0.000000
      0.002198       0.000066       0.000000
      0.001388       0.000029       0.000000
      0.001407       0.000000       0.000000
      0.002303       0.000000       0.000000