# vtk DataFile Version 2.0
time_10.vtk
ASCII
DATASET UNSTRUCTURED_GRID
POINTS  1284 float
      0.000000       0.000000       0.000000
      0.083333       0.000000       0.000000
      0.083333       0.083333       0.000000
      0.000000       0.083333       0.000000
      0.083333       0.000000       0.000000
      0.166667       0.000000       0.000000
      0.166667       0.083333       0.000000
      0.083333       0.083333       0.000000
      0.000000       0.083333       0.000000
      0.083333       0.083333       0.000000
      0.083333       0.166667       0.000000
      0.000000       0.166667       0.000000
      0.083333       0.083333       0.000000
      0.166667       0.083333       0.000000
      0.166667       0.166667       0.000000
      0.083333       0.166667       0.000000
      0.166667       0.000000       0.000000
      0.250000       0.000000       0.000000
      0.250000       0.083333       0.000000
      0.166667       0.083333       0.000000
      0.250000       0.000000       0.000000
      0.333333       0.000000       0.000000
      0.333333       0.083333       0.000000
      0.250000       0.083333       0.000000
      0.166667       0.083333       0.000000
      0.250000       0.083333       0.000000
      0.250000       0.166667       0.000000
      0.166667       0.166667       0.000000
      0.250000       0.083333       0.000000
      0.333333       0.083333       0.000000
      0.333333       0.166667       0.000000
      0.250000       0.166667       0.000000
      0.333333       0.000000       0.000000
      0.416667       0.000000       0.000000
      0.416667       0.083333       0.000000
      0.333333       0.083333       0.000000
      0.416667       0.000000       0.000000
      0.500000       0.000000       0.000000
      0.500000       0.083333       0.000000
      0.416667       0.083333       0.000000
      0.333333       0.083333       0.000000
      0.416667       0.083333       0.000000
      0.416667       0.166667       0.000000
      0.333333       0.166667       0.000000
      0.416667       0.083333       0.000000
      0.500000       0.083333       0.000000
      0.500000       0.166667       0.000000
      0.416667       0.166667       0.000000
      0.000000       0.166667       0.000000
      0.083333       0.166667       0.000000
      0.083333       0.250000       0.000000
      0.000000       0.250000       0.000000
      0.083333       0.166667       0.000000
      0.166667       0.166667       0.000000
      0.166667       0.250000       0.000000
      0.083333       0.250000       0.000000
      0.000000       0.250000       0.000000
      0.083333       0.250000       0.000000
      0.083333       0.333333       0.000000
      0.000000       0.333333       0.000000
      0.083333       0.250000       0.000000
      0.166667       0.250000       0.000000
      0.166667       0.333333       0.000000
      0.083333       0.333333       0.000000
      0.166667       0.166667       0.000000
      0.250000       0.166667       0.000000
      0.250000       0.250000       0.000000
      0.166667       0.250000       0.000000
      0.250000       0.166667       0.000000
      0.333333       0.166667       0.000000
      0.333333       0.250000       0.000000
      0.250000       0.250000       0.000000
      0.166667       0.250000       0.000000
      0.250000       0.250000       0.000000
      0.250000       0.333333       0.000000
      0.166667       0.333333       0.000000
      0.250000       0.250000       0.000000
      0.333333       0.250000       0.000000
      0.333333       0.333333       0.000000
      0.250000       0.333333       0.000000
      0.333333       0.166667       0.000000
      0.416667       0.166667       0.000000
      0.416667       0.250000       0.000000
      0.333333       0.250000       0.000000
      0.416667       0.166667       0.000000
      0.500000       0.166667       0.000000
      0.500000       0.250000       0.000000
      0.416667       0.250000       0.000000
      0.333333       0.250000       0.000000
      0.416667       0.250000       0.000000
      0.416667       0.333333       0.000000
      0.333333       0.333333       0.000000
      0.416667       0.250000       0.000000
      0.500000       0.250000       0.000000
      0.500000       0.333333       0.000000
      0.416667       0.333333       0.000000
      0.000000       0.333333       0.000000
      0.083333       0.333333       0.000000
      0.083333       0.416667       0.000000
      0.000000       0.416667       0.000000
      0.083333       0.333333       0.000000
      0.166667       0.333333       0.000000
      0.166667       0.416667       0.000000
      0.083333       0.416667       0.000000
      0.000000       0.416667       0.000000
      0.083333       0.416667       0.000000
      0.083333       0.500000       0.000000
      0.000000       0.500000       0.000000
      0.083333       0.416667       0.000000
      0.166667       0.416667       0.000000
      0.166667       0.500000       0.000000
      0.083333       0.500000       0.000000
      0.166667       0.333333       0.000000
      0.250000       0.333333       0.000000
      0.250000       0.416667       0.000000
      0.166667       0.416667       0.000000
      0.250000       0.333333       0.000000
      0.333333       0.333333       0.000000
      0.333333       0.416667       0.000000
      0.250000       0.416667       0.000000
      0.166667       0.416667       0.000000
      0.250000       0.416667       0.000000
      0.250000       0.500000       0.000000
      0.166667       0.500000       0.000000
      0.250000       0.416667       0.000000
      0.333333       0.416667       0.000000
      0.333333       0.500000       0.000000
      0.250000       0.500000       0.000000
      0.333333       0.333333       0.000000
      0.375000       0.333333       0.000000
      0.375000       0.375000       0.000000
      0.333333       0.375000       0.000000
      0.375000       0.333333       0.000000
      0.416667       0.333333       0.000000
      0.416667       0.375000       0.000000
      0.375000       0.375000       0.000000
      0.333333       0.375000       0.000000
      0.375000       0.375000       0.000000
      0.375000       0.416667       0.000000
      0.333333       0.416667       0.000000
      0.375000       0.375000       0.000000
      0.416667       0.375000       0.000000
      0.416667       0.416667       0.000000
      0.375000       0.416667       0.000000
      0.416667       0.333333       0.000000
      0.458333       0.333333       0.000000
      0.458333       0.375000       0.000000
      0.416667       0.375000       0.000000
      0.458333       0.333333       0.000000
      0.500000       0.333333       0.000000
      0.500000       0.375000       0.000000
      0.458333       0.375000       0.000000
      0.416667       0.375000       0.000000
      0.458333       0.375000       0.000000
      0.458333       0.416667       0.000000
      0.416667       0.416667       0.000000
      0.333333       0.416667       0.000000
      0.375000       0.416667       0.000000
      0.375000       0.458333       0.000000
      0.333333       0.458333       0.000000
      0.375000       0.416667       0.000000
      0.416667       0.416667       0.000000
      0.416667       0.458333       0.000000
      0.375000       0.458333       0.000000
      0.333333       0.458333       0.000000
      0.375000       0.458333       0.000000
      0.375000       0.500000       0.000000
      0.333333       0.500000       0.000000
      0.375000       0.458333       0.000000
      0.416667       0.458333       0.000000
      0.416667       0.500000       0.000000
      0.375000       0.500000       0.000000
      0.416667       0.416667       0.000000
      0.437500       0.416667       0.000000
      0.437500       0.437500       0.000000
      0.416667       0.437500       0.000000
      0.437500       0.416667       0.000000
      0.458333       0.416667       0.000000
      0.458333       0.437500       0.000000
      0.437500       0.437500       0.000000
      0.416667       0.437500       0.000000
      0.437500       0.437500       0.000000
      0.437500       0.458333       0.000000
      0.416667       0.458333       0.000000
      0.437500       0.437500       0.000000
      0.458333       0.437500       0.000000
      0.458333       0.458333       0.000000
      0.437500       0.458333       0.000000
      0.458333       0.416667       0.000000
      0.479167       0.416667       0.000000
      0.479167       0.437500       0.000000
      0.458333       0.437500       0.000000
      0.458333       0.437500       0.000000
      0.479167       0.437500       0.000000
      0.479167       0.458333       0.000000
      0.458333       0.458333       0.000000
      0.416667       0.458333       0.000000
      0.437500       0.458333       0.000000
      0.437500       0.479167       0.000000
      0.416667       0.479167       0.000000
      0.437500       0.458333       0.000000
      0.458333       0.458333       0.000000
      0.458333       0.479167       0.000000
      0.437500       0.479167       0.000000
      0.416667       0.479167       0.000000
      0.437500       0.479167       0.000000
      0.437500       0.500000       0.000000
      0.416667       0.500000       0.000000
      0.437500       0.479167       0.000000
      0.458333       0.479167       0.000000
      0.458333       0.500000       0.000000
      0.437500       0.500000       0.000000
      0.458333       0.458333       0.000000
      0.468750       0.458333       0.000000
      0.468750       0.468750       0.000000
      0.458333       0.468750       0.000000
      0.468750       0.458333       0.000000
      0.479167       0.458333       0.000000
      0.479167       0.468750       0.000000
      0.468750       0.468750       0.000000
[...]
POINT_DATA  1284
VECTORS U float 
      0.000000       0.000000       0.000000
      0.000000       0.000000       0.000000
      0.000477       0.000013       0.000000
      0.000470       0.000000       0.000000
      0.000000       0.000000       0.000000
      0.000000       0.000000       0.000000
      0.000495       0.000029       0.000000
      0.000477       0.000013       0.000000
      0.000470       0.000000       0.000000
      0.000477       0.000013       0.000000
      0.000886       0.000017       0.000000
      0.000874       0.000000       0.000000
      0.000477       0.000013       0.000000
      0.000495       0.000029       0.000000
      0.000920       0.000041       0.000000
      0.000886       0.000017       0.000000
      0.000000       0.000000       0.000000
      0.000000       0.000000       0.000000
      0.000522       0.000051       0.000000
      0.000495       0.000029       0.000000
      0.000000       0.000000       0.000000
      0.000000       0.000000       0.000000
      0.000550       0.000080       0.000000
      0.000522       0.000051       0.000000
      0.000495       0.000029       0.000000
      0.000522       0.000051       0.000000
      0.000974       0.000079       0.000000
      0.000920       0.000041       0.000000
      0.000522       0.000051       0.000000
      0.000550       0.000080       0.000000
      0.001039       0.000137       0.000000
      0.000974       0.000079       0.000000
      0.000000       0.000000       0.000000
      0.000000       0.000000       0.000000
      0.000568       0.000114       0.000000
      0.000550       0.000080       0.000000
      0.000000       0.000000       0.000000
      0.000000       0.000000       0.000000
      0.000571       0.000138       0.000000
      0.000568       0.000114       0.000000
      0.000550       0.000080       0.000000
      0.000568       0.000114       0.000000
      0.001098       0.000214       0.000000
      0.001039       0.000137       0.000000
      0.000568       0.000114       0.000000
      0.000571       0.000138       0.000000
      0.001134       0.000276       0.000000
      0.001098       0.000214       0.000000
      0.000874       0.000000       0.000000
      0.000886       0.000017       0.000000
      0.001212       0.000012       0.000000
      0.001196       0.000000       0.000000
      0.000886       0.000017       0.000000
      0.000920       0.000041       0.000000
      0.001260       0.000034       0.000000
      0.001212       0.000012       0.000000
      0.001196       0.000000       0.000000
      0.001212       0.000012       0.000000
      0.001445       0.000001       0.000000
      0.001427       0.000000       0.000000
      0.001212       0.000012       0.000000
      0.001260       0.000034       0.000000
      0.001500       0.000010       0.000000
      0.001445       0.000001       0.000000
      0.000920       0.000041       0.000000
      0.000974       0.000079       0.000000
      0.001341       0.000076       0.000000
      0.001260       0.000034       0.000000
      0.000974       0.000079       0.000000
      0.001039       0.000137       0.000000
      0.001454       0.000153       0.000000
      0.001341       0.000076       0.000000
      0.001260       0.000034       0.000000
      0.001341       0.000076       0.000000
      0.001597       0.000040       0.000000
      0.001500       0.000010       0.000000
      0.001341       0.000076       0.000000
      0.001454       0.000153       0.000000
      0.001747       0.000112       0.000000
      0.001597       0.000040       0.000000
      0.001039       0.000137       0.000000
      0.001098       0.000214       0.000000
      0.001583       0.000277       0.000000
      0.001454       0.000153       0.000000
      0.001098       0.000214       0.000000
      0.001134       0.000276       0.000000
      0.001690       0.000404       0.000000
      0.001583       0.000277       0.000000
      0.001454       0.000153       0.000000
      0.001583       0.000277       0.000000
      0.001967       0.000263       0.000000
      0.001747       0.000112       0.000000
      0.001583       0.000277       0.000000
      0.001690       0.000404       0.000000
      0.002226       0.000512       0.000000
      0.001967       0.000263       0.000000
      0.001427       0.000000       0.000000
      0.001445       0.000001       0.000000
      0.001586      -0.000014       0.000000
      0.001569       0.000000       0.000000
      0.001445       0.000001       0.000000
      0.001500       0.000010       0.000000
      0.001636      -0.000020       0.000000
      0.001586      -0.000014       0.000000
      0.001569       0.000000       0.000000
      0.001586      -0.000014       0.000000
      0.001645      -0.000027       0.000000
      0.001632       0.000000       0.000000
      0.001586      -0.000014       0.000000
      0.001636      -0.000020       0.000000
      0.001685      -0.000046       0.000000
      0.001645      -0.000027       0.000000
      0.001500       0.000010       0.000000
      0.001597       0.000040       0.000000
      0.001724      -0.000010       0.000000
      0.001636      -0.000020       0.000000
      0.001597       0.000040       0.000000
      0.001747       0.000112       0.000000
      0.001861       0.000031       0.000000
      0.001724      -0.000010       0.000000
      0.001636      -0.000020       0.000000
      0.001724      -0.000010       0.000000
      0.001750      -0.000051       0.000000
      0.001685      -0.000046       0.000000
      0.001724      -0.000010       0.000000
      0.001861       0.000031       0.000000
      0.001833      -0.000027       0.000000
      0.001750      -0.000051       0.000000
      0.001747       0.000112       0.000000
      0.001848       0.000175       0.000000
      0.001935       0.000127       0.000000
      0.001828       0.000072       0.000000
      0.001848       0.000175       0.000000
      0.001967       0.000263       0.000000
      0.002071       0.000213       0.000000
      0.001935       0.000127       0.000000
      0.001828       0.000072       0.000000
      0.001935       0.000127       0.000000
      0.001955       0.000073       0.000000
      0.001861       0.000031       0.000000
      0.001935       0.000127       0.000000
      0.002071       0.000213       0.000000
      0.002077       0.000143       0.000000
      0.001955       0.000073       0.000000
      0.001967       0.000263       0.000000
      0.002100       0.000385       0.000000
      0.002246       0.000347       0.000000
      0.002071       0.000213       0.000000
      0.002100       0.000385       0.000000
      0.002226       0.000512       0.000000
      0.002455       0.000540       0.000000
      0.002246       0.000347       0.000000
      0.002071       0.000213       0.000000
      0.002246       0.000347       0.000000
      0.002248       0.000262       0.000000
      0.002077       0.000143       0.000000
      0.001861       0.000031       0.000000
      0.001955       0.000073       0.000000
      0.001922       0.000030       0.000000
      0.001855      -0.000004       0.000000
      0.001955       0.000073       0.000000
      0.002077       0.000143       0.000000
      0.001998       0.000088       0.000000
      0.001922       0.000030       0.000000
      0.001855      -0.000004       0.000000
      0.001922       0.000030       0.000000
      0.001873       0.000006       0.000000
      0.001833      -0.000027       0.000000
      0.001922       0.000030       0.000000
      0.001998       0.000088       0.000000
      0.001902       0.000066       0.000000
      0.001873       0.000006       0.000000
      0.002077       0.000143       0.000000
      0.002154       0.000194       0.000000
      0.002106       0.000158       0.000000
      0.002045       0.000112       0.000000
      0.002154       0.000194       0.000000
      0.002248       0.000262       0.000000
      0.002178       0.000219       0.000000
      0.002106       0.000158       0.000000
      0.002045       0.000112       0.000000
      0.002106       0.000158       0.000000
      0.002039       0.000133       0.000000
      0.001998       0.000088       0.000000
      0.002106       0.000158       0.000000
      0.002178       0.000219       0.000000
      0.002083       0.000192       0.000000
      0.002039       0.000133       0.000000
      0.002248       0.000262       0.000000
      0.002369       0.000356       0.000000
      0.002269       0.000302       0.000000
      0.002178       0.000219       0.000000
      0.002178       0.000219       0.000000
      0.002269       0.000302       0.000000
      0.002129       0.000273       0.000000
      0.002083       0.000192       0.000000
      0.001998       0.000088       0.000000
      0.002039       0.000133       0.000000
      0.001971       0.000119       0.000000
      0.001948       0.000074       0.000000
      0.002039       0.000133       0.000000
      0.002083       0.000192       0.000000
      0.001991       0.000181       0.000000
      0.001971       0.000119       0.000000
      0.001948       0.000074       0.000000
      0.001971       0.000119       0.000000
      0.001910       0.000113       0.000000
      0.001902       0.000066       0.000000
      0.001971       0.000119       0.000000
      0.001991       0.000181       0.000000
      0.001914       0.000177       0.000000
      0.001910       0.000113       0.000000
      0.002083       0.000192       0.000000
      0.002105       0.000229       0.000000
      0.002050       0.000223       0.000000
      0.002035       0.000185       0.000000
      0.002105       0.000229       0.000000
      0.002129       0.000273       0.000000
      0.002064       0.000267       0.000000
      0.002050       0.000223       0.000000
      0.002035       0.000185       0.000000
      0.002050       0.000223       0.000000
      0.002000       0.000219       0.000000
      0.001991       0.000181       0.000000
      0.002050       0.000223       0.000000
      0.002064       0.000267       0.000000
      0.002008       0.000263       0.000000
      0.002000       0.000219       0.000000
      0.002129       0.000273       0.000000
      0.002155       0.000325       0.000000
      0.002080       0.000320       0.000000
      0.002064       0.000267       0.000000
      0.002155       0.000325       0.000000
      0.002187       0.000388       0.000000
      0.002104       0.000390       0.000000
      0.002080       0.000320       0.000000
      0.002064       0.000267       0.000000
      0.002080       0.000320       0.000000
      0.002019       0.000315       0.000000
      0.002008       0.000263       0.000000
      0.002080       0.000320       0.000000
      0.002104       0.000390       0.000000
      0.002031       0.000390       0.000000
      0.002019       0.000315       0.000000
      0.001991       0.000181       0.000000
      0.002000       0.000219       0.000000
      0.001956       0.000217       0.000000
      0.001951       0.000178       0.000000
      0.002000       0.000219       0.000000
      0.002008       0.000263       0.000000
      0.001961       0.000260       0.000000
      0.001956       0.000217       0.000000
      0.001951       0.000178       0.000000
      0.001956       0.000217       0.000000
      0.001915       0.000217       0.000000
      0.001914       0.000177       0.000000
      0.001956       0.000217       0.000000
      0.001961       0.000260       0.000000
      0.001921       0.000262       0.000000
      0.001915       0.000217       0.000000
      0.002008       0.000263       0.000000
      0.002019       0.000315       0.000000
      0.001968       0.000305       0.000000
      0.001961       0.000260       0.000000
      0.002019       0.000315       0.000000
      0.002031       0.000390       0.000000
      0.001786       0.000319       0.000000
      0.001968       0.000305       0.000000
      0.001961       0.000260       0.000000
      0.001968       0.000305       0.000000
      0.001960       0.000316       0.000000
      0.001921       0.000262       0.000000
      0.001968       0.000305       0.000000
      0.001786       0.000319       0.000000
      0.007047       0.000595       0.000000
      0.001960       0.000316       0.000000
      0.002269       0.000302       0.000000
      0.002330       0.000356       0.000000
      0.002243       0.000335       0.000000
      0.002200       0.000284       0.000000
      0.002330       0.000356       0.000000
      0.002415       0.000423       0.000000
      0.002299       0.000398       0.000000
      0.002243       0.000335       0.000000
      0.002200       0.000284       0.000000
      0.002243       0.000335       0.000000
      0.002155       0.000325       0.000000
      0.002129       0.000273       0.000000
      0.002243       0.000335       0.000000
      0.002299       0.000398       0.000000
      0.002187       0.000388       0.000000
      0.002155       0.000325       0.000000
      0.002246       0.000347       0.000000
      0.002349       0.000439       0.000000
      0.002391       0.000407       0.000000
      0.002271       0.000309       0.000000
      0.002349       0.000439       0.000000
      0.002455       0.000540       0.000000
      0.002533       0.000532       0.000000
      0.002391       0.000407       0.000000
      0.002271       0.000309       0.000000
      0.002391       0.000407       0.000000
      0.002369       0.000356       0.000000
      0.002248       0.000262       0.000000
      0.002391       0.000407       0.000000
      0.002533       0.000532       0.000000
      0.002544       0.000494       0.000000
      0.002369       0.000356       0.000000
      0.002369       0.000356       0.000000
      0.002447       0.000418       0.000000
      0.002402       0.000386       0.000000
      0.002328       0.000327       0.000000
      0.002447       0.000418       0.000000
      0.002544       0.000494       0.000000
      0.002501       0.000460       0.000000
      0.002402       0.000386       0.000000
      0.002328       0.000327       0.000000
      0.002402       0.000386       0.000000
      0.002330       0.000356       0.000000
      0.002269       0.000302       0.000000
      0.002402       0.000386       0.000000
      0.002501       0.000460       0.000000
      0.002415       0.000423       0.000000
      0.002330       0.000356       0.000000
      0.000000       0.000000       0.000000
      0.000000       0.000000       0.000000
      0.000566       0.000137       0.000000
      0.000571       0.000138       0.000000
      0.000000       0.000000       0.000000
      0.000000       0.000000       0.000000
      0.000567       0.000110       0.000000
      0.000566       0.000137       0.000000
      0.000571       0.000138       0.000000
      0.000566       0.000137       0.000000
      0.001152       0.000275       0.000000
      0.001134       0.000276       0.000000
      0.000566       0.000137       0.000000
      0.000567       0.000110       0.000000
      0.001184       0.000208       0.000000
      0.001152       0.000275       0.000000
      0.000000       0.000000       0.000000
      0.000000       0.000000       0.000000
      0.000582       0.000074       0.000000
      0.000567       0.000110       0.000000
      0.000000       0.000000       0.000000
      0.000000       0.000000       0.000000
      0.000604       0.000041       0.000000
      0.000582       0.000074       0.000000
      0.000567       0.000110       0.000000
      0.000582       0.000074       0.000000
      0.001237       0.000126       0.000000
      0.001184       0.000208       0.000000
      0.000582       0.000074       0.000000
      0.000604       0.000041       0.000000
      0.001293       0.000063       0.000000
      0.001237       0.000126       0.000000
      0.000000       0.000000       0.000000
      0.000000       0.000000       0.000000
      0.000623       0.000018       0.000000
      0.000604       0.000041       0.000000
      0.000000       0.000000       0.000000
      0.000000       0.000000       0.000000
      0.000630       0.000000       0.000000
      0.000623       0.000018       0.000000
      0.000604       0.000041       0.000000
      0.000623       0.000018       0.000000
      0.001332       0.000025       0.000000
      0.001293       0.000063       0.000000
      0.000623       0.000018       0.000000
      0.000630       0.000000       0.000000
      0.001347       0.000000       0.000000
      0.001332       0.000025       0.000000
      0.001134       0.000276       0.000000
      0.001152       0.000275       0.000000
      0.001765       0.000403       0.000000
      0.001690       0.000404       0.000000
      0.001152       0.000275       0.000000
      0.001184       0.000208       0.000000
      0.001866       0.000270       0.000000
      0.001765       0.000403       0.000000
      0.001690       0.000404       0.000000
      0.001765       0.000403       0.000000
      0.002433       0.000506       0.000000
      0.002226       0.000512       0.000000
      0.001765       0.000403       0.000000
      0.001866       0.000270       0.000000
      0.002690       0.000255       0.000000
      0.002433       0.000506       0.000000
      0.001184       0.000208       0.000000
      0.001237       0.000126       0.000000
      0.001988       0.000138       0.000000
      0.001866       0.000270       0.000000
      0.001237       0.000126       0.000000
      0.001293       0.000063       0.000000
      0.002089       0.000057       0.000000
      0.001988       0.000138       0.000000
      0.001866       0.000270       0.000000
      0.001988       0.000138       0.000000
      0.002901       0.000093       0.000000
      0.002690       0.000255       0.000000
      0.001988       0.000138       0.000000
      0.002089       0.000057       0.000000
      0.003034       0.000022       0.000000
      0.002901       0.000093       0.000000
      0.001293       0.000063       0.000000
      0.001332       0.000025       0.000000
      0.002152       0.000018       0.000000
      0.002089       0.000057       0.000000
      0.001332       0.000025       0.000000
      0.001347       0.000000       0.000000
      0.002173       0.000000       0.000000
      0.002152       0.000018       0.000000
      0.002089       0.000057       0.000000
      0.002152       0.000018       0.000000
      0.003104      -0.000000       0.000000
      0.003034       0.000022       0.000000
      0.002152       0.000018       0.000000
      0.002173       0.000000       0.000000
      0.003127       0.000000       0.000000
      0.003104      -0.000000       0.000000
      0.002690       0.000255       0.000000
      0.002901       0.000093       0.000000
      0.004072       0.000019       0.000000
      0.003907       0.000138       0.000000
      0.002901       0.000093       0.000000
      0.003034       0.000022       0.000000
      0.004151      -0.000019       0.000000
      0.004072       0.000019       0.000000
      0.003907       0.000138       0.000000
      0.004072       0.000019       0.000000
      0.005423       0.000013       0.000000
      0.005542       0.000122       0.000000
      0.004072       0.000019       0.000000
      0.004151      -0.000019       0.000000
      0.005367      -0.000022       0.000000
      0.005423       0.000013       0.000000
      0.003034       0.000022       0.000000
      0.003104      -0.000000       0.000000
      0.004189      -0.000018       0.000000
      0.004151      -0.000019       0.000000
      0.003104      -0.000000       0.000000
      0.003127       0.000000       0.000000
      0.004200       0.000000       0.000000