# vtk DataFile Version 2.0
time_10.vtk
ASCII
DATASET UNSTRUCTURED_GRID
POINTS  1224 float
      0.000000       0.000000       0.000000
      0.083333       0.000000       0.000000
      0.083333       0.083333       0.000000
      0.000000       0.083333       0.000000
      0.083333       0.000000       0.000000
      0.166667       0.000000       0.000000
      0.166667       0.083333       0.000000
      0.083333       0.083333       0.000000
      0.000000       0.083333       0.000000
      0.083333       0.083333       0.000000
      0.083333       0.166667       0.000000
      0.000000       0.166667       0.000000
      0.083333       0.083333       0.000000
      0.166667       0.083333       0.000000
      0.166667       0.166667       0.000000
      0.083333       0.166667       0.000000
      0.166667       0.000000       0.000000
      0.250000       0.000000       0.000000
      0.250000       0.083333       0.000000
      0.166667       0.083333       0.000000
      0.250000       0.000000       0.000000
      0.333333       0.000000       0.000000
      0.333333       0.083333       0.000000
      0.250000       0.083333       0.000000
      0.166667       0.083333       0.000000
      0.250000       0.083333       0.000000
      0.250000       0.166667       0.000000
      0.166667       0.166667       0.000000
      0.250000       0.083333       0.000000
      0.333333       0.083333       0.000000
      0.333333       0.166667       0.000000
      0.250000       0.166667       0.000000
      0.333333       0.000000       0.000000
      0.416667       0.000000       0.000000
      0.416667       0.083333       0.000000
      0.333333       0.083333       0.000000
      0.416667       0.000000       0.000000
      0.500000       0.000000       0.000000
      0.500000       0.083333       0.000000
      0.416667       0.083333       0.000000
      0.333333       0.083333       0.000000
      0.416667       0.083333       0.000000
      0.416667       0.166667       0.000000
      0.333333       0.166667       0.000000
      0.416667       0.083333       0.000000
      0.500000       0.083333       0.000000
      0.500000       0.166667       0.000000
      0.416667       0.166667       0.000000
      0.000000       0.166667       0.000000
      0.083333       0.166667       0.000000
      0.083333       0.250000       0.000000
      0.000000       0.250000       0.000000
      0.083333       0.166667       0.000000
      0.166667       0.166667       0.000000
      0.166667       0.250000       0.000000
      0.083333       0.250000       0.000000
      0.000000       0.250000       0.000000
      0.083333       0.250000       0.000000
      0.083333       0.333333       0.000000
      0.000000       0.333333       0.000000
      0.083333       0.250000       0.000000
      0.166667       0.250000       0.000000
      0.166667       0.333333       0.000000
      0.083333       0.333333       0.000000
      0.166667       0.166667       0.000000
      0.250000       0.166667       0.000000
      0.250000       0.250000       0.000000
      0.166667       0.250000       0.000000
      0.250000       0.166667       0.000000
      0.333333       0.166667       0.000000
      0.333333       0.250000       0.000000
      0.250000       0.250000       0.000000
      0.166667       0.250000       0.000000
      0.250000       0.250000       0.000000
      0.250000       0.333333       0.000000
      0.166667       0.333333       0.000000
      0.250000       0.250000       0.000000
      0.333333       0.250000       0.000000
      0.333333       0.333333       0.000000
      0.250000       0.333333       0.000000
      0.333333       0.166667       0.000000
      0.416667       0.166667       0.000000
      0.416667       0.250000       0.000000
      0.333333       0.250000       0.000000
      0.416667       0.166667       0.000000
      0.500000       0.166667       0.000000
      0.500000       0.250000       0.000000
      0.416667       0.250000       0.000000
      0.333333       0.250000       0.000000
      0.416667       0.250000       0.000000
      0.416667       0.333333       0.000000
      0.333333       0.333333       0.000000
      0.416667       0.250000       0.000000
      0.500000       0.250000       0.000000
      0.500000       0.333333       0.000000
      0.416667       0.333333       0.000000
      0.000000       0.333333       0.000000
      0.083333       0.333333       0.000000
      0.083333       0.416667       0.000000
      0.000000       0.416667       0.000000
      0.083333       0.333333       0.000000
      0.166667       0.333333       0.000000
      0.166667       0.416667       0.000000
      0.083333       0.416667       0.000000
      0.000000       0.416667       0.000000
      0.083333       0.416667       0.000000
      0.083333       0.500000       0.000000
      0.000000       0.500000       0.000000
      0.083333       0.416667       0.000000
      0.166667       0.416667       0.000000
      0.166667       0.500000       0.000000
      0.083333       0.500000       0.000000
      0.166667       0.333333       0.000000
      0.250000       0.333333       0.000000
      0.250000       0.416667       0.000000
      0.166667       0.416667       0.000000
      0.250000       0.333333       0.000000
      0.333333       0.333333       0.000000
      0.333333       0.416667       0.000000
      0.250000       0.416667       0.000000
      0.166667       0.416667       0.000000
      0.250000       0.416667       0.000000
      0.250000       0.500000       0.000000
      0.166667       0.500000       0.000000
      0.250000       0.416667       0.000000
      0.333333       0.416667       0.000000
      0.333333       0.500000       0.000000
      0.250000       0.500000       0.000000
      0.333333       0.333333       0.000000
      0.375000       0.333333       0.000000
      0.375000       0.375000       0.000000
      0.333333       0.375000       0.000000
      0.375000       0.333333       0.000000
      0.416667       0.333333       0.000000
      0.416667       0.375000       0.000000
      0.375000       0.375000       0.000000
      0.333333       0.375000       0.000000
      0.375000       0.375000       0.000000
      0.375000       0.416667       0.000000
      0.333333       0.416667       0.000000
      0.375000       0.375000       0.000000
      0.416667       0.375000       0.000000
      0.416667       0.416667       0.000000
      0.375000       0.416667       0.000000
      0.416667       0.333333       0.000000
      0.458333       0.333333       0.000000
      0.458333       0.375000       0.000000
      0.416667       0.375000       0.000000
      0.458333       0.333333       0.000000
      0.500000       0.333333       0.000000
      0.500000       0.375000       0.000000
      0.458333       0.375000       0.000000
      0.416667       0.375000       0.000000
      0.458333       0.375000       0.000000
      0.458333       0.416667       0.000000
      0.416667       0.416667       0.000000
      0.458333       0.375000       0.000000
      0.500000       0.375000       0.000000
      0.500000       0.416667       0.000000
      0.458333       0.416667       0.000000
      0.333333       0.416667       0.000000
      0.375000       0.416667       0.000000
      0.375000       0.458333       0.000000
      0.333333       0.458333       0.000000
      0.375000       0.416667       0.000000
      0.416667       0.416667       0.000000
      0.416667       0.458333       0.000000
      0.375000       0.458333       0.000000
      0.333333       0.458333       0.000000
      0.375000       0.458333       0.000000
      0.375000       0.500000       0.000000
      0.333333       0.500000       0.000000
      0.375000       0.458333       0.000000
      0.416667       0.458333       0.000000
      0.416667       0.500000       0.000000
      0.375000       0.500000       0.000000
      0.416667       0.416667       0.000000
      0.437500       0.416667       0.000000
      0.437500       0.437500       0.000000
      0.416667       0.437500       0.000000
      0.437500       0.416667       0.000000
      0.458333       0.416667       0.000000
      0.458333       0.437500       0.000000
      0.437500       0.437500       0.000000
      0.416667       0.437500       0.000000
      0.437500       0.437500       0.000000
      0.437500       0.458333       0.000000
      0.416667       0.458333       0.000000
      0.437500       0.437500       0.000000
      0.458333       0.437500       0.000000
      0.458333       0.458333       0.000000
      0.437500       0.458333       0.000000
      0.458333       0.416667       0.000000
      0.479167       0.416667       0.000000
      0.479167       0.437500       0.000000
      0.458333       0.437500       0.000000
      0.479167       0.416667       0.000000
      0.500000       0.416667       0.000000
      0.500000       0.437500       0.000000
      0.479167       0.437500       0.000000
      0.458333       0.437500       0.000000
      0.479167       0.437500       0.000000
      0.479167       0.458333       0.000000
      0.458333       0.458333       0.000000
      0.416667       0.458333       0.000000
      0.437500       0.458333       0.000000
      0.437500       0.479167       0.000000
      0.416667       0.479167       0.000000
      0.437500       0.458333       0.000000
      0.458333       0.458333       0.000000
      0.458333       0.479167       0.000000
      0.437500       0.479167       0.000000
      0.416667       0.479167       0.000000
      0.437500       0.479167       0.000000
      0.437500       0.500000       0.000000
      0.416667       0.500000       0.000000
      0.437500       0.479167       0.000000
      0.458333       0.479167       0.000000
      0.458333       0.500000       0.000000
      0.437500       0.500000       0.000000
[...]
POINT_DATA  1224
VECTORS U float 
      0.000000       0.000000       0.000000
      0.000000       0.000000       0.000000
      0.000512       0.000019       0.000000
      0.000508       0.000000       0.000000
      0.000000       0.000000       0.000000
      0.000000       0.000000       0.000000
      0.000521       0.000039       0.000000
      0.000512       0.000019       0.000000
      0.000508       0.000000       0.000000
      0.000512       0.000019       0.000000
      0.000958       0.000032       0.000000
      0.000950       0.000000       0.000000
      0.000512       0.000019       0.000000
      0.000521       0.000039       0.000000
      0.000979       0.000068       0.000000
      0.000958       0.000032       0.000000
      0.000000       0.000000       0.000000
      0.000000       0.000000       0.000000
      0.000532       0.000062       0.000000
      0.000521       0.000039       0.000000
      0.000000       0.000000       0.000000
      0.000000       0.000000       0.000000
      0.000541       0.000085       0.000000
      0.000532       0.000062       0.000000
      0.000521       0.000039       0.000000
      0.000532       0.000062       0.000000
      0.001011       0.000111       0.000000
      0.000979       0.000068       0.000000
      0.000532       0.000062       0.000000
      0.000541       0.000085       0.000000
      0.001044       0.000160       0.000000
      0.001011       0.000111       0.000000
      0.000000       0.000000       0.000000
      0.000000       0.000000       0.000000
      0.000544       0.000104       0.000000
      0.000541       0.000085       0.000000
      0.000000       0.000000       0.000000
      0.000000       0.000000       0.000000
      0.000539       0.000111       0.000000
      0.000544       0.000104       0.000000
      0.000541       0.000085       0.000000
      0.000544       0.000104       0.000000
      0.001069       0.000205       0.000000
      0.001044       0.000160       0.000000
      0.000544       0.000104       0.000000
      0.000539       0.000111       0.000000
      0.001083       0.000222       0.000000
      0.001069       0.000205       0.000000
      0.000950       0.000000       0.000000
      0.000958       0.000032       0.000000
      0.001325       0.000037       0.000000
      0.001312       0.000000       0.000000
      0.000958       0.000032       0.000000
      0.000979       0.000068       0.000000
      0.001364       0.000081       0.000000
      0.001325       0.000037       0.000000
      0.001312       0.000000       0.000000
      0.001325       0.000037       0.000000
      0.001599       0.000032       0.000000
      0.001580       0.000000       0.000000
      0.001325       0.000037       0.000000
      0.001364       0.000081       0.000000
      0.001655       0.000073       0.000000
      0.001599       0.000032       0.000000
      0.000979       0.000068       0.000000
      0.001011       0.000111       0.000000
      0.001425       0.000138       0.000000
      0.001364       0.000081       0.000000
      0.001011       0.000111       0.000000
      0.001044       0.000160       0.000000
      0.001501       0.000212       0.000000
      0.001425       0.000138       0.000000
      0.001364       0.000081       0.000000
      0.001425       0.000138       0.000000
      0.001750       0.000132       0.000000
      0.001655       0.000073       0.000000
      0.001425       0.000138       0.000000
      0.001501       0.000212       0.000000
      0.001884       0.000218       0.000000
      0.001750       0.000132       0.000000
      0.001044       0.000160       0.000000
      0.001069       0.000205       0.000000
      0.001575       0.000290       0.000000
      0.001501       0.000212       0.000000
      0.001069       0.000205       0.000000
      0.001083       0.000222       0.000000
      0.001632       0.000328       0.000000
      0.001575       0.000290       0.000000
      0.001501       0.000212       0.000000
      0.001575       0.000290       0.000000
      0.002046       0.000337       0.000000
      0.001884       0.000218       0.000000
      0.001575       0.000290       0.000000
      0.001632       0.000328       0.000000
      0.002191       0.000426       0.000000
      0.002046       0.000337       0.000000
      0.001580       0.000000       0.000000
      0.001599       0.000032       0.000000
      0.001764       0.000018       0.000000
      0.001743       0.000000       0.000000
      0.001599       0.000032       0.000000
      0.001655       0.000073       0.000000
      0.001832       0.000044       0.000000
      0.001764       0.000018       0.000000
      0.001743       0.000000       0.000000
      0.001764       0.000018       0.000000
      0.001817      -0.000000       0.000000
      0.001796       0.000000       0.000000
      0.001764       0.000018       0.000000
      0.001832       0.000044       0.000000
      0.001882       0.000006       0.000000
      0.001817      -0.000000       0.000000
      0.001655       0.000073       0.000000
      0.001750       0.000132       0.000000
      0.001950       0.000089       0.000000
      0.001832       0.000044       0.000000
      0.001750       0.000132       0.000000
      0.001884       0.000218       0.000000
      0.002132       0.000162       0.000000
      0.001950       0.000089       0.000000
      0.001832       0.000044       0.000000
      0.001950       0.000089       0.000000
      0.001998       0.000027       0.000000
      0.001882       0.000006       0.000000
      0.001950       0.000089       0.000000
      0.002132       0.000162       0.000000
      0.002179       0.000068       0.000000
      0.001998       0.000027       0.000000
      0.001884       0.000218       0.000000
      0.001964       0.000274       0.000000
      0.002133       0.000256       0.000000
      0.002030       0.000198       0.000000
      0.001964       0.000274       0.000000
      0.002046       0.000337       0.000000
      0.002250       0.000330       0.000000
      0.002133       0.000256       0.000000
      0.002030       0.000198       0.000000
      0.002133       0.000256       0.000000
      0.002254       0.000216       0.000000
      0.002132       0.000162       0.000000
      0.002133       0.000256       0.000000
      0.002250       0.000330       0.000000
      0.002404       0.000290       0.000000
      0.002254       0.000216       0.000000
      0.002046       0.000337       0.000000
      0.002124       0.000395       0.000000
      0.002371       0.000414       0.000000
      0.002250       0.000330       0.000000
      0.002124       0.000395       0.000000
      0.002191       0.000426       0.000000
      0.002478       0.000470       0.000000
      0.002371       0.000414       0.000000
      0.002250       0.000330       0.000000
      0.002371       0.000414       0.000000
      0.002586       0.000399       0.000000
      0.002404       0.000290       0.000000
      0.002371       0.000414       0.000000
      0.002478       0.000470       0.000000
      0.002772       0.000511       0.000000
      0.002586       0.000399       0.000000
      0.002132       0.000162       0.000000
      0.002254       0.000216       0.000000
      0.002309       0.000159       0.000000
      0.002182       0.000116       0.000000
      0.002254       0.000216       0.000000
      0.002404       0.000290       0.000000
      0.002469       0.000217       0.000000
      0.002309       0.000159       0.000000
      0.002182       0.000116       0.000000
      0.002309       0.000159       0.000000
      0.002299       0.000100       0.000000
      0.002179       0.000068       0.000000
      0.002309       0.000159       0.000000
      0.002469       0.000217       0.000000
      0.002443       0.000143       0.000000
      0.002299       0.000100       0.000000
      0.002404       0.000290       0.000000
      0.002492       0.000340       0.000000
      0.002548       0.000304       0.000000
      0.002450       0.000256       0.000000
      0.002492       0.000340       0.000000
      0.002586       0.000399       0.000000
      0.002662       0.000369       0.000000
      0.002548       0.000304       0.000000
      0.002450       0.000256       0.000000
      0.002548       0.000304       0.000000
      0.002569       0.000258       0.000000
      0.002469       0.000217       0.000000
      0.002548       0.000304       0.000000
      0.002662       0.000369       0.000000
      0.002693       0.000317       0.000000
      0.002569       0.000258       0.000000
      0.002586       0.000399       0.000000
      0.002682       0.000464       0.000000
      0.002791       0.000452       0.000000
      0.002662       0.000369       0.000000
      0.002682       0.000464       0.000000
      0.002772       0.000511       0.000000
      0.002920       0.000528       0.000000
      0.002791       0.000452       0.000000
      0.002662       0.000369       0.000000
      0.002791       0.000452       0.000000
      0.002859       0.000414       0.000000
      0.002693       0.000317       0.000000
      0.002469       0.000217       0.000000
      0.002569       0.000258       0.000000
      0.002555       0.000211       0.000000
      0.002464       0.000178       0.000000
      0.002569       0.000258       0.000000
      0.002693       0.000317       0.000000
      0.002665       0.000254       0.000000
      0.002555       0.000211       0.000000
      0.002464       0.000178       0.000000
      0.002555       0.000211       0.000000
      0.002524       0.000171       0.000000
      0.002443       0.000143       0.000000
      0.002555       0.000211       0.000000
      0.002665       0.000254       0.000000
      0.002612       0.000207       0.000000
      0.002524       0.000171       0.000000
      0.002693       0.000317       0.000000
      0.002770       0.000359       0.000000
      0.002764       0.000324       0.000000
      0.002686       0.000285       0.000000
      0.002770       0.000359       0.000000
      0.002859       0.000414       0.000000
      0.002862       0.000378       0.000000
      0.002764       0.000324       0.000000
      0.002686       0.000285       0.000000
      0.002764       0.000324       0.000000
      0.002735       0.000285       0.000000
      0.002665       0.000254       0.000000
      0.002764       0.000324       0.000000
      0.002862       0.000378       0.000000
      0.002830       0.000331       0.000000
      0.002735       0.000285       0.000000
      0.002859       0.000414       0.000000
      0.002961       0.000479       0.000000
      0.002989       0.000455       0.000000
      0.002862       0.000378       0.000000
      0.002961       0.000479       0.000000
      0.003070       0.000539       0.000000
      0.003145       0.000539       0.000000
      0.002989       0.000455       0.000000
      0.002862       0.000378       0.000000
      0.002989       0.000455       0.000000
      0.002976       0.000409       0.000000
      0.002830       0.000331       0.000000
      0.002989       0.000455       0.000000
      0.003145       0.000539       0.000000
      0.003223       0.000528       0.000000
      0.002976       0.000409       0.000000
      0.002665       0.000254       0.000000
      0.002735       0.000285       0.000000
      0.002694       0.000253       0.000000
      0.002637       0.000228       0.000000
      0.002735       0.000285       0.000000
      0.002830       0.000331       0.000000
      0.002765       0.000285       0.000000
      0.002694       0.000253       0.000000
      0.002637       0.000228       0.000000
      0.002694       0.000253       0.000000
      0.002660       0.000229       0.000000
      0.002612       0.000207       0.000000
      0.002694       0.000253       0.000000
      0.002765       0.000285       0.000000
      0.002714       0.000257       0.000000
      0.002660       0.000229       0.000000
      0.002830       0.000331       0.000000
      0.002976       0.000409       0.000000
      0.002888       0.000337       0.000000
      0.002765       0.000285       0.000000
      0.002976       0.000409       0.000000
      0.003223       0.000528       0.000000
      0.003334       0.000477       0.000000
      0.002888       0.000337       0.000000
      0.002765       0.000285       0.000000
      0.002888       0.000337       0.000000
      0.002797       0.000297       0.000000
      0.002714       0.000257       0.000000
      0.002888       0.000337       0.000000
      0.003334       0.000477       0.000000
      0.005699       0.000394       0.000000
      0.002797       0.000297       0.000000
      0.002791       0.000452       0.000000
      0.002856       0.000495       0.000000
      0.002914       0.000491       0.000000
      0.002833       0.000438       0.000000
      0.002856       0.000495       0.000000
      0.002920       0.000528       0.000000
      0.002995       0.000535       0.000000
      0.002914       0.000491       0.000000
      0.002833       0.000438       0.000000
      0.002914       0.000491       0.000000
      0.002961       0.000479       0.000000
      0.002859       0.000414       0.000000
      0.002914       0.000491       0.000000
      0.002995       0.000535       0.000000
      0.003070       0.000539       0.000000
      0.002961       0.000479       0.000000
      0.000000       0.000000       0.000000
      0.000000       0.000000       0.000000
      0.000536       0.000100       0.000000
      0.000539       0.000111       0.000000
      0.000000       0.000000       0.000000
      0.000000       0.000000       0.000000
      0.000541       0.000076       0.000000
      0.000536       0.000100       0.000000
      0.000539       0.000111       0.000000
      0.000536       0.000100       0.000000
      0.001096       0.000196       0.000000
      0.001083       0.000222       0.000000
      0.000536       0.000100       0.000000
      0.000541       0.000076       0.000000
      0.001124       0.000141       0.000000
      0.001096       0.000196       0.000000
      0.000000       0.000000       0.000000
      0.000000       0.000000       0.000000
      0.000555       0.000050       0.000000
      0.000541       0.000076       0.000000
      0.000000       0.000000       0.000000
      0.000000       0.000000       0.000000
      0.000572       0.000028       0.000000
      0.000555       0.000050       0.000000
      0.000541       0.000076       0.000000
      0.000555       0.000050       0.000000
      0.001164       0.000084       0.000000
      0.001124       0.000141       0.000000
      0.000555       0.000050       0.000000
      0.000572       0.000028       0.000000
      0.001204       0.000043       0.000000
      0.001164       0.000084       0.000000
      0.000000       0.000000       0.000000
      0.000000       0.000000       0.000000
      0.000586       0.000012       0.000000
      0.000572       0.000028       0.000000
      0.000000       0.000000       0.000000
      0.000000       0.000000       0.000000
      0.000591       0.000000       0.000000
      0.000586       0.000012       0.000000
      0.000572       0.000028       0.000000
      0.000586       0.000012       0.000000
      0.001232       0.000017       0.000000
      0.001204       0.000043       0.000000
      0.000586       0.000012       0.000000
      0.000591       0.000000       0.000000
      0.001242       0.000000       0.000000
      0.001232       0.000017       0.000000
      0.001083       0.000222       0.000000
      0.001096       0.000196       0.000000
      0.001684       0.000280       0.000000
      0.001632       0.000328       0.000000
      0.001096       0.000196       0.000000
      0.001124       0.000141       0.000000
      0.001758       0.000180       0.000000
      0.001684       0.000280       0.000000
      0.001632       0.000328       0.000000
      0.001684       0.000280       0.000000
      0.002320       0.000335       0.000000
      0.002191       0.000426       0.000000
      0.001684       0.000280       0.000000
      0.001758       0.000180       0.000000
      0.002480       0.000170       0.000000
      0.002320       0.000335       0.000000
      0.001124       0.000141       0.000000
      0.001164       0.000084       0.000000
      0.001841       0.000092       0.000000
      0.001758       0.000180       0.000000
      0.001164       0.000084       0.000000
      0.001204       0.000043       0.000000
      0.001910       0.000038       0.000000
      0.001841       0.000092       0.000000
      0.001758       0.000180       0.000000
      0.001841       0.000092       0.000000
      0.002619       0.000063       0.000000
      0.002480       0.000170       0.000000
      0.001841       0.000092       0.000000
      0.001910       0.000038       0.000000
      0.002713       0.000013       0.000000
      0.002619       0.000063       0.000000
      0.001204       0.000043       0.000000
      0.001232       0.000017       0.000000
      0.001953       0.000012       0.000000
      0.001910       0.000038       0.000000
      0.001232       0.000017       0.000000
      0.001242       0.000000       0.000000
      0.001968       0.000000       0.000000
      0.001953       0.000012       0.000000
      0.001910       0.000038       0.000000
      0.001953       0.000012       0.000000
      0.002765      -0.000001       0.000000
      0.002713       0.000013       0.000000
      0.001953       0.000012       0.000000
      0.001968       0.000000       0.000000
      0.002781       0.000000       0.000000
      0.002765      -0.000001       0.000000
      0.002480       0.000170       0.000000
      0.002619       0.000063       0.000000
      0.003555       0.000004       0.000000
      0.003407       0.000091       0.000000
      0.002619       0.000063       0.000000
      0.002713       0.000013       0.000000
      0.003631      -0.000021       0.000000
      0.003555       0.000004       0.000000
      0.003407       0.000091       0.000000
      0.003555       0.000004       0.000000
      0.004642      -0.000026       0.000000
      0.004659       0.000027       0.000000
      0.003555       0.000004       0.000000
      0.003631      -0.000021       0.000000
      0.004634      -0.000036       0.000000
      0.004642      -0.000026       0.000000
      0.002713       0.000013       0.000000
      0.002765      -0.000001       0.000000
      0.003668      -0.000017       0.000000
      0.003631      -0.000021       0.000000
      0.002765      -0.000001       0.000000
      0.002781       0.000000       0.000000
      0.003679       0.000000       0.000000
      0.003668      -0.000017       0.000000
      0.003631      -0.000021       0.000000
      0.003668      -0.000017       0.000000
      0.004631      -0.000023       0.000000
      0.004634      -0.000036       0.000000
      0.003668      -0.000017       0.000000
      0.003679       0.000000       0.000000
      0.004629       0.000000       0.000000
      0.004631      -0.000023       0.000000
      0.002191       0.000426       0.000000
      0.002252       0.000404       0.000000
      0.002574       0.000441       0.000000
      0.002478       0.000470       0.000000
      0.002252       0.000404       0.000000
      0.002320       0.000335       0.000000
      0.002683       0.000339       0.000000
      0.002574       0.000441       0.000000
      0.002478       0.000470       0.000000
      0.002574       0.000441       0.000000
      0.002941       0.000464       0.000000
      0.002772       0.000511       0.000000
      0.002574       0.000441       0.000000
      0.002683       0.000339       0.000000
      0.003126       0.000307       0.000000