# vtk DataFile Version 2.0
time_10.vtk
ASCII
DATASET UNSTRUCTURED_GRID
POINTS   768 float
      1.666667      -0.583333       0.000000
      2.083333      -0.635417       0.000000
      2.083333      -0.317708       0.000000
      1.666667      -0.291667       0.000000
      2.083333      -0.635417       0.000000
      2.500000      -0.687500       0.000000
      2.500000      -0.343750       0.000000
      2.083333      -0.317708       0.000000
      1.666667      -0.291667       0.000000
      2.083333      -0.317708       0.000000
      2.083333       0.000000       0.000000
      1.666667       0.000000       0.000000
      2.083333      -0.317708       0.000000
      2.500000      -0.343750       0.000000
      2.500000       0.000000       0.000000
      2.083333       0.000000       0.000000
      2.500000      -0.687500       0.000000
      2.916667      -0.739583       0.000000
      2.916667      -0.369792       0.000000
      2.500000      -0.343750       0.000000
      2.916667      -0.739583       0.000000
      3.333333      -0.791667       0.000000
      3.333333      -0.395833       0.000000
      2.916667      -0.369792       0.000000
      2.500000      -0.343750       0.000000
      2.916667      -0.369792       0.000000
      2.916667       0.000000       0.000000
      2.500000       0.000000       0.000000
      2.916667      -0.369792       0.000000
      3.333333      -0.395833       0.000000
      3.333333       0.000000       0.000000
      2.916667       0.000000       0.000000
      3.333333      -0.791667       0.000000
      3.750000      -0.843750       0.000000
      3.750000      -0.421875       0.000000
      3.333333      -0.395833       0.000000
      3.750000      -0.843750       0.000000
      4.166667      -0.895833       0.000000
      4.166667      -0.447917       0.000000
      3.750000      -0.421875       0.000000
      3.333333      -0.395833       0.000000
      3.750000      -0.421875       0.000000
      3.750000       0.000000       0.000000
      3.333333       0.000000       0.000000
      3.750000      -0.421875       0.000000
      4.166667      -0.447917       0.000000
      4.166667       0.000000       0.000000
      3.750000       0.000000       0.000000
      4.166667      -0.895833       0.000000
      4.583333      -0.947917       0.000000
      4.583333      -0.473958       0.000000
      4.166667      -0.447917       0.000000
      4.583333      -0.947917       0.000000
      5.000000      -1.000000       0.000000
      5.000000      -0.500000       0.000000
      4.583333      -0.473958       0.000000
      4.166667      -0.447917       0.000000
      4.583333      -0.473958       0.000000
      4.583333       0.000000       0.000000
      4.166667       0.000000       0.000000
      4.583333      -0.473958       0.000000
      5.000000      -0.500000       0.000000
      5.000000       0.000000       0.000000
      4.583333       0.000000       0.000000
      0.833333      -0.479167       0.000000
      1.041667      -0.505208       0.000000
      1.041667      -0.378906       0.000000
      0.833333      -0.359375       0.000000
      1.041667      -0.505208       0.000000
      1.250000      -0.531250       0.000000
      1.250000      -0.398437       0.000000
      1.041667      -0.378906       0.000000
      0.833333      -0.359375       0.000000
      1.041667      -0.378906       0.000000
      1.041667      -0.252604       0.000000
      0.833333      -0.239583       0.000000
      1.041667      -0.378906       0.000000
      1.250000      -0.398437       0.000000
      1.250000      -0.265625       0.000000
      1.041667      -0.252604       0.000000
      1.250000      -0.531250       0.000000
      1.458333      -0.557292       0.000000
      1.458333      -0.417969       0.000000
      1.250000      -0.398437       0.000000
      1.458333      -0.557292       0.000000
      1.666667      -0.583333       0.000000
      1.666667      -0.437500       0.000000
      1.458333      -0.417969       0.000000
      1.250000      -0.398437       0.000000
      1.458333      -0.417969       0.000000
      1.458333      -0.278646       0.000000
      1.250000      -0.265625       0.000000
      1.458333      -0.417969       0.000000
      1.666667      -0.437500       0.000000
      1.666667      -0.291667       0.000000
      1.458333      -0.278646       0.000000
      0.833333      -0.239583       0.000000
      1.041667      -0.252604       0.000000
      1.041667      -0.126302       0.000000
      0.833333      -0.119792       0.000000
      1.041667      -0.252604       0.000000
      1.250000      -0.265625       0.000000
      1.250000      -0.132812       0.000000
      1.041667      -0.126302       0.000000
      0.833333      -0.119792       0.000000
      1.041667      -0.126302       0.000000
      1.041667       0.000000       0.000000
      0.833333       0.000000       0.000000
      1.041667      -0.126302       0.000000
      1.250000      -0.132812       0.000000
      1.250000       0.000000       0.000000
      1.041667       0.000000       0.000000
      1.250000      -0.265625       0.000000
      1.458333      -0.278646       0.000000
      1.458333      -0.139323       0.000000
      1.250000      -0.132812       0.000000
      1.458333      -0.278646       0.000000
      1.666667      -0.291667       0.000000
      1.666667      -0.145833       0.000000
      1.458333      -0.139323       0.000000
      1.250000      -0.132812       0.000000
      1.458333      -0.139323       0.000000
      1.458333       0.000000       0.000000
      1.250000       0.000000       0.000000
      1.458333      -0.139323       0.000000
      1.666667      -0.145833       0.000000
      1.666667       0.000000       0.000000
      1.458333       0.000000       0.000000
      0.000000      -0.375000       0.000000
      0.104167      -0.388021       0.000000
      0.104167      -0.339518       0.000000
      0.000000      -0.328125       0.000000
      0.104167      -0.388021       0.000000
      0.208333      -0.401042       0.000000
      0.208333      -0.350911       0.000000
      0.104167      -0.339518       0.000000
      0.000000      -0.328125       0.000000
      0.104167      -0.339518       0.000000
      0.104167      -0.291016       0.000000
      0.000000      -0.281250       0.000000
      0.104167      -0.339518       0.000000
      0.208333      -0.350911       0.000000
      0.208333      -0.300781       0.000000
      0.104167      -0.291016       0.000000
      0.208333      -0.401042       0.000000
      0.312500      -0.414062       0.000000
      0.312500      -0.362305       0.000000
      0.208333      -0.350911       0.000000
      0.312500      -0.414062       0.000000
      0.416667      -0.427083       0.000000
      0.416667      -0.373698       0.000000
      0.312500      -0.362305       0.000000
      0.208333      -0.350911       0.000000
      0.312500      -0.362305       0.000000
      0.312500      -0.310547       0.000000
      0.208333      -0.300781       0.000000
      0.312500      -0.362305       0.000000
      0.416667      -0.373698       0.000000
      0.416667      -0.320312       0.000000
      0.312500      -0.310547       0.000000
      0.000000      -0.281250       0.000000
      0.104167      -0.291016       0.000000
      0.104167      -0.242513       0.000000
      0.000000      -0.234375       0.000000
      0.104167      -0.291016       0.000000
      0.208333      -0.300781       0.000000
      0.208333      -0.250651       0.000000
      0.104167      -0.242513       0.000000
      0.000000      -0.234375       0.000000
      0.104167      -0.242513       0.000000
      0.104167      -0.194010       0.000000
      0.000000      -0.187500       0.000000
      0.104167      -0.242513       0.000000
      0.208333      -0.250651       0.000000
      0.208333      -0.200521       0.000000
      0.104167      -0.194010       0.000000
      0.208333      -0.300781       0.000000
      0.312500      -0.310547       0.000000
      0.312500      -0.258789       0.000000
      0.208333      -0.250651       0.000000
      0.312500      -0.310547       0.000000
      0.416667      -0.320312       0.000000
      0.416667      -0.266927       0.000000
      0.312500      -0.258789       0.000000
      0.208333      -0.250651       0.000000
      0.312500      -0.258789       0.000000
      0.312500      -0.207031       0.000000
      0.208333      -0.200521       0.000000
      0.312500      -0.258789       0.000000
      0.416667      -0.266927       0.000000
      0.416667      -0.213542       0.000000
      0.312500      -0.207031       0.000000
      0.416667      -0.427083       0.000000
      0.520833      -0.440104       0.000000
      0.520833      -0.385091       0.000000
      0.416667      -0.373698       0.000000
      0.520833      -0.440104       0.000000
      0.625000      -0.453125       0.000000
      0.625000      -0.396484       0.000000
      0.520833      -0.385091       0.000000
      0.416667      -0.373698       0.000000
      0.520833      -0.385091       0.000000
      0.520833      -0.330078       0.000000
      0.416667      -0.320312       0.000000
      0.520833      -0.385091       0.000000
      0.625000      -0.396484       0.000000
      0.625000      -0.339844       0.000000
      0.520833      -0.330078       0.000000
      0.625000      -0.453125       0.000000
      0.729167      -0.466146       0.000000
      0.729167      -0.407878       0.000000
      0.625000      -0.396484       0.000000
      0.729167      -0.466146       0.000000
      0.833333      -0.479167       0.000000
      0.833333      -0.419271       0.000000
      0.729167      -0.407878       0.000000
      0.625000      -0.396484       0.000000
      0.729167      -0.407878       0.000000
      0.729167      -0.349609       0.000000
      0.625000      -0.339844       0.000000
[...]
POINT_DATA   768
VECTORS U float 
      0.046547      -0.000065       0.000000
      0.055245      -0.000065       0.000000
      0.054072      -0.000009       0.000000
      0.045370      -0.000008       0.000000
      0.055245      -0.000065       0.000000
      0.063237      -0.000067       0.000000
      0.062066      -0.000010       0.000000
      0.054072      -0.000009       0.000000
      0.045370      -0.000008       0.000000
      0.054072      -0.000009       0.000000
      0.053676      -0.000000       0.000000
      0.044973      -0.000000       0.000000
      0.054072      -0.000009       0.000000
      0.062066      -0.000010       0.000000
      0.061670      -0.000000       0.000000
      0.053676      -0.000000       0.000000
      0.063237      -0.000067       0.000000
      0.070634      -0.000067       0.000000
      0.069459      -0.000010       0.000000
      0.062066      -0.000010       0.000000
      0.070634      -0.000067       0.000000
      0.077527      -0.000058       0.000000
      0.076336      -0.000002       0.000000
      0.069459      -0.000010       0.000000
      0.062066      -0.000010       0.000000
      0.069459      -0.000010       0.000000
      0.069061      -0.000000       0.000000
      0.061670      -0.000000       0.000000
      0.069459      -0.000010       0.000000
      0.076336      -0.000002       0.000000
      0.075933      -0.000000       0.000000
      0.069061      -0.000000       0.000000
      0.077527      -0.000058       0.000000
      0.083987      -0.000010       0.000000
      0.082764       0.000035       0.000000
      0.076336      -0.000002       0.000000
      0.083987      -0.000010       0.000000
      0.090038       0.000135       0.000000
      0.088799       0.000143       0.000000
      0.082764       0.000035       0.000000
      0.076336      -0.000002       0.000000
      0.082764       0.000035       0.000000
      0.082361      -0.000000       0.000000
      0.075933      -0.000000       0.000000
      0.082764       0.000035       0.000000
      0.088799       0.000143       0.000000
      0.088428      -0.000000       0.000000
      0.082361      -0.000000       0.000000
      0.090038       0.000135       0.000000
      0.095586       0.000449       0.000000
      0.094505       0.000351       0.000000
      0.088799       0.000143       0.000000
      0.095586       0.000449       0.000000
      0.100000       0.000900       0.000000
      0.100000       0.000517       0.000000
      0.094505       0.000351       0.000000
      0.088799       0.000143       0.000000
      0.094505       0.000351       0.000000
      0.094260      -0.000000       0.000000
      0.088428      -0.000000       0.000000
      0.094505       0.000351       0.000000
      0.100000       0.000517       0.000000
      0.100000      -0.000000       0.000000
      0.094260      -0.000000       0.000000
      0.026429      -0.000076       0.000000
      0.031859      -0.000068       0.000000
      0.031167      -0.000030       0.000000
      0.025731      -0.000038       0.000000
      0.031859      -0.000068       0.000000
      0.037003      -0.000065       0.000000
      0.036315      -0.000028       0.000000
      0.031167      -0.000030       0.000000
      0.025731      -0.000038       0.000000
      0.031167      -0.000030       0.000000
      0.030668      -0.000010       0.000000
      0.025228      -0.000017       0.000000
      0.031167      -0.000030       0.000000
      0.036315      -0.000028       0.000000
      0.035819      -0.000008       0.000000
      0.030668      -0.000010       0.000000
      0.037003      -0.000065       0.000000
      0.041891      -0.000065       0.000000
      0.041206      -0.000027       0.000000
      0.036315      -0.000028       0.000000
      0.041891      -0.000065       0.000000
      0.046547      -0.000065       0.000000
      0.045863      -0.000027       0.000000
      0.041206      -0.000027       0.000000
      0.036315      -0.000028       0.000000
      0.041206      -0.000027       0.000000
      0.040711      -0.000008       0.000000
      0.035819      -0.000008       0.000000
      0.041206      -0.000027       0.000000
      0.045863      -0.000027       0.000000
      0.045370      -0.000008       0.000000
      0.040711      -0.000008       0.000000
      0.025228      -0.000017       0.000000
      0.030668      -0.000010       0.000000
      0.030366      -0.000002       0.000000
      0.024926      -0.000006       0.000000
      0.030668      -0.000010       0.000000
      0.035819      -0.000008       0.000000
      0.035519      -0.000001       0.000000
      0.030366      -0.000002       0.000000
      0.024926      -0.000006       0.000000
      0.030366      -0.000002       0.000000
      0.030265      -0.000000       0.000000
      0.024825      -0.000000       0.000000
      0.030366      -0.000002       0.000000
      0.035519      -0.000001       0.000000
      0.035419      -0.000000       0.000000
      0.030265      -0.000000       0.000000
      0.035819      -0.000008       0.000000
      0.040711      -0.000008       0.000000
      0.040413      -0.000001       0.000000
      0.035519      -0.000001       0.000000
      0.040711      -0.000008       0.000000
      0.045370      -0.000008       0.000000
      0.045073      -0.000001       0.000000
      0.040413      -0.000001       0.000000
      0.035519      -0.000001       0.000000
      0.040413      -0.000001       0.000000
      0.040313      -0.000000       0.000000
      0.035419      -0.000000       0.000000
      0.040413      -0.000001       0.000000
      0.045073      -0.000001       0.000000
      0.044973      -0.000000       0.000000
      0.040313      -0.000000       0.000000
      0.000000       0.000000       0.000000
      0.004171      -0.000238       0.000000
      0.003842      -0.000220       0.000000
      0.000000       0.000000       0.000000
      0.004171      -0.000238       0.000000
      0.007845      -0.000239       0.000000
      0.007465      -0.000219       0.000000
      0.003842      -0.000220       0.000000
      0.000000       0.000000       0.000000
      0.003842      -0.000220       0.000000
      0.003644      -0.000197       0.000000
      0.000000       0.000000       0.000000
      0.003842      -0.000220       0.000000
      0.007465      -0.000219       0.000000
      0.007181      -0.000200       0.000000
      0.003644      -0.000197       0.000000
      0.007845      -0.000239       0.000000
      0.011273      -0.000199       0.000000
      0.010884      -0.000177       0.000000
      0.007465      -0.000219       0.000000
      0.011273      -0.000199       0.000000
      0.014532      -0.000157       0.000000
      0.014144      -0.000135       0.000000
      0.010884      -0.000177       0.000000
      0.007465      -0.000219       0.000000
      0.010884      -0.000177       0.000000
      0.010568      -0.000160       0.000000
      0.007181      -0.000200       0.000000
      0.010884      -0.000177       0.000000
      0.014144      -0.000135       0.000000
      0.013817      -0.000118       0.000000
      0.010568      -0.000160       0.000000
      0.000000       0.000000       0.000000
      0.003644      -0.000197       0.000000
      0.003522      -0.000166       0.000000
      0.000000       0.000000       0.000000
      0.003644      -0.000197       0.000000
      0.007181      -0.000200       0.000000
      0.006973      -0.000178       0.000000
      0.003522      -0.000166       0.000000
      0.000000       0.000000       0.000000
      0.003522      -0.000166       0.000000
      0.003442      -0.000133       0.000000
      0.000000       0.000000       0.000000
      0.003522      -0.000166       0.000000
      0.006973      -0.000178       0.000000
      0.006826      -0.000149       0.000000
      0.003442      -0.000133       0.000000
      0.007181      -0.000200       0.000000
      0.010568      -0.000160       0.000000
      0.010319      -0.000142       0.000000
      0.006973      -0.000178       0.000000
      0.010568      -0.000160       0.000000
      0.013817      -0.000118       0.000000
      0.013550      -0.000102       0.000000
      0.010319      -0.000142       0.000000
      0.006973      -0.000178       0.000000
      0.010319      -0.000142       0.000000
      0.010130      -0.000120       0.000000
      0.006826      -0.000149       0.000000
      0.010319      -0.000142       0.000000
      0.013550      -0.000102       0.000000
      0.013339      -0.000086       0.000000
      0.010130      -0.000120       0.000000
      0.014532      -0.000157       0.000000
      0.017658      -0.000123       0.000000
      0.017275      -0.000102       0.000000
      0.014144      -0.000135       0.000000
      0.017658      -0.000123       0.000000
      0.020675      -0.000100       0.000000
      0.020296      -0.000079       0.000000
      0.017275      -0.000102       0.000000
      0.014144      -0.000135       0.000000
      0.017275      -0.000102       0.000000
      0.016945      -0.000085       0.000000
      0.013817      -0.000118       0.000000
      0.017275      -0.000102       0.000000
      0.020296      -0.000079       0.000000
      0.019967      -0.000062       0.000000
      0.016945      -0.000085       0.000000
      0.020675      -0.000100       0.000000
      0.023595      -0.000085       0.000000
      0.023220      -0.000064       0.000000
      0.020296      -0.000079       0.000000
      0.023595      -0.000085       0.000000
      0.026429      -0.000076       0.000000
      0.026056      -0.000055       0.000000
      0.023220      -0.000064       0.000000
      0.020296      -0.000079       0.000000
      0.023220      -0.000064       0.000000
      0.022893      -0.000047       0.000000
      0.019967      -0.000062       0.000000
      0.023220      -0.000064       0.000000
      0.026056      -0.000055       0.000000
      0.025731      -0.000038       0.000000
      0.022893      -0.000047       0.000000
      0.013817      -0.000118       0.000000
      0.016945      -0.000085       0.000000
      0.016671      -0.000071       0.000000
      0.013550      -0.000102       0.000000
      0.016945      -0.000085       0.000000
      0.019967      -0.000062       0.000000
      0.019690      -0.000049       0.000000
      0.016671      -0.000071       0.000000
      0.013550      -0.000102       0.000000
      0.016671      -0.000071       0.000000
      0.016450      -0.000058       0.000000
      0.013339      -0.000086       0.000000
      0.016671      -0.000071       0.000000
      0.019690      -0.000049       0.000000
      0.019465      -0.000038       0.000000
      0.016450      -0.000058       0.000000
      0.019967      -0.000062       0.000000
      0.022893      -0.000047       0.000000
      0.022616      -0.000035       0.000000
      0.019690      -0.000049       0.000000
      0.022893      -0.000047       0.000000
      0.025731      -0.000038       0.000000
      0.025455      -0.000026       0.000000
      0.022616      -0.000035       0.000000
      0.019690      -0.000049       0.000000
      0.022616      -0.000035       0.000000
      0.022389      -0.000025       0.000000
      0.019465      -0.000038       0.000000
      0.022616      -0.000035       0.000000
      0.025455      -0.000026       0.000000
      0.025228      -0.000017       0.000000
      0.022389      -0.000025       0.000000
      0.000000       0.000000       0.000000
      0.003442      -0.000133       0.000000
      0.003388      -0.000099       0.000000
      0.000000       0.000000       0.000000
      0.003442      -0.000133       0.000000
      0.006826      -0.000149       0.000000
      0.006723      -0.000116       0.000000
      0.003388      -0.000099       0.000000
      0.000000       0.000000       0.000000
      0.003388      -0.000099       0.000000
      0.003354      -0.000066       0.000000
      0.000000       0.000000       0.000000
      0.003388      -0.000099       0.000000
      0.006723      -0.000116       0.000000
      0.006656      -0.000079       0.000000
      0.003354      -0.000066       0.000000
      0.006826      -0.000149       0.000000
      0.010130      -0.000120       0.000000
      0.009993      -0.000095       0.000000
      0.006723      -0.000116       0.000000
      0.010130      -0.000120       0.000000
      0.013339      -0.000086       0.000000
      0.013181      -0.000067       0.000000
      0.009993      -0.000095       0.000000
      0.006723      -0.000116       0.000000
      0.009993      -0.000095       0.000000
      0.009900      -0.000065       0.000000
      0.006656      -0.000079       0.000000
      0.009993      -0.000095       0.000000
      0.013181      -0.000067       0.000000
      0.013071      -0.000046       0.000000
      0.009900      -0.000065       0.000000
      0.000000       0.000000       0.000000
      0.003354      -0.000066       0.000000
      0.003334      -0.000033       0.000000
      0.000000       0.000000       0.000000
      0.003354      -0.000066       0.000000
      0.006656      -0.000079       0.000000
      0.006618      -0.000040       0.000000
      0.003334      -0.000033       0.000000
      0.000000       0.000000       0.000000
      0.003334      -0.000033       0.000000
      0.003328       0.000000       0.000000
      0.000000       0.000000       0.000000
      0.003334      -0.000033       0.000000
      0.006618      -0.000040       0.000000
      0.006605       0.000000       0.000000
      0.003328       0.000000       0.000000
      0.006656      -0.000079       0.000000
      0.009900      -0.000065       0.000000
      0.009846      -0.000033       0.000000
      0.006618      -0.000040       0.000000
      0.009900      -0.000065       0.000000
      0.013071      -0.000046       0.000000
      0.013007      -0.000024       0.000000
      0.009846      -0.000033       0.000000
      0.006618      -0.000040       0.000000
      0.009846      -0.000033       0.000000
      0.009828      -0.000000       0.000000
      0.006605       0.000000       0.000000
      0.009846      -0.000033       0.000000
      0.013007      -0.000024       0.000000
      0.012986      -0.000000       0.000000
      0.009828      -0.000000       0.000000
      0.013339      -0.000086       0.000000
      0.016450      -0.000058       0.000000
      0.016281      -0.000044       0.000000
      0.013181      -0.000067       0.000000
      0.016450      -0.000058       0.000000
      0.019465      -0.000038       0.000000
      0.019291      -0.000028       0.000000
      0.016281      -0.000044       0.000000
      0.013181      -0.000067       0.000000
      0.016281      -0.000044       0.000000
      0.016162      -0.000030       0.000000
      0.013071      -0.000046       0.000000
      0.016281      -0.000044       0.000000
      0.019291      -0.000028       0.000000
      0.019167      -0.000019       0.000000
      0.016162      -0.000030       0.000000
      0.019465      -0.000038       0.000000
      0.022389      -0.000025       0.000000
      0.022213      -0.000017       0.000000
      0.019291      -0.000028       0.000000
      0.022389      -0.000025       0.000000
      0.025228      -0.000017       0.000000
      0.025052      -0.000011       0.000000
      0.022213      -0.000017       0.000000
      0.019291      -0.000028       0.000000
      0.022213      -0.000017       0.000000
      0.022088      -0.000011       0.000000
      0.019167      -0.000019       0.000000
      0.022213      -0.000017       0.000000
      0.025052      -0.000011       0.000000
      0.024926      -0.000006       0.000000
      0.022088      -0.000011       0.000000
      0.013071      -0.000046       0.000000
      0.016162      -0.000030       0.000000
      0.016091      -0.000015       0.000000
      0.013007      -0.000024       0.000000
      0.016162      -0.000030       0.000000
      0.019167      -0.000019       0.000000
      0.019094      -0.000009       0.000000
      0.016091      -0.000015       0.000000
      0.013007      -0.000024       0.000000
      0.016091      -0.000015       0.000000
      0.016068      -0.000000       0.000000
      0.012986      -0.000000       0.000000
      0.016091      -0.000015       0.000000
      0.019094      -0.000009       0.000000
      0.019069      -0.000000       0.000000
      0.016068      -0.000000       0.000000
      0.019167      -0.000019       0.000000
      0.022088      -0.000011       0.000000
      0.022013      -0.000005       0.000000
      0.019094      -0.000009       0.000000
      0.022088      -0.000011       0.000000
      0.024926      -0.000006       0.000000
      0.024850      -0.000003       0.000000
      0.022013      -0.000005       0.000000
      0.019094      -0.000009       0.000000
      0.022013      -0.000005       0.000000
      0.021988      -0.000000       0.000000
      0.019069      -0.000000       0.000000
      0.022013      -0.000005       0.000000
      0.024850      -0.000003       0.000000
      0.024825      -0.000000       0.000000
      0.021988      -0.000000       0.000000
      0.044973      -0.000000       0.000000
      0.053676      -0.000000       0.000000
      0.054072       0.000009       0.000000
      0.045370       0.000008       0.000000
      0.053676      -0.000000       0.000000
      0.061670      -0.000000       0.000000
      0.062066       0.000010       0.000000
      0.054072       0.000009       0.000000
      0.045370       0.000008       0.000000
      0.054072       0.000009       0.000000
      0.055245       0.000065       0.000000
      0.046547       0.000065       0.000000
      0.054072       0.000009       0.000000
      0.062066       0.000010       0.000000
      0.063237       0.000067       0.000000
      0.055245       0.000065       0.000000
      0.061670      -0.000000       0.000000
      0.069061      -0.000000       0.000000
      0.069459       0.000010       0.000000
      0.062066       0.000010       0.000000
      0.069061      -0.000000       0.000000
      0.075933      -0.000000       0.000000
      0.076336       0.000002       0.000000
      0.069459       0.000010       0.000000
      0.062066       0.000010       0.000000
      0.069459       0.000010       0.000000
      0.070634       0.000067       0.000000
      0.063237       0.000067       0.000000
      0.069459       0.000010       0.000000
      0.076336       0.000002       0.000000
      0.077527       0.000058       0.000000
      0.070634       0.000067       0.000000
      0.075933      -0.000000       0.000000
      0.082361      -0.000000       0.000000
      0.082764      -0.000035       0.000000
      0.076336       0.000002       0.000000
      0.082361      -0.000000       0.000000
      0.088428      -0.000000       0.000000
      0.088799      -0.000143       0.000000
      0.082764      -0.000035       0.000000
      0.076336       0.000002       0.000000
      0.082764      -0.000035       0.000000
      0.083987       0.000010       0.000000
      0.077527       0.000058       0.000000
      0.082764      -0.000035       0.000000
      0.088799      -0.000143       0.000000
      0.090038      -0.000135       0.000000
      0.083987       0.000010       0.000000
      0.088428      -0.000000       0.000000
      0.094260      -0.000000       0.000000
      0.094505      -0.000351       0.000000
      0.088799      -0.000143       0.000000
      0.094260      -0.000000       0.000000
      0.100000      -0.000000       0.000000
      0.100000      -0.000517       0.000000
      0.094505      -0.000351       0.000000
      0.088799      -0.000143       0.000000
      0.094505      -0.000351       0.000000
      0.095586      -0.000449       0.000000