# vtk DataFile Version 2.0
time_10.vtk
ASCII
DATASET UNSTRUCTURED_GRID
POINTS  1008 float
      1.666667      -0.583333       0.000000
      2.083333      -0.635417       0.000000
      2.083333      -0.317708       0.000000
      1.666667      -0.291667       0.000000
      2.083333      -0.635417       0.000000
      2.500000      -0.687500       0.000000
      2.500000      -0.343750       0.000000
      2.083333      -0.317708       0.000000
      1.666667      -0.291667       0.000000
      2.083333      -0.317708       0.000000
      2.083333       0.000000       0.000000
      1.666667       0.000000       0.000000
      2.083333      -0.317708       0.000000
      2.500000      -0.343750       0.000000
      2.500000       0.000000       0.000000
      2.083333       0.000000       0.000000
      2.500000      -0.687500       0.000000
      2.916667      -0.739583       0.000000
      2.916667      -0.369792       0.000000
      2.500000      -0.343750       0.000000
      2.916667      -0.739583       0.000000
      3.333333      -0.791667       0.000000
      3.333333      -0.395833       0.000000
      2.916667      -0.369792       0.000000
      2.500000      -0.343750       0.000000
      2.916667      -0.369792       0.000000
      2.916667       0.000000       0.000000
      2.500000       0.000000       0.000000
      2.916667      -0.369792       0.000000
      3.333333      -0.395833       0.000000
      3.333333       0.000000       0.000000
      2.916667       0.000000       0.000000
      3.333333      -0.791667       0.000000
      3.750000      -0.843750       0.000000
      3.750000      -0.421875       0.000000
      3.333333      -0.395833       0.000000
      3.750000      -0.843750       0.000000
      4.166667      -0.895833       0.000000
      4.166667      -0.447917       0.000000
      3.750000      -0.421875       0.000000
      3.333333      -0.395833       0.000000
      3.750000      -0.421875       0.000000
      3.750000       0.000000       0.000000
      3.333333       0.000000       0.000000
      3.750000      -0.421875       0.000000
      4.166667      -0.447917       0.000000
      4.166667       0.000000       0.000000
      3.750000       0.000000       0.000000
      4.166667      -0.895833       0.000000
      4.583333      -0.947917       0.000000
      4.583333      -0.473958       0.000000
      4.166667      -0.447917       0.000000
      4.583333      -0.947917       0.000000
      5.000000      -1.000000       0.000000
      5.000000      -0.500000       0.000000
      4.583333      -0.473958       0.000000
      4.166667      -0.447917       0.000000
      4.583333      -0.473958       0.000000
      4.583333       0.000000       0.000000
      4.166667       0.000000       0.000000
      4.583333      -0.473958       0.000000
      5.000000      -0.500000       0.000000
      5.000000       0.000000       0.000000
      4.583333       0.000000       0.000000
      0.833333      -0.479167       0.000000
      1.041667      -0.505208       0.000000
      1.041667      -0.378906       0.000000
      0.833333      -0.359375       0.000000
      1.041667      -0.505208       0.000000
      1.250000      -0.531250       0.000000
      1.250000      -0.398437       0.000000
      1.041667      -0.378906       0.000000
      0.833333      -0.359375       0.000000
      1.041667      -0.378906       0.000000
      1.041667      -0.252604       0.000000
      0.833333      -0.239583       0.000000
      1.041667      -0.378906       0.000000
      1.250000      -0.398437       0.000000
      1.250000      -0.265625       0.000000
      1.041667      -0.252604       0.000000
      1.250000      -0.531250       0.000000
      1.458333      -0.557292       0.000000
      1.458333      -0.417969       0.000000
      1.250000      -0.398437       0.000000
      1.458333      -0.557292       0.000000
      1.666667      -0.583333       0.000000
      1.666667      -0.437500       0.000000
      1.458333      -0.417969       0.000000
      1.250000      -0.398437       0.000000
      1.458333      -0.417969       0.000000
      1.458333      -0.278646       0.000000
      1.250000      -0.265625       0.000000
      1.458333      -0.417969       0.000000
      1.666667      -0.437500       0.000000
      1.666667      -0.291667       0.000000
      1.458333      -0.278646       0.000000
      0.833333      -0.239583       0.000000
      1.041667      -0.252604       0.000000
      1.041667      -0.126302       0.000000
      0.833333      -0.119792       0.000000
      1.041667      -0.252604       0.000000
      1.250000      -0.265625       0.000000
      1.250000      -0.132812       0.000000
      1.041667      -0.126302       0.000000
      0.833333      -0.119792       0.000000
      1.041667      -0.126302       0.000000
      1.041667       0.000000       0.000000
      0.833333       0.000000       0.000000
      1.041667      -0.126302       0.000000
      1.250000      -0.132812       0.000000
      1.250000       0.000000       0.000000
      1.041667       0.000000       0.000000
      1.250000      -0.265625       0.000000
      1.458333      -0.278646       0.000000
      1.458333      -0.139323       0.000000
      1.250000      -0.132812       0.000000
      1.458333      -0.278646       0.000000
      1.666667      -0.291667       0.000000
      1.666667      -0.145833       0.000000
      1.458333      -0.139323       0.000000
      1.250000      -0.132812       0.000000
      1.458333      -0.139323       0.000000
      1.458333       0.000000       0.000000
      1.250000       0.000000       0.000000
      1.458333      -0.139323       0.000000
      1.666667      -0.145833       0.000000
      1.666667       0.000000       0.000000
      1.458333       0.000000       0.000000
      0.208333      -0.401042       0.000000
      0.312500      -0.414062       0.000000
      0.312500      -0.362305       0.000000
      0.208333      -0.350911       0.000000
      0.312500      -0.414062       0.000000
      0.416667      -0.427083       0.000000
      0.416667      -0.373698       0.000000
      0.312500      -0.362305       0.000000
      0.208333      -0.350911       0.000000
      0.312500      -0.362305       0.000000
      0.312500      -0.310547       0.000000
      0.208333      -0.300781       0.000000
      0.312500      -0.362305       0.000000
      0.416667      -0.373698       0.000000
      0.416667      -0.320312       0.000000
      0.312500      -0.310547       0.000000
      0.104167      -0.291016       0.000000
      0.208333      -0.300781       0.000000
      0.208333      -0.250651       0.000000
      0.104167      -0.242513       0.000000
      0.104167      -0.242513       0.000000
      0.208333      -0.250651       0.000000
      0.208333      -0.200521       0.000000
      0.104167      -0.194010       0.000000
      0.208333      -0.300781       0.000000
      0.312500      -0.310547       0.000000
      0.312500      -0.258789       0.000000
      0.208333      -0.250651       0.000000
      0.312500      -0.310547       0.000000
      0.416667      -0.320312       0.000000
      0.416667      -0.266927       0.000000
      0.312500      -0.258789       0.000000
      0.208333      -0.250651       0.000000
      0.312500      -0.258789       0.000000
      0.312500      -0.207031       0.000000
      0.208333      -0.200521       0.000000
      0.312500      -0.258789       0.000000
      0.416667      -0.266927       0.000000
      0.416667      -0.213542       0.000000
      0.312500      -0.207031       0.000000
      0.416667      -0.427083       0.000000
      0.520833      -0.440104       0.000000
      0.520833      -0.385091       0.000000
      0.416667      -0.373698       0.000000
      0.520833      -0.440104       0.000000
      0.625000      -0.453125       0.000000
      0.625000      -0.396484       0.000000
      0.520833      -0.385091       0.000000
      0.416667      -0.373698       0.000000
      0.520833      -0.385091       0.000000
      0.520833      -0.330078       0.000000
      0.416667      -0.320312       0.000000
      0.520833      -0.385091       0.000000
      0.625000      -0.396484       0.000000
      0.625000      -0.339844       0.000000
      0.520833      -0.330078       0.000000
      0.625000      -0.453125       0.000000
      0.729167      -0.466146       0.000000
      0.729167      -0.407878       0.000000
      0.625000      -0.396484       0.000000
      0.729167      -0.466146       0.000000
      0.833333      -0.479167       0.000000
      0.833333      -0.419271       0.000000
      0.729167      -0.407878       0.000000
      0.625000      -0.396484       0.000000
      0.729167      -0.407878       0.000000
      0.729167      -0.349609       0.000000
      0.625000      -0.339844       0.000000
      0.729167      -0.407878       0.000000
      0.833333      -0.419271       0.000000
      0.833333      -0.359375       0.000000
      0.729167      -0.349609       0.000000
      0.416667      -0.320312       0.000000
      0.520833      -0.330078       0.000000
      0.520833      -0.275065       0.000000
      0.416667      -0.266927       0.000000
      0.520833      -0.330078       0.000000
      0.625000      -0.339844       0.000000
      0.625000      -0.283203       0.000000
      0.520833      -0.275065       0.000000
      0.416667      -0.266927       0.000000
      0.520833      -0.275065       0.000000
      0.520833      -0.220052       0.000000
      0.416667      -0.213542       0.000000
      0.520833      -0.275065       0.000000
      0.625000      -0.283203       0.000000
      0.625000      -0.226562       0.000000
      0.520833      -0.220052       0.000000
      0.625000      -0.339844       0.000000
      0.729167      -0.349609       0.000000
      0.729167      -0.291341       0.000000
      0.625000      -0.283203       0.000000
[...]
POINT_DATA  1008
VECTORS U float 
      0.175734      -0.000175       0.000000
      0.199210      -0.000173       0.000000
      0.196077      -0.000022       0.000000
      0.172495      -0.000019       0.000000
      0.199210      -0.000173       0.000000
      0.220294      -0.000174       0.000000
      0.217226      -0.000025       0.000000
      0.196077      -0.000022       0.000000
      0.172495      -0.000019       0.000000
      0.196077      -0.000022       0.000000
      0.195017      -0.000000       0.000000
      0.171396      -0.000000       0.000000
      0.196077      -0.000022       0.000000
      0.217226      -0.000025       0.000000
      0.216188       0.000000       0.000000
      0.195017      -0.000000       0.000000
      0.220294      -0.000174       0.000000
      0.239507      -0.000175       0.000000
      0.236471      -0.000027       0.000000
      0.217226      -0.000025       0.000000
      0.239507      -0.000175       0.000000
      0.257210      -0.000153       0.000000
      0.254162      -0.000009       0.000000
      0.236471      -0.000027       0.000000
      0.217226      -0.000025       0.000000
      0.236471      -0.000027       0.000000
      0.235442       0.000000       0.000000
      0.216188       0.000000       0.000000
      0.236471      -0.000027       0.000000
      0.254162      -0.000009       0.000000
      0.253129       0.000000       0.000000
      0.235442       0.000000       0.000000
      0.257210      -0.000153       0.000000
      0.273662      -0.000032       0.000000
      0.270549       0.000084       0.000000
      0.254162      -0.000009       0.000000
      0.273662      -0.000032       0.000000
      0.288978       0.000337       0.000000
      0.285830       0.000359       0.000000
      0.270549       0.000084       0.000000
      0.254162      -0.000009       0.000000
      0.270549       0.000084       0.000000
      0.269517       0.000000       0.000000
      0.253129       0.000000       0.000000
      0.270549       0.000084       0.000000
      0.285830       0.000359       0.000000
      0.284879       0.000000       0.000000
      0.269517       0.000000       0.000000
      0.288978       0.000337       0.000000
      0.302943       0.001138       0.000000
      0.300202       0.000890       0.000000
      0.285830       0.000359       0.000000
      0.302943       0.001138       0.000000
      0.314000       0.002279       0.000000
      0.314000       0.001316       0.000000
      0.300202       0.000890       0.000000
      0.285830       0.000359       0.000000
      0.300202       0.000890       0.000000
      0.299571       0.000000       0.000000
      0.284879       0.000000       0.000000
      0.300202       0.000890       0.000000
      0.314000       0.001316       0.000000
      0.314000       0.000000       0.000000
      0.299571       0.000000       0.000000
      0.117051      -0.000231       0.000000
      0.133865      -0.000191       0.000000
      0.131768      -0.000077       0.000000
      0.114776      -0.000108       0.000000
      0.133865      -0.000191       0.000000
      0.148982      -0.000180       0.000000
      0.146990      -0.000071       0.000000
      0.131768      -0.000077       0.000000
      0.114776      -0.000108       0.000000
      0.131768      -0.000077       0.000000
      0.130230      -0.000018       0.000000
      0.113097      -0.000040       0.000000
      0.131768      -0.000077       0.000000
      0.146990      -0.000071       0.000000
      0.145539      -0.000015       0.000000
      0.130230      -0.000018       0.000000
      0.148982      -0.000180       0.000000
      0.162849      -0.000177       0.000000
      0.160924      -0.000071       0.000000
      0.146990      -0.000071       0.000000
      0.162849      -0.000177       0.000000
      0.175734      -0.000175       0.000000
      0.173855      -0.000072       0.000000
      0.160924      -0.000071       0.000000
      0.146990      -0.000071       0.000000
      0.160924      -0.000071       0.000000
      0.159527      -0.000017       0.000000
      0.145539      -0.000015       0.000000
      0.160924      -0.000071       0.000000
      0.173855      -0.000072       0.000000
      0.172495      -0.000019       0.000000
      0.159527      -0.000017       0.000000
      0.113097      -0.000040       0.000000
      0.130230      -0.000018       0.000000
      0.129292       0.000001       0.000000
      0.112070      -0.000011       0.000000
      0.130230      -0.000018       0.000000
      0.145539      -0.000015       0.000000
      0.144656       0.000002       0.000000
      0.129292       0.000001       0.000000
      0.112070      -0.000011       0.000000
      0.129292       0.000001       0.000000
      0.128976      -0.000000       0.000000
      0.111724       0.000000       0.000000
      0.129292       0.000001       0.000000
      0.144656       0.000002       0.000000
      0.144360      -0.000000       0.000000
      0.128976      -0.000000       0.000000
      0.145539      -0.000015       0.000000
      0.159527      -0.000017       0.000000
      0.158679       0.000001       0.000000
      0.144656       0.000002       0.000000
      0.159527      -0.000017       0.000000
      0.172495      -0.000019       0.000000
      0.171671      -0.000001       0.000000
      0.158679       0.000001       0.000000
      0.144656       0.000002       0.000000
      0.158679       0.000001       0.000000
      0.158395      -0.000000       0.000000
      0.144360      -0.000000       0.000000
      0.158679       0.000001       0.000000
      0.171671      -0.000001       0.000000
      0.171396      -0.000000       0.000000
      0.158395      -0.000000       0.000000
      0.043756      -0.001287       0.000000
      0.060239      -0.000975       0.000000
      0.058395      -0.000877       0.000000
      0.041762      -0.001183       0.000000
      0.060239      -0.000975       0.000000
      0.074347      -0.000691       0.000000
      0.072688      -0.000601       0.000000
      0.058395      -0.000877       0.000000
      0.041762      -0.001183       0.000000
      0.058395      -0.000877       0.000000
      0.056859      -0.000792       0.000000
      0.040227      -0.001084       0.000000
      0.058395      -0.000877       0.000000
      0.072688      -0.000601       0.000000
      0.071255      -0.000526       0.000000
      0.056859      -0.000792       0.000000
      0.021071      -0.001140       0.000000
      0.040227      -0.001084       0.000000
      0.039074      -0.000962       0.000000
      0.020323      -0.000965       0.000000
      0.020323      -0.000965       0.000000
      0.039074      -0.000962       0.000000
      0.038225      -0.000808       0.000000
      0.019816      -0.000773       0.000000
      0.040227      -0.001084       0.000000
      0.056859      -0.000792       0.000000
      0.055617      -0.000702       0.000000
      0.039074      -0.000962       0.000000
      0.056859      -0.000792       0.000000
      0.071255      -0.000526       0.000000
      0.070055      -0.000455       0.000000
      0.055617      -0.000702       0.000000
      0.039074      -0.000962       0.000000
      0.055617      -0.000702       0.000000
      0.054645      -0.000595       0.000000
      0.038225      -0.000808       0.000000
      0.055617      -0.000702       0.000000
      0.070055      -0.000455       0.000000
      0.069086      -0.000380       0.000000
      0.054645      -0.000595       0.000000
      0.074347      -0.000691       0.000000
      0.086695      -0.000487       0.000000
      0.085197      -0.000404       0.000000
      0.072688      -0.000601       0.000000
      0.086695      -0.000487       0.000000
      0.097733      -0.000356       0.000000
      0.096360      -0.000279       0.000000
      0.085197      -0.000404       0.000000
      0.072688      -0.000601       0.000000
      0.085197      -0.000404       0.000000
      0.083881      -0.000337       0.000000
      0.071255      -0.000526       0.000000
      0.085197      -0.000404       0.000000
      0.096360      -0.000279       0.000000
      0.095148      -0.000217       0.000000
      0.083881      -0.000337       0.000000
      0.097733      -0.000356       0.000000
      0.107778      -0.000277       0.000000
      0.106500      -0.000204       0.000000
      0.096360      -0.000279       0.000000
      0.107778      -0.000277       0.000000
      0.117051      -0.000231       0.000000
      0.115843      -0.000161       0.000000
      0.106500      -0.000204       0.000000
      0.096360      -0.000279       0.000000
      0.106500      -0.000204       0.000000
      0.105369      -0.000147       0.000000
      0.095148      -0.000217       0.000000
      0.106500      -0.000204       0.000000
      0.115843      -0.000161       0.000000
      0.114776      -0.000108       0.000000
      0.105369      -0.000147       0.000000
      0.071255      -0.000526       0.000000
      0.083881      -0.000337       0.000000
      0.082760      -0.000279       0.000000
      0.070055      -0.000455       0.000000
      0.083881      -0.000337       0.000000
      0.095148      -0.000217       0.000000
      0.094107      -0.000168       0.000000
      0.082760      -0.000279       0.000000
      0.070055      -0.000455       0.000000
      0.082760      -0.000279       0.000000
      0.081841      -0.000225       0.000000
      0.069086      -0.000380       0.000000
      0.082760      -0.000279       0.000000
      0.094107      -0.000168       0.000000
      0.093246      -0.000127       0.000000
      0.081841      -0.000225       0.000000
      0.095148      -0.000217       0.000000
      0.105369      -0.000147       0.000000
      0.104396      -0.000103       0.000000
      0.094107      -0.000168       0.000000
      0.105369      -0.000147       0.000000
      0.114776      -0.000108       0.000000
      0.113858      -0.000068       0.000000
      0.104396      -0.000103       0.000000
      0.094107      -0.000168       0.000000
      0.104396      -0.000103       0.000000
      0.103591      -0.000071       0.000000
      0.093246      -0.000127       0.000000
      0.104396      -0.000103       0.000000
      0.113858      -0.000068       0.000000
      0.113097      -0.000040       0.000000
      0.103591      -0.000071       0.000000
      0.019816      -0.000773       0.000000
      0.038225      -0.000808       0.000000
      0.037616      -0.000627       0.000000
      0.019467      -0.000578       0.000000
      0.019467      -0.000578       0.000000
      0.037616      -0.000627       0.000000
      0.037207      -0.000428       0.000000
      0.019237      -0.000384       0.000000
      0.038225      -0.000808       0.000000
      0.054645      -0.000595       0.000000
      0.053919      -0.000468       0.000000
      0.037616      -0.000627       0.000000
      0.054645      -0.000595       0.000000
      0.069086      -0.000380       0.000000
      0.068343      -0.000297       0.000000
      0.053919      -0.000468       0.000000
      0.037616      -0.000627       0.000000
      0.053919      -0.000468       0.000000
      0.053417      -0.000323       0.000000
      0.037207      -0.000428       0.000000
      0.053919      -0.000468       0.000000
      0.068343      -0.000297       0.000000
      0.067818      -0.000204       0.000000
      0.053417      -0.000323       0.000000
      0.019237      -0.000384       0.000000
      0.037207      -0.000428       0.000000
      0.036970      -0.000216       0.000000
      0.019105      -0.000192       0.000000
      0.019105      -0.000192       0.000000
      0.036970      -0.000216       0.000000
      0.036893       0.000000       0.000000
      0.019062       0.000000       0.000000
      0.037207      -0.000428       0.000000
      0.053417      -0.000323       0.000000
      0.053122      -0.000165       0.000000
      0.036970      -0.000216       0.000000
      0.053417      -0.000323       0.000000
      0.067818      -0.000204       0.000000
      0.067506      -0.000104       0.000000
      0.053122      -0.000165       0.000000
      0.036970      -0.000216       0.000000
      0.053122      -0.000165       0.000000
      0.053025       0.000000       0.000000
      0.036893       0.000000       0.000000
      0.053122      -0.000165       0.000000
      0.067506      -0.000104       0.000000
      0.067403       0.000000       0.000000
      0.053025       0.000000       0.000000
      0.069086      -0.000380       0.000000
      0.081841      -0.000225       0.000000
      0.081126      -0.000171       0.000000
      0.068343      -0.000297       0.000000
      0.081841      -0.000225       0.000000
      0.093246      -0.000127       0.000000
      0.092573      -0.000092       0.000000
      0.081126      -0.000171       0.000000
      0.068343      -0.000297       0.000000
      0.081126      -0.000171       0.000000
      0.080615      -0.000116       0.000000
      0.067818      -0.000204       0.000000
      0.081126      -0.000171       0.000000
      0.092573      -0.000092       0.000000
      0.092089      -0.000060       0.000000
      0.080615      -0.000116       0.000000
      0.093246      -0.000127       0.000000
      0.103591      -0.000071       0.000000
      0.102958      -0.000046       0.000000
      0.092573      -0.000092       0.000000
      0.103591      -0.000071       0.000000
      0.113097      -0.000040       0.000000
      0.112500      -0.000022       0.000000
      0.102958      -0.000046       0.000000
      0.092573      -0.000092       0.000000
      0.102958      -0.000046       0.000000
      0.102503      -0.000028       0.000000
      0.092089      -0.000060       0.000000
      0.102958      -0.000046       0.000000
      0.112500      -0.000022       0.000000
      0.112070      -0.000011       0.000000
      0.102503      -0.000028       0.000000
      0.067818      -0.000204       0.000000
      0.080615      -0.000116       0.000000
      0.080310      -0.000059       0.000000
      0.067506      -0.000104       0.000000
      0.080615      -0.000116       0.000000
      0.092089      -0.000060       0.000000
      0.091799      -0.000030       0.000000
      0.080310      -0.000059       0.000000
      0.067506      -0.000104       0.000000
      0.080310      -0.000059       0.000000
      0.080208       0.000000       0.000000
      0.067403       0.000000       0.000000
      0.080310      -0.000059       0.000000
      0.091799      -0.000030       0.000000
      0.091702       0.000000       0.000000
      0.080208       0.000000       0.000000
      0.092089      -0.000060       0.000000
      0.102503      -0.000028       0.000000
      0.102228      -0.000013       0.000000
      0.091799      -0.000030       0.000000
      0.102503      -0.000028       0.000000
      0.112070      -0.000011       0.000000
      0.111811      -0.000004       0.000000
      0.102228      -0.000013       0.000000
      0.091799      -0.000030       0.000000
      0.102228      -0.000013       0.000000
      0.102137       0.000000       0.000000
      0.091702       0.000000       0.000000
      0.102228      -0.000013       0.000000
      0.111811      -0.000004       0.000000
      0.111724       0.000000       0.000000
      0.102137       0.000000       0.000000
      0.000000       0.000000       0.000000
      0.012840      -0.001172       0.000000
      0.011911      -0.001084       0.000000
     -0.000000       0.000000       0.000000
      0.012840      -0.001172       0.000000
      0.024117      -0.001374       0.000000
      0.023075      -0.001321       0.000000
      0.011911      -0.001084       0.000000
     -0.000000       0.000000       0.000000
      0.011911      -0.001084       0.000000
      0.011349      -0.000997       0.000000
      0.000000       0.000000       0.000000
      0.011911      -0.001084       0.000000
      0.023075      -0.001321       0.000000
      0.022236      -0.001274       0.000000
      0.011349      -0.000997       0.000000
      0.024117      -0.001374       0.000000
      0.034387      -0.001413       0.000000
      0.033303      -0.001346       0.000000
      0.023075      -0.001321       0.000000
      0.034387      -0.001413       0.000000
      0.043756      -0.001287       0.000000
      0.042699      -0.001231       0.000000
      0.033303      -0.001346       0.000000
      0.023075      -0.001321       0.000000
      0.033303      -0.001346       0.000000
      0.032384      -0.001290       0.000000
      0.022236      -0.001274       0.000000
      0.033303      -0.001346       0.000000
      0.042699      -0.001231       0.000000
      0.041762      -0.001183       0.000000
      0.032384      -0.001290       0.000000
      0.000000       0.000000       0.000000
      0.011349      -0.000997       0.000000
      0.010961      -0.000906       0.000000
     -0.000000       0.000000       0.000000
      0.011349      -0.000997       0.000000
      0.022236      -0.001274       0.000000
      0.021585      -0.001213       0.000000
      0.010961      -0.000906       0.000000
     -0.000000       0.000000       0.000000
      0.010961      -0.000906       0.000000
      0.010680      -0.000818       0.000000
      0.000000       0.000000       0.000000
      0.010961      -0.000906       0.000000
      0.021585      -0.001213       0.000000
      0.021071      -0.001140       0.000000
      0.010680      -0.000818       0.000000
      0.022236      -0.001274       0.000000
      0.032384      -0.001290       0.000000
      0.031608      -0.001236       0.000000
      0.021585      -0.001213       0.000000
      0.032384      -0.001290       0.000000
      0.041762      -0.001183       0.000000
      0.040942      -0.001135       0.000000
      0.031608      -0.001236       0.000000
      0.021585      -0.001213       0.000000
      0.031608      -0.001236       0.000000
      0.030957      -0.001176       0.000000
      0.021071      -0.001140       0.000000
      0.031608      -0.001236       0.000000
      0.040942      -0.001135       0.000000
      0.040227      -0.001084       0.000000
      0.030957      -0.001176       0.000000
      0.000000       0.000000       0.000000
      0.010680      -0.000818       0.000000
      0.010460      -0.000733       0.000000
      0.000000       0.000000       0.000000
      0.010680      -0.000818       0.000000
      0.021071      -0.001140       0.000000
      0.020659      -0.001056       0.000000
      0.010460      -0.000733       0.000000
      0.000000       0.000000       0.000000
      0.010460      -0.000733       0.000000
      0.010284      -0.000653       0.000000
      0.000000       0.000000       0.000000
      0.010460      -0.000733       0.000000
      0.020659      -0.001056       0.000000
      0.020323      -0.000965       0.000000
      0.010284      -0.000653       0.000000
      0.000000       0.000000       0.000000
      0.010284      -0.000653       0.000000
      0.010140      -0.000577       0.000000
     -0.000000      -0.000000       0.000000
      0.010284      -0.000653       0.000000
      0.020323      -0.000965       0.000000
      0.020046      -0.000870       0.000000
      0.010140      -0.000577       0.000000
     -0.000000      -0.000000       0.000000
      0.010140      -0.000577       0.000000
      0.010022      -0.000505       0.000000
      0.000000       0.000000       0.000000
      0.010140      -0.000577       0.000000
      0.020046      -0.000870       0.000000
      0.019816      -0.000773       0.000000
      0.010022      -0.000505       0.000000
      0.000000       0.000000       0.000000
      0.010022      -0.000505       0.000000
      0.009924      -0.000436       0.000000