# vtk DataFile Version 2.0
time_10.vtk
ASCII
DATASET UNSTRUCTURED_GRID
POINTS   768 float
      1.666667      -0.583333       0.000000
      2.083333      -0.635417       0.000000
      2.083333      -0.317708       0.000000
      1.666667      -0.291667       0.000000
      2.083333      -0.635417       0.000000
      2.500000      -0.687500       0.000000
      2.500000      -0.343750       0.000000
      2.083333      -0.317708       0.000000
      1.666667      -0.291667       0.000000
      2.083333      -0.317708       0.000000
      2.083333       0.000000       0.000000
      1.666667       0.000000       0.000000
      2.083333      -0.317708       0.000000
      2.500000      -0.343750       0.000000
      2.500000       0.000000       0.000000
      2.083333       0.000000       0.000000
      2.500000      -0.687500       0.000000
      2.916667      -0.739583       0.000000
      2.916667      -0.369792       0.000000
      2.500000      -0.343750       0.000000
      2.916667      -0.739583       0.000000
      3.333333      -0.791667       0.000000
      3.333333      -0.395833       0.000000
      2.916667      -0.369792       0.000000
      2.500000      -0.343750       0.000000
      2.916667      -0.369792       0.000000
      2.916667       0.000000       0.000000
      2.500000       0.000000       0.000000
      2.916667      -0.369792       0.000000
      3.333333      -0.395833       0.000000
      3.333333       0.000000       0.000000
      2.916667       0.000000       0.000000
      3.333333      -0.791667       0.000000
      3.750000      -0.843750       0.000000
      3.750000      -0.421875       0.000000
      3.333333      -0.395833       0.000000
      3.750000      -0.843750       0.000000
      4.166667      -0.895833       0.000000
      4.166667      -0.447917       0.000000
      3.750000      -0.421875       0.000000
      3.333333      -0.395833       0.000000
      3.750000      -0.421875       0.000000
      3.750000       0.000000       0.000000
      3.333333       0.000000       0.000000
      3.750000      -0.421875       0.000000
      4.166667      -0.447917       0.000000
      4.166667       0.000000       0.000000
      3.750000       0.000000       0.000000
      4.166667      -0.895833       0.000000
      4.583333      -0.947917       0.000000
      4.583333      -0.473958       0.000000
      4.166667      -0.447917       0.000000
      4.583333      -0.947917       0.000000
      5.000000      -1.000000       0.000000
      5.000000      -0.500000       0.000000
      4.583333      -0.473958       0.000000
      4.166667      -0.447917       0.000000
      4.583333      -0.473958       0.000000
      4.583333       0.000000       0.000000
      4.166667       0.000000       0.000000
      4.583333      -0.473958       0.000000
      5.000000      -0.500000       0.000000
      5.000000       0.000000       0.000000
      4.583333       0.000000       0.000000
      0.833333      -0.479167       0.000000
      1.041667      -0.505208       0.000000
      1.041667      -0.378906       0.000000
      0.833333      -0.359375       0.000000
      1.041667      -0.505208       0.000000
      1.250000      -0.531250       0.000000
      1.250000      -0.398437       0.000000
      1.041667      -0.378906       0.000000
      0.833333      -0.359375       0.000000
      1.041667      -0.378906       0.000000
      1.041667      -0.252604       0.000000
      0.833333      -0.239583       0.000000
      1.041667      -0.378906       0.000000
      1.250000      -0.398437       0.000000
      1.250000      -0.265625       0.000000
      1.041667      -0.252604       0.000000
      1.250000      -0.531250       0.000000
      1.458333      -0.557292       0.000000
      1.458333      -0.417969       0.000000
      1.250000      -0.398437       0.000000
      1.458333      -0.557292       0.000000
      1.666667      -0.583333       0.000000
      1.666667      -0.437500       0.000000
      1.458333      -0.417969       0.000000
      1.250000      -0.398437       0.000000
      1.458333      -0.417969       0.000000
      1.458333      -0.278646       0.000000
      1.250000      -0.265625       0.000000
      1.458333      -0.417969       0.000000
      1.666667      -0.437500       0.000000
      1.666667      -0.291667       0.000000
      1.458333      -0.278646       0.000000
      0.833333      -0.239583       0.000000
      1.041667      -0.252604       0.000000
      1.041667      -0.126302       0.000000
      0.833333      -0.119792       0.000000
      1.041667      -0.252604       0.000000
      1.250000      -0.265625       0.000000
      1.250000      -0.132812       0.000000
      1.041667      -0.126302       0.000000
      0.833333      -0.119792       0.000000
      1.041667      -0.126302       0.000000
      1.041667       0.000000       0.000000
      0.833333       0.000000       0.000000
      1.041667      -0.126302       0.000000
      1.250000      -0.132812       0.000000
      1.250000       0.000000       0.000000
      1.041667       0.000000       0.000000
      1.250000      -0.265625       0.000000
      1.458333      -0.278646       0.000000
      1.458333      -0.139323       0.000000
      1.250000      -0.132812       0.000000
      1.458333      -0.278646       0.000000
      1.666667      -0.291667       0.000000
      1.666667      -0.145833       0.000000
      1.458333      -0.139323       0.000000
      1.250000      -0.132812       0.000000
      1.458333      -0.139323       0.000000
      1.458333       0.000000       0.000000
      1.250000       0.000000       0.000000
      1.458333      -0.139323       0.000000
      1.666667      -0.145833       0.000000
      1.666667       0.000000       0.000000
      1.458333       0.000000       0.000000
      0.000000      -0.375000       0.000000
      0.104167      -0.388021       0.000000
      0.104167      -0.339518       0.000000
      0.000000      -0.328125       0.000000
      0.104167      -0.388021       0.000000
      0.208333      -0.401042       0.000000
      0.208333      -0.350911       0.000000
      0.104167      -0.339518       0.000000
      0.000000      -0.328125       0.000000
      0.104167      -0.339518       0.000000
      0.104167      -0.291016       0.000000
      0.000000      -0.281250       0.000000
      0.104167      -0.339518       0.000000
      0.208333      -0.350911       0.000000
      0.208333      -0.300781       0.000000
      0.104167      -0.291016       0.000000
      0.208333      -0.401042       0.000000
      0.312500      -0.414062       0.000000
      0.312500      -0.362305       0.000000
      0.208333      -0.350911       0.000000
      0.312500      -0.414062       0.000000
      0.416667      -0.427083       0.000000
      0.416667      -0.373698       0.000000
      0.312500      -0.362305       0.000000
      0.208333      -0.350911       0.000000
      0.312500      -0.362305       0.000000
      0.312500      -0.310547       0.000000
      0.208333      -0.300781       0.000000
      0.312500      -0.362305       0.000000
      0.416667      -0.373698       0.000000
      0.416667      -0.320312       0.000000
      0.312500      -0.310547       0.000000
      0.000000      -0.281250       0.000000
      0.104167      -0.291016       0.000000
      0.104167      -0.242513       0.000000
      0.000000      -0.234375       0.000000
      0.104167      -0.291016       0.000000
      0.208333      -0.300781       0.000000
      0.208333      -0.250651       0.000000
      0.104167      -0.242513       0.000000
      0.000000      -0.234375       0.000000
      0.104167      -0.242513       0.000000
      0.104167      -0.194010       0.000000
      0.000000      -0.187500       0.000000
      0.104167      -0.242513       0.000000
      0.208333      -0.250651       0.000000
      0.208333      -0.200521       0.000000
      0.104167      -0.194010       0.000000
      0.208333      -0.300781       0.000000
      0.312500      -0.310547       0.000000
      0.312500      -0.258789       0.000000
      0.208333      -0.250651       0.000000
      0.312500      -0.310547       0.000000
      0.416667      -0.320312       0.000000
      0.416667      -0.266927       0.000000
      0.312500      -0.258789       0.000000
      0.208333      -0.250651       0.000000
      0.312500      -0.258789       0.000000
      0.312500      -0.207031       0.000000
      0.208333      -0.200521       0.000000
      0.312500      -0.258789       0.000000
      0.416667      -0.266927       0.000000
      0.416667      -0.213542       0.000000
      0.312500      -0.207031       0.000000
      0.416667      -0.427083       0.000000
      0.520833      -0.440104       0.000000
      0.520833      -0.385091       0.000000
      0.416667      -0.373698       0.000000
      0.520833      -0.440104       0.000000
      0.625000      -0.453125       0.000000
      0.625000      -0.396484       0.000000
      0.520833      -0.385091       0.000000
      0.416667      -0.373698       0.000000
      0.520833      -0.385091       0.000000
      0.520833      -0.330078       0.000000
      0.416667      -0.320312       0.000000
      0.520833      -0.385091       0.000000
      0.625000      -0.396484       0.000000
      0.625000      -0.339844       0.000000
      0.520833      -0.330078       0.000000
      0.625000      -0.453125       0.000000
      0.729167      -0.466146       0.000000
      0.729167      -0.407878       0.000000
      0.625000      -0.396484       0.000000
      0.729167      -0.466146       0.000000
      0.833333      -0.479167       0.000000
      0.833333      -0.419271       0.000000
      0.729167      -0.407878       0.000000
      0.625000      -0.396484       0.000000
      0.729167      -0.407878       0.000000
      0.729167      -0.349609       0.000000
      0.625000      -0.339844       0.000000
[...]
POINT_DATA   768
VECTORS U float 
      0.023094      -0.000032       0.000000
      0.027453      -0.000033       0.000000
      0.026865      -0.000004       0.000000
      0.022505      -0.000004       0.000000
      0.027453      -0.000033       0.000000
      0.031466      -0.000033       0.000000
      0.030878      -0.000005       0.000000
      0.026865      -0.000004       0.000000
      0.022505      -0.000004       0.000000
      0.026865      -0.000004       0.000000
      0.026666       0.000000       0.000000
      0.022306       0.000000       0.000000
      0.026865      -0.000004       0.000000
      0.030878      -0.000005       0.000000
      0.030679       0.000000       0.000000
      0.026666       0.000000       0.000000
      0.031466      -0.000033       0.000000
      0.035187      -0.000034       0.000000
      0.034596      -0.000005       0.000000
      0.030878      -0.000005       0.000000
      0.035187      -0.000034       0.000000
      0.038659      -0.000029       0.000000
      0.038059      -0.000001       0.000000
      0.034596      -0.000005       0.000000
      0.030878      -0.000005       0.000000
      0.034596      -0.000005       0.000000
      0.034396       0.000000       0.000000
      0.030679       0.000000       0.000000
      0.034596      -0.000005       0.000000
      0.038059      -0.000001       0.000000
      0.037856       0.000000       0.000000
      0.034396       0.000000       0.000000
      0.038659      -0.000029       0.000000
      0.041916      -0.000005       0.000000
      0.041299       0.000018       0.000000
      0.038059      -0.000001       0.000000
      0.041916      -0.000005       0.000000
      0.044969       0.000068       0.000000
      0.044344       0.000072       0.000000
      0.041299       0.000018       0.000000
      0.038059      -0.000001       0.000000
      0.041299       0.000018       0.000000
      0.041096       0.000000       0.000000
      0.037856       0.000000       0.000000
      0.041299       0.000018       0.000000
      0.044344       0.000072       0.000000
      0.044157       0.000000       0.000000
      0.041096       0.000000       0.000000
      0.044969       0.000068       0.000000
      0.047770       0.000226       0.000000
      0.047225       0.000177       0.000000
      0.044344       0.000072       0.000000
      0.047770       0.000226       0.000000
      0.050000       0.000454       0.000000
      0.050000       0.000261       0.000000
      0.047225       0.000177       0.000000
      0.044344       0.000072       0.000000
      0.047225       0.000177       0.000000
      0.047102       0.000000       0.000000
      0.044157       0.000000       0.000000
      0.047225       0.000177       0.000000
      0.050000       0.000261       0.000000
      0.050000       0.000000       0.000000
      0.047102       0.000000       0.000000
      0.013058      -0.000038       0.000000
      0.015760      -0.000034       0.000000
      0.015415      -0.000015       0.000000
      0.012712      -0.000019       0.000000
      0.015760      -0.000034       0.000000
      0.018324      -0.000033       0.000000
      0.017981      -0.000014       0.000000
      0.015415      -0.000015       0.000000
      0.012712      -0.000019       0.000000
      0.015415      -0.000015       0.000000
      0.015167      -0.000005       0.000000
      0.012462      -0.000009       0.000000
      0.015415      -0.000015       0.000000
      0.017981      -0.000014       0.000000
      0.017733      -0.000004       0.000000
      0.015167      -0.000005       0.000000
      0.018324      -0.000033       0.000000
      0.020765      -0.000032       0.000000
      0.020423      -0.000014       0.000000
      0.017981      -0.000014       0.000000
      0.020765      -0.000032       0.000000
      0.023094      -0.000032       0.000000
      0.022752      -0.000014       0.000000
      0.020423      -0.000014       0.000000
      0.017981      -0.000014       0.000000
      0.020423      -0.000014       0.000000
      0.020176      -0.000004       0.000000
      0.017733      -0.000004       0.000000
      0.020423      -0.000014       0.000000
      0.022752      -0.000014       0.000000
      0.022505      -0.000004       0.000000
      0.020176      -0.000004       0.000000
      0.012462      -0.000009       0.000000
      0.015167      -0.000005       0.000000
      0.015017      -0.000001       0.000000
      0.012312      -0.000003       0.000000
      0.015167      -0.000005       0.000000
      0.017733      -0.000004       0.000000
      0.017584      -0.000000       0.000000
      0.015017      -0.000001       0.000000
      0.012312      -0.000003       0.000000
      0.015017      -0.000001       0.000000
      0.014967       0.000000       0.000000
      0.012262       0.000000       0.000000
      0.015017      -0.000001       0.000000
      0.017584      -0.000000       0.000000
      0.017534       0.000000       0.000000
      0.014967       0.000000       0.000000
      0.017733      -0.000004       0.000000
      0.020176      -0.000004       0.000000
      0.020026      -0.000000       0.000000
      0.017584      -0.000000       0.000000
      0.020176      -0.000004       0.000000
      0.022505      -0.000004       0.000000
      0.022356      -0.000000       0.000000
      0.020026      -0.000000       0.000000
      0.017584      -0.000000       0.000000
      0.020026      -0.000000       0.000000
      0.019976       0.000000       0.000000
      0.017534       0.000000       0.000000
      0.020026      -0.000000       0.000000
      0.022356      -0.000000       0.000000
      0.022306       0.000000       0.000000
      0.019976       0.000000       0.000000
      0.000000       0.000000       0.000000
      0.002053      -0.000117       0.000000
      0.001891      -0.000108       0.000000
      0.000000       0.000000       0.000000
      0.002053      -0.000117       0.000000
      0.003862      -0.000118       0.000000
      0.003675      -0.000108       0.000000
      0.001891      -0.000108       0.000000
      0.000000       0.000000       0.000000
      0.001891      -0.000108       0.000000
      0.001793      -0.000097       0.000000
      0.000000       0.000000       0.000000
      0.001891      -0.000108       0.000000
      0.003675      -0.000108       0.000000
      0.003535      -0.000099       0.000000
      0.001793      -0.000097       0.000000
      0.003862      -0.000118       0.000000
      0.005553      -0.000098       0.000000
      0.005361      -0.000088       0.000000
      0.003675      -0.000108       0.000000
      0.005553      -0.000098       0.000000
      0.007162      -0.000077       0.000000
      0.006971      -0.000067       0.000000
      0.005361      -0.000088       0.000000
      0.003675      -0.000108       0.000000
      0.005361      -0.000088       0.000000
      0.005205      -0.000079       0.000000
      0.003535      -0.000099       0.000000
      0.005361      -0.000088       0.000000
      0.006971      -0.000067       0.000000
      0.006809      -0.000058       0.000000
      0.005205      -0.000079       0.000000
      0.000000       0.000000       0.000000
      0.001793      -0.000097       0.000000
      0.001733      -0.000082       0.000000
      0.000000       0.000000       0.000000
      0.001793      -0.000097       0.000000
      0.003535      -0.000099       0.000000
      0.003433      -0.000087       0.000000
      0.001733      -0.000082       0.000000
      0.000000       0.000000       0.000000
      0.001733      -0.000082       0.000000
      0.001694      -0.000065       0.000000
      0.000000       0.000000       0.000000
      0.001733      -0.000082       0.000000
      0.003433      -0.000087       0.000000
      0.003361      -0.000073       0.000000
      0.001694      -0.000065       0.000000
      0.003535      -0.000099       0.000000
      0.005205      -0.000079       0.000000
      0.005083      -0.000070       0.000000
      0.003433      -0.000087       0.000000
      0.005205      -0.000079       0.000000
      0.006809      -0.000058       0.000000
      0.006677      -0.000051       0.000000
      0.005083      -0.000070       0.000000
      0.003433      -0.000087       0.000000
      0.005083      -0.000070       0.000000
      0.004990      -0.000059       0.000000
      0.003361      -0.000073       0.000000
      0.005083      -0.000070       0.000000
      0.006677      -0.000051       0.000000
      0.006574      -0.000042       0.000000
      0.004990      -0.000059       0.000000
      0.007162      -0.000077       0.000000
      0.008709      -0.000061       0.000000
      0.008519      -0.000050       0.000000
      0.006971      -0.000067       0.000000
      0.008709      -0.000061       0.000000
      0.010203      -0.000050       0.000000
      0.010015      -0.000039       0.000000
      0.008519      -0.000050       0.000000
      0.006971      -0.000067       0.000000
      0.008519      -0.000050       0.000000
      0.008356      -0.000042       0.000000
      0.006809      -0.000058       0.000000
      0.008519      -0.000050       0.000000
      0.010015      -0.000039       0.000000
      0.009852      -0.000031       0.000000
      0.008356      -0.000042       0.000000
      0.010203      -0.000050       0.000000
      0.011651      -0.000042       0.000000
      0.011465      -0.000032       0.000000
      0.010015      -0.000039       0.000000
      0.011651      -0.000042       0.000000
      0.013058      -0.000038       0.000000
      0.012873      -0.000027       0.000000
      0.011465      -0.000032       0.000000
      0.010015      -0.000039       0.000000
      0.011465      -0.000032       0.000000
      0.011303      -0.000024       0.000000
      0.009852      -0.000031       0.000000
      0.011465      -0.000032       0.000000
      0.012873      -0.000027       0.000000
      0.012712      -0.000019       0.000000
      0.011303      -0.000024       0.000000
      0.006809      -0.000058       0.000000
      0.008356      -0.000042       0.000000
      0.008220      -0.000035       0.000000
      0.006677      -0.000051       0.000000
      0.008356      -0.000042       0.000000
      0.009852      -0.000031       0.000000
      0.009715      -0.000024       0.000000
      0.008220      -0.000035       0.000000
      0.006677      -0.000051       0.000000
      0.008220      -0.000035       0.000000
      0.008111      -0.000029       0.000000
      0.006574      -0.000042       0.000000
      0.008220      -0.000035       0.000000
      0.009715      -0.000024       0.000000
      0.009604      -0.000019       0.000000
      0.008111      -0.000029       0.000000
      0.009852      -0.000031       0.000000
      0.011303      -0.000024       0.000000
      0.011166      -0.000017       0.000000
      0.009715      -0.000024       0.000000
      0.011303      -0.000024       0.000000
      0.012712      -0.000019       0.000000
      0.012575      -0.000013       0.000000
      0.011166      -0.000017       0.000000
      0.009715      -0.000024       0.000000
      0.011166      -0.000017       0.000000
      0.011053      -0.000012       0.000000
      0.009604      -0.000019       0.000000
      0.011166      -0.000017       0.000000
      0.012575      -0.000013       0.000000
      0.012462      -0.000009       0.000000
      0.011053      -0.000012       0.000000
      0.000000       0.000000       0.000000
      0.001694      -0.000065       0.000000
      0.001668      -0.000049       0.000000
      0.000000       0.000000       0.000000
      0.001694      -0.000065       0.000000
      0.003361      -0.000073       0.000000
      0.003310      -0.000057       0.000000
      0.001668      -0.000049       0.000000
      0.000000       0.000000       0.000000
      0.001668      -0.000049       0.000000
      0.001651      -0.000032       0.000000
      0.000000       0.000000       0.000000
      0.001668      -0.000049       0.000000
      0.003310      -0.000057       0.000000
      0.003277      -0.000039       0.000000
      0.001651      -0.000032       0.000000
      0.003361      -0.000073       0.000000
      0.004990      -0.000059       0.000000
      0.004922      -0.000047       0.000000
      0.003310      -0.000057       0.000000
      0.004990      -0.000059       0.000000
      0.006574      -0.000042       0.000000
      0.006496      -0.000033       0.000000
      0.004922      -0.000047       0.000000
      0.003310      -0.000057       0.000000
      0.004922      -0.000047       0.000000
      0.004876      -0.000032       0.000000
      0.003277      -0.000039       0.000000
      0.004922      -0.000047       0.000000
      0.006496      -0.000033       0.000000
      0.006442      -0.000023       0.000000
      0.004876      -0.000032       0.000000
      0.000000       0.000000       0.000000
      0.001651      -0.000032       0.000000
      0.001641      -0.000016       0.000000
      0.000000       0.000000       0.000000
      0.001651      -0.000032       0.000000
      0.003277      -0.000039       0.000000
      0.003258      -0.000020       0.000000
      0.001641      -0.000016       0.000000
      0.000000       0.000000       0.000000
      0.001641      -0.000016       0.000000
      0.001638       0.000000       0.000000
      0.000000       0.000000       0.000000
      0.001641      -0.000016       0.000000
      0.003258      -0.000020       0.000000
      0.003252       0.000000       0.000000
      0.001638       0.000000       0.000000
      0.003277      -0.000039       0.000000
      0.004876      -0.000032       0.000000
      0.004850      -0.000016       0.000000
      0.003258      -0.000020       0.000000
      0.004876      -0.000032       0.000000
      0.006442      -0.000023       0.000000
      0.006410      -0.000012       0.000000
      0.004850      -0.000016       0.000000
      0.003258      -0.000020       0.000000
      0.004850      -0.000016       0.000000
      0.004841       0.000000       0.000000
      0.003252       0.000000       0.000000
      0.004850      -0.000016       0.000000
      0.006410      -0.000012       0.000000
      0.006399       0.000000       0.000000
      0.004841       0.000000       0.000000
      0.006574      -0.000042       0.000000
      0.008111      -0.000029       0.000000
      0.008028      -0.000022       0.000000
      0.006496      -0.000033       0.000000
      0.008111      -0.000029       0.000000
      0.009604      -0.000019       0.000000
      0.009518      -0.000014       0.000000
      0.008028      -0.000022       0.000000
      0.006496      -0.000033       0.000000
      0.008028      -0.000022       0.000000
      0.007969      -0.000015       0.000000
      0.006442      -0.000023       0.000000
      0.008028      -0.000022       0.000000
      0.009518      -0.000014       0.000000
      0.009457      -0.000009       0.000000
      0.007969      -0.000015       0.000000
      0.009604      -0.000019       0.000000
      0.011053      -0.000012       0.000000
      0.010966      -0.000009       0.000000
      0.009518      -0.000014       0.000000
      0.011053      -0.000012       0.000000
      0.012462      -0.000009       0.000000
      0.012375      -0.000005       0.000000
      0.010966      -0.000009       0.000000
      0.009518      -0.000014       0.000000
      0.010966      -0.000009       0.000000
      0.010904      -0.000005       0.000000
      0.009457      -0.000009       0.000000
      0.010966      -0.000009       0.000000
      0.012375      -0.000005       0.000000
      0.012312      -0.000003       0.000000
      0.010904      -0.000005       0.000000
      0.006442      -0.000023       0.000000
      0.007969      -0.000015       0.000000
      0.007934      -0.000008       0.000000
      0.006410      -0.000012       0.000000
      0.007969      -0.000015       0.000000
      0.009457      -0.000009       0.000000
      0.009420      -0.000005       0.000000
      0.007934      -0.000008       0.000000
      0.006410      -0.000012       0.000000
      0.007934      -0.000008       0.000000
      0.007923       0.000000       0.000000
      0.006399       0.000000       0.000000
      0.007934      -0.000008       0.000000
      0.009420      -0.000005       0.000000
      0.009408       0.000000       0.000000
      0.007923       0.000000       0.000000
      0.009457      -0.000009       0.000000
      0.010904      -0.000005       0.000000
      0.010867      -0.000003       0.000000
      0.009420      -0.000005       0.000000
      0.010904      -0.000005       0.000000
      0.012312      -0.000003       0.000000
      0.012275      -0.000001       0.000000
      0.010867      -0.000003       0.000000
      0.009420      -0.000005       0.000000
      0.010867      -0.000003       0.000000
      0.010854       0.000000       0.000000
      0.009408       0.000000       0.000000
      0.010867      -0.000003       0.000000
      0.012275      -0.000001       0.000000
      0.012262       0.000000       0.000000
      0.010854       0.000000       0.000000
      0.022306       0.000000       0.000000
      0.026666       0.000000       0.000000
      0.026865       0.000004       0.000000
      0.022505       0.000004       0.000000
      0.026666       0.000000       0.000000
      0.030679       0.000000       0.000000
      0.030878       0.000005       0.000000
      0.026865       0.000004       0.000000
      0.022505       0.000004       0.000000
      0.026865       0.000004       0.000000
      0.027453       0.000033       0.000000
      0.023094       0.000032       0.000000
      0.026865       0.000004       0.000000
      0.030878       0.000005       0.000000
      0.031466       0.000033       0.000000
      0.027453       0.000033       0.000000
      0.030679       0.000000       0.000000
      0.034396       0.000000       0.000000
      0.034596       0.000005       0.000000
      0.030878       0.000005       0.000000
      0.034396       0.000000       0.000000
      0.037856       0.000000       0.000000
      0.038059       0.000001       0.000000
      0.034596       0.000005       0.000000
      0.030878       0.000005       0.000000
      0.034596       0.000005       0.000000
      0.035187       0.000034       0.000000
      0.031466       0.000033       0.000000
      0.034596       0.000005       0.000000
      0.038059       0.000001       0.000000
      0.038659       0.000029       0.000000
      0.035187       0.000034       0.000000
      0.037856       0.000000       0.000000
      0.041096       0.000000       0.000000
      0.041299      -0.000018       0.000000
      0.038059       0.000001       0.000000
      0.041096       0.000000       0.000000
      0.044157       0.000000       0.000000
      0.044344      -0.000072       0.000000
      0.041299      -0.000018       0.000000
      0.038059       0.000001       0.000000
      0.041299      -0.000018       0.000000
      0.041916       0.000005       0.000000
      0.038659       0.000029       0.000000
      0.041299      -0.000018       0.000000
      0.044344      -0.000072       0.000000
      0.044969      -0.000068       0.000000
      0.041916       0.000005       0.000000
      0.044157       0.000000       0.000000
      0.047102       0.000000       0.000000
      0.047225      -0.000177       0.000000
      0.044344      -0.000072       0.000000
      0.047102       0.000000       0.000000
      0.050000       0.000000       0.000000
      0.050000      -0.000261       0.000000
      0.047225      -0.000177       0.000000
      0.044344      -0.000072       0.000000
      0.047225      -0.000177       0.000000
      0.047770      -0.000226       0.000000