# vtk DataFile Version 2.0
time_10.vtk
ASCII
DATASET UNSTRUCTURED_GRID
POINTS   768 float
      1.666667      -0.583333       0.000000
      2.083333      -0.635417       0.000000
      2.083333      -0.317708       0.000000
      1.666667      -0.291667       0.000000
      2.083333      -0.635417       0.000000
      2.500000      -0.687500       0.000000
      2.500000      -0.343750       0.000000
      2.083333      -0.317708       0.000000
      1.666667      -0.291667       0.000000
      2.083333      -0.317708       0.000000
      2.083333       0.000000       0.000000
      1.666667       0.000000       0.000000
      2.083333      -0.317708       0.000000
      2.500000      -0.343750       0.000000
      2.500000       0.000000       0.000000
      2.083333       0.000000       0.000000
      2.500000      -0.687500       0.000000
      2.916667      -0.739583       0.000000
      2.916667      -0.369792       0.000000
      2.500000      -0.343750       0.000000
      2.916667      -0.739583       0.000000
      3.333333      -0.791667       0.000000
      3.333333      -0.395833       0.000000
      2.916667      -0.369792       0.000000
      2.500000      -0.343750       0.000000
      2.916667      -0.369792       0.000000
      2.916667       0.000000       0.000000
      2.500000       0.000000       0.000000
      2.916667      -0.369792       0.000000
      3.333333      -0.395833       0.000000
      3.333333       0.000000       0.000000
      2.916667       0.000000       0.000000
      3.333333      -0.791667       0.000000
      3.750000      -0.843750       0.000000
      3.750000      -0.421875       0.000000
      3.333333      -0.395833       0.000000
      3.750000      -0.843750       0.000000
      4.166667      -0.895833       0.000000
      4.166667      -0.447917       0.000000
      3.750000      -0.421875       0.000000
      3.333333      -0.395833       0.000000
      3.750000      -0.421875       0.000000
      3.750000       0.000000       0.000000
      3.333333       0.000000       0.000000
      3.750000      -0.421875       0.000000
      4.166667      -0.447917       0.000000
      4.166667       0.000000       0.000000
      3.750000       0.000000       0.000000
      4.166667      -0.895833       0.000000
      4.583333      -0.947917       0.000000
      4.583333      -0.473958       0.000000
      4.166667      -0.447917       0.000000
      4.583333      -0.947917       0.000000
      5.000000      -1.000000       0.000000
      5.000000      -0.500000       0.000000
      4.583333      -0.473958       0.000000
      4.166667      -0.447917       0.000000
      4.583333      -0.473958       0.000000
      4.583333       0.000000       0.000000
      4.166667       0.000000       0.000000
      4.583333      -0.473958       0.000000
      5.000000      -0.500000       0.000000
      5.000000       0.000000       0.000000
      4.583333       0.000000       0.000000
      0.833333      -0.479167       0.000000
      1.041667      -0.505208       0.000000
      1.041667      -0.378906       0.000000
      0.833333      -0.359375       0.000000
      1.041667      -0.505208       0.000000
      1.250000      -0.531250       0.000000
      1.250000      -0.398437       0.000000
      1.041667      -0.378906       0.000000
      0.833333      -0.359375       0.000000
      1.041667      -0.378906       0.000000
      1.041667      -0.252604       0.000000
      0.833333      -0.239583       0.000000
      1.041667      -0.378906       0.000000
      1.250000      -0.398437       0.000000
      1.250000      -0.265625       0.000000
      1.041667      -0.252604       0.000000
      1.250000      -0.531250       0.000000
      1.458333      -0.557292       0.000000
      1.458333      -0.417969       0.000000
      1.250000      -0.398437       0.000000
      1.458333      -0.557292       0.000000
      1.666667      -0.583333       0.000000
      1.666667      -0.437500       0.000000
      1.458333      -0.417969       0.000000
      1.250000      -0.398437       0.000000
      1.458333      -0.417969       0.000000
      1.458333      -0.278646       0.000000
      1.250000      -0.265625       0.000000
      1.458333      -0.417969       0.000000
      1.666667      -0.437500       0.000000
      1.666667      -0.291667       0.000000
      1.458333      -0.278646       0.000000
      0.833333      -0.239583       0.000000
      1.041667      -0.252604       0.000000
      1.041667      -0.126302       0.000000
      0.833333      -0.119792       0.000000
      1.041667      -0.252604       0.000000
      1.250000      -0.265625       0.000000
      1.250000      -0.132812       0.000000
      1.041667      -0.126302       0.000000
      0.833333      -0.119792       0.000000
      1.041667      -0.126302       0.000000
      1.041667       0.000000       0.000000
      0.833333       0.000000       0.000000
      1.041667      -0.126302       0.000000
      1.250000      -0.132812       0.000000
      1.250000       0.000000       0.000000
      1.041667       0.000000       0.000000
      1.250000      -0.265625       0.000000
      1.458333      -0.278646       0.000000
      1.458333      -0.139323       0.000000
      1.250000      -0.132812       0.000000
      1.458333      -0.278646       0.000000
      1.666667      -0.291667       0.000000
      1.666667      -0.145833       0.000000
      1.458333      -0.139323       0.000000
      1.250000      -0.132812       0.000000
      1.458333      -0.139323       0.000000
      1.458333       0.000000       0.000000
      1.250000       0.000000       0.000000
      1.458333      -0.139323       0.000000
      1.666667      -0.145833       0.000000
      1.666667       0.000000       0.000000
      1.458333       0.000000       0.000000
      0.000000      -0.375000       0.000000
      0.104167      -0.388021       0.000000
      0.104167      -0.339518       0.000000
      0.000000      -0.328125       0.000000
      0.104167      -0.388021       0.000000
      0.208333      -0.401042       0.000000
      0.208333      -0.350911       0.000000
      0.104167      -0.339518       0.000000
      0.000000      -0.328125       0.000000
      0.104167      -0.339518       0.000000
      0.104167      -0.291016       0.000000
      0.000000      -0.281250       0.000000
      0.104167      -0.339518       0.000000
      0.208333      -0.350911       0.000000
      0.208333      -0.300781       0.000000
      0.104167      -0.291016       0.000000
      0.208333      -0.401042       0.000000
      0.312500      -0.414062       0.000000
      0.312500      -0.362305       0.000000
      0.208333      -0.350911       0.000000
      0.312500      -0.414062       0.000000
      0.416667      -0.427083       0.000000
      0.416667      -0.373698       0.000000
      0.312500      -0.362305       0.000000
      0.208333      -0.350911       0.000000
      0.312500      -0.362305       0.000000
      0.312500      -0.310547       0.000000
      0.208333      -0.300781       0.000000
      0.312500      -0.362305       0.000000
      0.416667      -0.373698       0.000000
      0.416667      -0.320312       0.000000
      0.312500      -0.310547       0.000000
      0.000000      -0.281250       0.000000
      0.104167      -0.291016       0.000000
      0.104167      -0.242513       0.000000
      0.000000      -0.234375       0.000000
      0.104167      -0.291016       0.000000
      0.208333      -0.300781       0.000000
      0.208333      -0.250651       0.000000
      0.104167      -0.242513       0.000000
      0.000000      -0.234375       0.000000
      0.104167      -0.242513       0.000000
      0.104167      -0.194010       0.000000
      0.000000      -0.187500       0.000000
      0.104167      -0.242513       0.000000
      0.208333      -0.250651       0.000000
      0.208333      -0.200521       0.000000
      0.104167      -0.194010       0.000000
      0.208333      -0.300781       0.000000
      0.312500      -0.310547       0.000000
      0.312500      -0.258789       0.000000
      0.208333      -0.250651       0.000000
      0.312500      -0.310547       0.000000
      0.416667      -0.320312       0.000000
      0.416667      -0.266927       0.000000
      0.312500      -0.258789       0.000000
      0.208333      -0.250651       0.000000
      0.312500      -0.258789       0.000000
      0.312500      -0.207031       0.000000
      0.208333      -0.200521       0.000000
      0.312500      -0.258789       0.000000
      0.416667      -0.266927       0.000000
      0.416667      -0.213542       0.000000
      0.312500      -0.207031       0.000000
      0.416667      -0.427083       0.000000
      0.520833      -0.440104       0.000000
      0.520833      -0.385091       0.000000
      0.416667      -0.373698       0.000000
      0.520833      -0.440104       0.000000
      0.625000      -0.453125       0.000000
      0.625000      -0.396484       0.000000
      0.520833      -0.385091       0.000000
      0.416667      -0.373698       0.000000
      0.520833      -0.385091       0.000000
      0.520833      -0.330078       0.000000
      0.416667      -0.320312       0.000000
      0.520833      -0.385091       0.000000
      0.625000      -0.396484       0.000000
      0.625000      -0.339844       0.000000
      0.520833      -0.330078       0.000000
      0.625000      -0.453125       0.000000
      0.729167      -0.466146       0.000000
      0.729167      -0.407878       0.000000
      0.625000      -0.396484       0.000000
      0.729167      -0.466146       0.000000
      0.833333      -0.479167       0.000000
      0.833333      -0.419271       0.000000
      0.729167      -0.407878       0.000000
      0.625000      -0.396484       0.000000
      0.729167      -0.407878       0.000000
      0.729167      -0.349609       0.000000
      0.625000      -0.339844       0.000000
[...]
POINT_DATA   768
VECTORS U float 
      0.070794      -0.000097       0.000000
      0.083778      -0.000097       0.000000
      0.082030      -0.000013       0.000000
      0.069032      -0.000012       0.000000
      0.083778      -0.000097       0.000000
      0.095666      -0.000099       0.000000
      0.093926      -0.000014       0.000000
      0.082030      -0.000013       0.000000
      0.069032      -0.000012       0.000000
      0.082030      -0.000013       0.000000
      0.081440       0.000000       0.000000
      0.068437       0.000000       0.000000
      0.082030      -0.000013       0.000000
      0.093926      -0.000014       0.000000
      0.093338       0.000000       0.000000
      0.081440       0.000000       0.000000
      0.095666      -0.000099       0.000000
      0.106638      -0.000100       0.000000
      0.104897      -0.000015       0.000000
      0.093926      -0.000014       0.000000
      0.106638      -0.000100       0.000000
      0.116841      -0.000086       0.000000
      0.115080      -0.000004       0.000000
      0.104897      -0.000015       0.000000
      0.093926      -0.000014       0.000000
      0.104897      -0.000015       0.000000
      0.104308       0.000000       0.000000
      0.093338       0.000000       0.000000
      0.104897      -0.000015       0.000000
      0.115080      -0.000004       0.000000
      0.114484       0.000000       0.000000
      0.104308       0.000000       0.000000
      0.116841      -0.000086       0.000000
      0.126388      -0.000015       0.000000
      0.124581       0.000051       0.000000
      0.115080      -0.000004       0.000000
      0.126388      -0.000015       0.000000
      0.135320       0.000199       0.000000
      0.133490       0.000211       0.000000
      0.124581       0.000051       0.000000
      0.115080      -0.000004       0.000000
      0.124581       0.000051       0.000000
      0.123984       0.000000       0.000000
      0.114484       0.000000       0.000000
      0.124581       0.000051       0.000000
      0.133490       0.000211       0.000000
      0.132941       0.000000       0.000000
      0.123984       0.000000       0.000000
      0.135320       0.000199       0.000000
      0.143499       0.000663       0.000000
      0.141903       0.000518       0.000000
      0.133490       0.000211       0.000000
      0.143499       0.000663       0.000000
      0.150000       0.001329       0.000000
      0.150000       0.000764       0.000000
      0.141903       0.000518       0.000000
      0.133490       0.000211       0.000000
      0.141903       0.000518       0.000000
      0.141540       0.000000       0.000000
      0.132941       0.000000       0.000000
      0.141903       0.000518       0.000000
      0.150000       0.000764       0.000000
      0.150000       0.000000       0.000000
      0.141540       0.000000       0.000000
      0.040508      -0.000115       0.000000
      0.048724      -0.000102       0.000000
      0.047679      -0.000045       0.000000
      0.039450      -0.000057       0.000000
      0.048724      -0.000102       0.000000
      0.056477      -0.000098       0.000000
      0.055442      -0.000041       0.000000
      0.047679      -0.000045       0.000000
      0.039450      -0.000057       0.000000
      0.047679      -0.000045       0.000000
      0.046924      -0.000015       0.000000
      0.038686      -0.000026       0.000000
      0.047679      -0.000045       0.000000
      0.055442      -0.000041       0.000000
      0.054694      -0.000012       0.000000
      0.046924      -0.000015       0.000000
      0.056477      -0.000098       0.000000
      0.063820      -0.000097       0.000000
      0.062791      -0.000041       0.000000
      0.055442      -0.000041       0.000000
      0.063820      -0.000097       0.000000
      0.070794      -0.000097       0.000000
      0.069771      -0.000041       0.000000
      0.062791      -0.000041       0.000000
      0.055442      -0.000041       0.000000
      0.062791      -0.000041       0.000000
      0.062049      -0.000012       0.000000
      0.054694      -0.000012       0.000000
      0.062791      -0.000041       0.000000
      0.069771      -0.000041       0.000000
      0.069032      -0.000012       0.000000
      0.062049      -0.000012       0.000000
      0.038686      -0.000026       0.000000
      0.046924      -0.000015       0.000000
      0.046468      -0.000003       0.000000
      0.038226      -0.000009       0.000000
      0.046924      -0.000015       0.000000
      0.054694      -0.000012       0.000000
      0.054242      -0.000001       0.000000
      0.046468      -0.000003       0.000000
      0.038226      -0.000009       0.000000
      0.046468      -0.000003       0.000000
      0.046315       0.000000       0.000000
      0.038073       0.000000       0.000000
      0.046468      -0.000003       0.000000
      0.054242      -0.000001       0.000000
      0.054091       0.000000       0.000000
      0.046315       0.000000       0.000000
      0.054694      -0.000012       0.000000
      0.062049      -0.000012       0.000000
      0.061600      -0.000001       0.000000
      0.054242      -0.000001       0.000000
      0.062049      -0.000012       0.000000
      0.069032      -0.000012       0.000000
      0.068587      -0.000001       0.000000
      0.061600      -0.000001       0.000000
      0.054242      -0.000001       0.000000
      0.061600      -0.000001       0.000000
      0.061450       0.000000       0.000000
      0.054091       0.000000       0.000000
      0.061600      -0.000001       0.000000
      0.068587      -0.000001       0.000000
      0.068437       0.000000       0.000000
      0.061450       0.000000       0.000000
      0.000000       0.000000       0.000000
      0.006444      -0.000369       0.000000
      0.005936      -0.000341       0.000000
      0.000000       0.000000       0.000000
      0.006444      -0.000369       0.000000
      0.012109      -0.000369       0.000000
      0.011524      -0.000338       0.000000
      0.005936      -0.000341       0.000000
      0.000000       0.000000       0.000000
      0.005936      -0.000341       0.000000
      0.005629      -0.000304       0.000000
      0.000000       0.000000       0.000000
      0.005936      -0.000341       0.000000
      0.011524      -0.000338       0.000000
      0.011084      -0.000309       0.000000
      0.005629      -0.000304       0.000000
      0.012109      -0.000369       0.000000
      0.017382      -0.000306       0.000000
      0.016783      -0.000273       0.000000
      0.011524      -0.000338       0.000000
      0.017382      -0.000306       0.000000
      0.022380      -0.000240       0.000000
      0.021785      -0.000207       0.000000
      0.016783      -0.000273       0.000000
      0.011524      -0.000338       0.000000
      0.016783      -0.000273       0.000000
      0.016296      -0.000246       0.000000
      0.011084      -0.000309       0.000000
      0.016783      -0.000273       0.000000
      0.021785      -0.000207       0.000000
      0.021283      -0.000181       0.000000
      0.016296      -0.000246       0.000000
      0.000000       0.000000       0.000000
      0.005629      -0.000304       0.000000
      0.005439      -0.000257       0.000000
      0.000000       0.000000       0.000000
      0.005629      -0.000304       0.000000
      0.011084      -0.000309       0.000000
      0.010764      -0.000274       0.000000
      0.005439      -0.000257       0.000000
      0.000000       0.000000       0.000000
      0.005439      -0.000257       0.000000
      0.005315      -0.000205       0.000000
      0.000000       0.000000       0.000000
      0.005439      -0.000257       0.000000
      0.010764      -0.000274       0.000000
      0.010535      -0.000230       0.000000
      0.005315      -0.000205       0.000000
      0.011084      -0.000309       0.000000
      0.016296      -0.000246       0.000000
      0.015913      -0.000218       0.000000
      0.010764      -0.000274       0.000000
      0.016296      -0.000246       0.000000
      0.021283      -0.000181       0.000000
      0.020873      -0.000157       0.000000
      0.015913      -0.000218       0.000000
      0.010764      -0.000274       0.000000
      0.015913      -0.000218       0.000000
      0.015621      -0.000185       0.000000
      0.010535      -0.000230       0.000000
      0.015913      -0.000218       0.000000
      0.020873      -0.000157       0.000000
      0.020548      -0.000131       0.000000
      0.015621      -0.000185       0.000000
      0.022380      -0.000240       0.000000
      0.027162      -0.000188       0.000000
      0.026576      -0.000155       0.000000
      0.021785      -0.000207       0.000000
      0.027162      -0.000188       0.000000
      0.031764      -0.000152       0.000000
      0.031186      -0.000120       0.000000
      0.026576      -0.000155       0.000000
      0.021785      -0.000207       0.000000
      0.026576      -0.000155       0.000000
      0.026072      -0.000130       0.000000
      0.021283      -0.000181       0.000000
      0.026576      -0.000155       0.000000
      0.031186      -0.000120       0.000000
      0.030685      -0.000094       0.000000
      0.026072      -0.000130       0.000000
      0.031764      -0.000152       0.000000
      0.036208      -0.000129       0.000000
      0.035637      -0.000097       0.000000
      0.031186      -0.000120       0.000000
      0.036208      -0.000129       0.000000
      0.040508      -0.000115       0.000000
      0.039943      -0.000082       0.000000
      0.035637      -0.000097       0.000000
      0.031186      -0.000120       0.000000
      0.035637      -0.000097       0.000000
      0.035140      -0.000071       0.000000
      0.030685      -0.000094       0.000000
      0.035637      -0.000097       0.000000
      0.039943      -0.000082       0.000000
      0.039450      -0.000057       0.000000
      0.035140      -0.000071       0.000000
      0.021283      -0.000181       0.000000
      0.026072      -0.000130       0.000000
      0.025651      -0.000108       0.000000
      0.020873      -0.000157       0.000000
      0.026072      -0.000130       0.000000
      0.030685      -0.000094       0.000000
      0.030262      -0.000074       0.000000
      0.025651      -0.000108       0.000000
      0.020873      -0.000157       0.000000
      0.025651      -0.000108       0.000000
      0.025312      -0.000088       0.000000
      0.020548      -0.000131       0.000000
      0.025651      -0.000108       0.000000
      0.030262      -0.000074       0.000000
      0.029917      -0.000057       0.000000
      0.025312      -0.000088       0.000000
      0.030685      -0.000094       0.000000
      0.035140      -0.000071       0.000000
      0.034718      -0.000052       0.000000
      0.030262      -0.000074       0.000000
      0.035140      -0.000071       0.000000
      0.039450      -0.000057       0.000000
      0.039030      -0.000039       0.000000
      0.034718      -0.000052       0.000000
      0.030262      -0.000074       0.000000
      0.034718      -0.000052       0.000000
      0.034372      -0.000038       0.000000
      0.029917      -0.000057       0.000000
      0.034718      -0.000052       0.000000
      0.039030      -0.000039       0.000000
      0.038686      -0.000026       0.000000
      0.034372      -0.000038       0.000000
      0.000000       0.000000       0.000000
      0.005315      -0.000205       0.000000
      0.005232      -0.000153       0.000000
      0.000000       0.000000       0.000000
      0.005315      -0.000205       0.000000
      0.010535      -0.000230       0.000000
      0.010376      -0.000178       0.000000
      0.005232      -0.000153       0.000000
      0.000000       0.000000       0.000000
      0.005232      -0.000153       0.000000
      0.005178      -0.000101       0.000000
      0.000000       0.000000       0.000000
      0.005232      -0.000153       0.000000
      0.010376      -0.000178       0.000000
      0.010271      -0.000122       0.000000
      0.005178      -0.000101       0.000000
      0.010535      -0.000230       0.000000
      0.015621      -0.000185       0.000000
      0.015409      -0.000146       0.000000
      0.010376      -0.000178       0.000000
      0.015621      -0.000185       0.000000
      0.020548      -0.000131       0.000000
      0.020305      -0.000103       0.000000
      0.015409      -0.000146       0.000000
      0.010376      -0.000178       0.000000
      0.015409      -0.000146       0.000000
      0.015265      -0.000101       0.000000
      0.010271      -0.000122       0.000000
      0.015409      -0.000146       0.000000
      0.020305      -0.000103       0.000000
      0.020136      -0.000071       0.000000
      0.015265      -0.000101       0.000000
      0.000000       0.000000       0.000000
      0.005178      -0.000101       0.000000
      0.005148      -0.000051       0.000000
      0.000000       0.000000       0.000000
      0.005178      -0.000101       0.000000
      0.010271      -0.000122       0.000000
      0.010212      -0.000062       0.000000
      0.005148      -0.000051       0.000000
      0.000000       0.000000       0.000000
      0.005148      -0.000051       0.000000
      0.005138       0.000000       0.000000
      0.000000       0.000000       0.000000
      0.005148      -0.000051       0.000000
      0.010212      -0.000062       0.000000
      0.010192       0.000000       0.000000
      0.005138       0.000000       0.000000
      0.010271      -0.000122       0.000000
      0.015265      -0.000101       0.000000
      0.015181      -0.000051       0.000000
      0.010212      -0.000062       0.000000
      0.015265      -0.000101       0.000000
      0.020136      -0.000071       0.000000
      0.020036      -0.000036       0.000000
      0.015181      -0.000051       0.000000
      0.010212      -0.000062       0.000000
      0.015181      -0.000051       0.000000
      0.015154       0.000000       0.000000
      0.010192       0.000000       0.000000
      0.015181      -0.000051       0.000000
      0.020036      -0.000036       0.000000
      0.020004       0.000000       0.000000
      0.015154       0.000000       0.000000
      0.020548      -0.000131       0.000000
      0.025312      -0.000088       0.000000
      0.025053      -0.000067       0.000000
      0.020305      -0.000103       0.000000
      0.025312      -0.000088       0.000000
      0.029917      -0.000057       0.000000
      0.029651      -0.000042       0.000000
      0.025053      -0.000067       0.000000
      0.020305      -0.000103       0.000000
      0.025053      -0.000067       0.000000
      0.024870      -0.000046       0.000000
      0.020136      -0.000071       0.000000
      0.025053      -0.000067       0.000000
      0.029651      -0.000042       0.000000
      0.029462      -0.000028       0.000000
      0.024870      -0.000046       0.000000
      0.029917      -0.000057       0.000000
      0.034372      -0.000038       0.000000
      0.034104      -0.000026       0.000000
      0.029651      -0.000042       0.000000
      0.034372      -0.000038       0.000000
      0.038686      -0.000026       0.000000
      0.038418      -0.000016       0.000000
      0.034104      -0.000026       0.000000
      0.029651      -0.000042       0.000000
      0.034104      -0.000026       0.000000
      0.033913      -0.000016       0.000000
      0.029462      -0.000028       0.000000
      0.034104      -0.000026       0.000000
      0.038418      -0.000016       0.000000
      0.038226      -0.000009       0.000000
      0.033913      -0.000016       0.000000
      0.020136      -0.000071       0.000000
      0.024870      -0.000046       0.000000
      0.024762      -0.000023       0.000000
      0.020036      -0.000036       0.000000
      0.024870      -0.000046       0.000000
      0.029462      -0.000028       0.000000
      0.029349      -0.000014       0.000000
      0.024762      -0.000023       0.000000
      0.020036      -0.000036       0.000000
      0.024762      -0.000023       0.000000
      0.024726       0.000000       0.000000
      0.020004       0.000000       0.000000
      0.024762      -0.000023       0.000000
      0.029349      -0.000014       0.000000
      0.029312       0.000000       0.000000
      0.024726       0.000000       0.000000
      0.029462      -0.000028       0.000000
      0.033913      -0.000016       0.000000
      0.033798      -0.000008       0.000000
      0.029349      -0.000014       0.000000
      0.033913      -0.000016       0.000000
      0.038226      -0.000009       0.000000
      0.038111      -0.000004       0.000000
      0.033798      -0.000008       0.000000
      0.029349      -0.000014       0.000000
      0.033798      -0.000008       0.000000
      0.033760       0.000000       0.000000
      0.029312       0.000000       0.000000
      0.033798      -0.000008       0.000000
      0.038111      -0.000004       0.000000
      0.038073       0.000000       0.000000
      0.033760       0.000000       0.000000
      0.068437       0.000000       0.000000
      0.081440       0.000000       0.000000
      0.082030       0.000013       0.000000
      0.069032       0.000012       0.000000
      0.081440       0.000000       0.000000
      0.093338       0.000000       0.000000
      0.093926       0.000014       0.000000
      0.082030       0.000013       0.000000
      0.069032       0.000012       0.000000
      0.082030       0.000013       0.000000
      0.083778       0.000097       0.000000
      0.070794       0.000097       0.000000
      0.082030       0.000013       0.000000
      0.093926       0.000014       0.000000
      0.095666       0.000099       0.000000
      0.083778       0.000097       0.000000
      0.093338       0.000000       0.000000
      0.104308       0.000000       0.000000
      0.104897       0.000015       0.000000
      0.093926       0.000014       0.000000
      0.104308       0.000000       0.000000
      0.114484       0.000000       0.000000
      0.115080       0.000004       0.000000
      0.104897       0.000015       0.000000
      0.093926       0.000014       0.000000
      0.104897       0.000015       0.000000
      0.106638       0.000100       0.000000
      0.095666       0.000099       0.000000
      0.104897       0.000015       0.000000
      0.115080       0.000004       0.000000
      0.116841       0.000086       0.000000
      0.106638       0.000100       0.000000
      0.114484       0.000000       0.000000
      0.123984       0.000000       0.000000
      0.124581      -0.000051       0.000000
      0.115080       0.000004       0.000000
      0.123984       0.000000       0.000000
      0.132941       0.000000       0.000000
      0.133490      -0.000211       0.000000
      0.124581      -0.000051       0.000000
      0.115080       0.000004       0.000000
      0.124581      -0.000051       0.000000
      0.126388       0.000015       0.000000
      0.116841       0.000086       0.000000
      0.124581      -0.000051       0.000000
      0.133490      -0.000211       0.000000
      0.135320      -0.000199       0.000000
      0.126388       0.000015       0.000000
      0.132941       0.000000       0.000000
      0.141540       0.000000       0.000000
      0.141903      -0.000518       0.000000
      0.133490      -0.000211       0.000000
      0.141540       0.000000       0.000000
      0.150000       0.000000       0.000000
      0.150000      -0.000764       0.000000
      0.141903      -0.000518       0.000000
      0.133490      -0.000211       0.000000
      0.141903      -0.000518       0.000000
      0.143499      -0.000663       0.000000