# vtk DataFile Version 2.0
time_10.vtk
ASCII
DATASET UNSTRUCTURED_GRID
POINTS  1536 float
      1.666667      -0.583333       0.000000
      2.083333      -0.635417       0.000000
      2.083333      -0.317708       0.000000
      1.666667      -0.291667       0.000000
      2.083333      -0.635417       0.000000
      2.500000      -0.687500       0.000000
      2.500000      -0.343750       0.000000
      2.083333      -0.317708       0.000000
      1.666667      -0.291667       0.000000
      2.083333      -0.317708       0.000000
      2.083333       0.000000       0.000000
      1.666667       0.000000       0.000000
      2.083333      -0.317708       0.000000
      2.500000      -0.343750       0.000000
      2.500000       0.000000       0.000000
      2.083333       0.000000       0.000000
      2.500000      -0.687500       0.000000
      2.916667      -0.739583       0.000000
      2.916667      -0.369792       0.000000
      2.500000      -0.343750       0.000000
      2.916667      -0.739583       0.000000
      3.333333      -0.791667       0.000000
      3.333333      -0.395833       0.000000
      2.916667      -0.369792       0.000000
      2.500000      -0.343750       0.000000
      2.916667      -0.369792       0.000000
      2.916667       0.000000       0.000000
      2.500000       0.000000       0.000000
      2.916667      -0.369792       0.000000
      3.333333      -0.395833       0.000000
      3.333333       0.000000       0.000000
      2.916667       0.000000       0.000000
      3.333333      -0.791667       0.000000
      3.750000      -0.843750       0.000000
      3.750000      -0.421875       0.000000
      3.333333      -0.395833       0.000000
      3.750000      -0.843750       0.000000
      4.166667      -0.895833       0.000000
      4.166667      -0.447917       0.000000
      3.750000      -0.421875       0.000000
      3.333333      -0.395833       0.000000
      3.750000      -0.421875       0.000000
      3.750000       0.000000       0.000000
      3.333333       0.000000       0.000000
      3.750000      -0.421875       0.000000
      4.166667      -0.447917       0.000000
      4.166667       0.000000       0.000000
      3.750000       0.000000       0.000000
      4.166667      -0.895833       0.000000
      4.583333      -0.947917       0.000000
      4.583333      -0.473958       0.000000
      4.166667      -0.447917       0.000000
      4.583333      -0.947917       0.000000
      5.000000      -1.000000       0.000000
      5.000000      -0.500000       0.000000
      4.583333      -0.473958       0.000000
      4.166667      -0.447917       0.000000
      4.583333      -0.473958       0.000000
      4.583333       0.000000       0.000000
      4.166667       0.000000       0.000000
      4.583333      -0.473958       0.000000
      5.000000      -0.500000       0.000000
      5.000000       0.000000       0.000000
      4.583333       0.000000       0.000000
      0.833333      -0.479167       0.000000
      1.041667      -0.505208       0.000000
      1.041667      -0.378906       0.000000
      0.833333      -0.359375       0.000000
      1.041667      -0.505208       0.000000
      1.250000      -0.531250       0.000000
      1.250000      -0.398437       0.000000
      1.041667      -0.378906       0.000000
      0.833333      -0.359375       0.000000
      1.041667      -0.378906       0.000000
      1.041667      -0.252604       0.000000
      0.833333      -0.239583       0.000000
      1.041667      -0.378906       0.000000
      1.250000      -0.398437       0.000000
      1.250000      -0.265625       0.000000
      1.041667      -0.252604       0.000000
      1.250000      -0.531250       0.000000
      1.458333      -0.557292       0.000000
      1.458333      -0.417969       0.000000
      1.250000      -0.398437       0.000000
      1.458333      -0.557292       0.000000
      1.666667      -0.583333       0.000000
      1.666667      -0.437500       0.000000
      1.458333      -0.417969       0.000000
      1.250000      -0.398437       0.000000
      1.458333      -0.417969       0.000000
      1.458333      -0.278646       0.000000
      1.250000      -0.265625       0.000000
      1.458333      -0.417969       0.000000
      1.666667      -0.437500       0.000000
      1.666667      -0.291667       0.000000
      1.458333      -0.278646       0.000000
      0.833333      -0.239583       0.000000
      1.041667      -0.252604       0.000000
      1.041667      -0.126302       0.000000
      0.833333      -0.119792       0.000000
      1.041667      -0.252604       0.000000
      1.250000      -0.265625       0.000000
      1.250000      -0.132812       0.000000
      1.041667      -0.126302       0.000000
      0.833333      -0.119792       0.000000
      1.041667      -0.126302       0.000000
      1.041667       0.000000       0.000000
      0.833333       0.000000       0.000000
      1.041667      -0.126302       0.000000
      1.250000      -0.132812       0.000000
      1.250000       0.000000       0.000000
      1.041667       0.000000       0.000000
      1.250000      -0.265625       0.000000
      1.458333      -0.278646       0.000000
      1.458333      -0.139323       0.000000
      1.250000      -0.132812       0.000000
      1.458333      -0.278646       0.000000
      1.666667      -0.291667       0.000000
      1.666667      -0.145833       0.000000
      1.458333      -0.139323       0.000000
      1.250000      -0.132812       0.000000
      1.458333      -0.139323       0.000000
      1.458333       0.000000       0.000000
      1.250000       0.000000       0.000000
      1.458333      -0.139323       0.000000
      1.666667      -0.145833       0.000000
      1.666667       0.000000       0.000000
      1.458333       0.000000       0.000000
      0.416667      -0.427083       0.000000
      0.520833      -0.440104       0.000000
      0.520833      -0.385091       0.000000
      0.416667      -0.373698       0.000000
      0.520833      -0.440104       0.000000
      0.625000      -0.453125       0.000000
      0.625000      -0.396484       0.000000
      0.520833      -0.385091       0.000000
      0.416667      -0.373698       0.000000
      0.520833      -0.385091       0.000000
      0.520833      -0.330078       0.000000
      0.416667      -0.320312       0.000000
      0.520833      -0.385091       0.000000
      0.625000      -0.396484       0.000000
      0.625000      -0.339844       0.000000
      0.520833      -0.330078       0.000000
      0.625000      -0.453125       0.000000
      0.729167      -0.466146       0.000000
      0.729167      -0.407878       0.000000
      0.625000      -0.396484       0.000000
      0.729167      -0.466146       0.000000
      0.833333      -0.479167       0.000000
      0.833333      -0.419271       0.000000
      0.729167      -0.407878       0.000000
      0.625000      -0.396484       0.000000
      0.729167      -0.407878       0.000000
      0.729167      -0.349609       0.000000
      0.625000      -0.339844       0.000000
      0.729167      -0.407878       0.000000
      0.833333      -0.419271       0.000000
      0.833333      -0.359375       0.000000
      0.729167      -0.349609       0.000000
      0.416667      -0.320312       0.000000
      0.520833      -0.330078       0.000000
      0.520833      -0.275065       0.000000
      0.416667      -0.266927       0.000000
      0.520833      -0.330078       0.000000
      0.625000      -0.339844       0.000000
      0.625000      -0.283203       0.000000
      0.520833      -0.275065       0.000000
      0.416667      -0.266927       0.000000
      0.520833      -0.275065       0.000000
      0.520833      -0.220052       0.000000
      0.416667      -0.213542       0.000000
      0.520833      -0.275065       0.000000
      0.625000      -0.283203       0.000000
      0.625000      -0.226562       0.000000
      0.520833      -0.220052       0.000000
      0.625000      -0.339844       0.000000
      0.729167      -0.349609       0.000000
      0.729167      -0.291341       0.000000
      0.625000      -0.283203       0.000000
      0.729167      -0.349609       0.000000
      0.833333      -0.359375       0.000000
      0.833333      -0.299479       0.000000
      0.729167      -0.291341       0.000000
      0.625000      -0.283203       0.000000
      0.729167      -0.291341       0.000000
      0.729167      -0.233073       0.000000
      0.625000      -0.226562       0.000000
      0.729167      -0.291341       0.000000
      0.833333      -0.299479       0.000000
      0.833333      -0.239583       0.000000
      0.729167      -0.233073       0.000000
      0.416667      -0.213542       0.000000
      0.520833      -0.220052       0.000000
      0.520833      -0.165039       0.000000
      0.416667      -0.160156       0.000000
      0.520833      -0.220052       0.000000
      0.625000      -0.226562       0.000000
      0.625000      -0.169922       0.000000
      0.520833      -0.165039       0.000000
      0.416667      -0.160156       0.000000
      0.520833      -0.165039       0.000000
      0.520833      -0.110026       0.000000
      0.416667      -0.106771       0.000000
      0.520833      -0.165039       0.000000
      0.625000      -0.169922       0.000000
      0.625000      -0.113281       0.000000
      0.520833      -0.110026       0.000000
      0.625000      -0.226562       0.000000
      0.729167      -0.233073       0.000000
      0.729167      -0.174805       0.000000
      0.625000      -0.169922       0.000000
      0.729167      -0.233073       0.000000
      0.833333      -0.239583       0.000000
      0.833333      -0.179687       0.000000
      0.729167      -0.174805       0.000000
      0.625000      -0.169922       0.000000
      0.729167      -0.174805       0.000000
      0.729167      -0.116536       0.000000
      0.625000      -0.113281       0.000000
[...]
POINT_DATA  1536
VECTORS U float 
      0.321772      -0.000000       0.000000
      0.321809      -0.000000       0.000000
      0.321804      -0.000000       0.000000
      0.321767      -0.000000       0.000000
      0.321809      -0.000000       0.000000
      0.321843      -0.000000       0.000000
      0.321838      -0.000000       0.000000
      0.321804      -0.000000       0.000000
      0.321767      -0.000000       0.000000
      0.321804      -0.000000       0.000000
      0.321802       0.000000       0.000000
      0.321765       0.000000       0.000000
      0.321804      -0.000000       0.000000
      0.321838      -0.000000       0.000000
      0.321836       0.000000       0.000000
      0.321802       0.000000       0.000000
      0.321843      -0.000000       0.000000
      0.321874      -0.000000       0.000000
      0.321869      -0.000000       0.000000
      0.321838      -0.000000       0.000000
      0.321874      -0.000000       0.000000
      0.321904      -0.000000       0.000000
      0.321899      -0.000000       0.000000
      0.321869      -0.000000       0.000000
      0.321838      -0.000000       0.000000
      0.321869      -0.000000       0.000000
      0.321868       0.000000       0.000000
      0.321836       0.000000       0.000000
      0.321869      -0.000000       0.000000
      0.321899      -0.000000       0.000000
      0.321897       0.000000       0.000000
      0.321868       0.000000       0.000000
      0.321904      -0.000000       0.000000
      0.321931      -0.000000       0.000000
      0.321926       0.000000       0.000000
      0.321899      -0.000000       0.000000
      0.321931      -0.000000       0.000000
      0.321957       0.000001       0.000000
      0.321952       0.000001       0.000000
      0.321926       0.000000       0.000000
      0.321899      -0.000000       0.000000
      0.321926       0.000000       0.000000
      0.321925       0.000000       0.000000
      0.321897       0.000000       0.000000
      0.321926       0.000000       0.000000
      0.321952       0.000001       0.000000
      0.321950       0.000000       0.000000
      0.321925       0.000000       0.000000
      0.321957       0.000001       0.000000
      0.321981       0.000002       0.000000
      0.321976       0.000001       0.000000
      0.321952       0.000001       0.000000
      0.321981       0.000002       0.000000
      0.322000       0.000004       0.000000
      0.322000       0.000002       0.000000
      0.321976       0.000001       0.000000
      0.321952       0.000001       0.000000
      0.321976       0.000001       0.000000
      0.321975       0.000000       0.000000
      0.321950       0.000000       0.000000
      0.321976       0.000001       0.000000
      0.322000       0.000002       0.000000
      0.322000       0.000000       0.000000
      0.321975       0.000000       0.000000
      0.321685      -0.000001       0.000000
      0.321709      -0.000001       0.000000
      0.321706      -0.000000       0.000000
      0.321681      -0.000001       0.000000
      0.321709      -0.000001       0.000000
      0.321731      -0.000000       0.000000
      0.321728      -0.000000       0.000000
      0.321706      -0.000000       0.000000
      0.321681      -0.000001       0.000000
      0.321706      -0.000000       0.000000
      0.321703      -0.000000       0.000000
      0.321678      -0.000001       0.000000
      0.321706      -0.000000       0.000000
      0.321728      -0.000000       0.000000
      0.321726      -0.000000       0.000000
      0.321703      -0.000000       0.000000
      0.321731      -0.000000       0.000000
      0.321752      -0.000000       0.000000
      0.321749      -0.000000       0.000000
      0.321728      -0.000000       0.000000
      0.321752      -0.000000       0.000000
      0.321772      -0.000000       0.000000
      0.321769      -0.000000       0.000000
      0.321749      -0.000000       0.000000
      0.321728      -0.000000       0.000000
      0.321749      -0.000000       0.000000
      0.321747      -0.000000       0.000000
      0.321726      -0.000000       0.000000
      0.321749      -0.000000       0.000000
      0.321769      -0.000000       0.000000
      0.321767      -0.000000       0.000000
      0.321747      -0.000000       0.000000
      0.321678      -0.000001       0.000000
      0.321703      -0.000000       0.000000
      0.321702      -0.000000       0.000000
      0.321676      -0.000000       0.000000
      0.321703      -0.000000       0.000000
      0.321726      -0.000000       0.000000
      0.321725      -0.000000       0.000000
      0.321702      -0.000000       0.000000
      0.321676      -0.000000       0.000000
      0.321702      -0.000000       0.000000
      0.321701       0.000000       0.000000
      0.321676       0.000000       0.000000
      0.321702      -0.000000       0.000000
      0.321725      -0.000000       0.000000
      0.321724       0.000000       0.000000
      0.321701       0.000000       0.000000
      0.321726      -0.000000       0.000000
      0.321747      -0.000000       0.000000
      0.321746       0.000000       0.000000
      0.321725      -0.000000       0.000000
      0.321747      -0.000000       0.000000
      0.321767      -0.000000       0.000000
      0.321766       0.000000       0.000000
      0.321746       0.000000       0.000000
      0.321725      -0.000000       0.000000
      0.321746       0.000000       0.000000
      0.321745       0.000000       0.000000
      0.321724       0.000000       0.000000
      0.321746       0.000000       0.000000
      0.321766       0.000000       0.000000
      0.321765       0.000000       0.000000
      0.321745       0.000000       0.000000
      0.321604      -0.000007       0.000000
      0.321634      -0.000005       0.000000
      0.321630      -0.000005       0.000000
      0.321598      -0.000007       0.000000
      0.321634      -0.000005       0.000000
      0.321654      -0.000003       0.000000
      0.321651      -0.000003       0.000000
      0.321630      -0.000005       0.000000
      0.321598      -0.000007       0.000000
      0.321630      -0.000005       0.000000
      0.321628      -0.000004       0.000000
      0.321596      -0.000007       0.000000
      0.321630      -0.000005       0.000000
      0.321651      -0.000003       0.000000
      0.321649      -0.000003       0.000000
      0.321628      -0.000004       0.000000
      0.321654      -0.000003       0.000000
      0.321671      -0.000002       0.000000
      0.321668      -0.000002       0.000000
      0.321651      -0.000003       0.000000
      0.321671      -0.000002       0.000000
      0.321685      -0.000001       0.000000
      0.321682      -0.000001       0.000000
      0.321668      -0.000002       0.000000
      0.321651      -0.000003       0.000000
      0.321668      -0.000002       0.000000
      0.321666      -0.000002       0.000000
      0.321649      -0.000003       0.000000
      0.321668      -0.000002       0.000000
      0.321682      -0.000001       0.000000
      0.321681      -0.000001       0.000000
      0.321666      -0.000002       0.000000
      0.321596      -0.000007       0.000000
      0.321628      -0.000004       0.000000
      0.321626      -0.000004       0.000000
      0.321595      -0.000006       0.000000
      0.321628      -0.000004       0.000000
      0.321649      -0.000003       0.000000
      0.321648      -0.000003       0.000000
      0.321626      -0.000004       0.000000
      0.321595      -0.000006       0.000000
      0.321626      -0.000004       0.000000
      0.321625      -0.000003       0.000000
      0.321596      -0.000005       0.000000
      0.321626      -0.000004       0.000000
      0.321648      -0.000003       0.000000
      0.321646      -0.000002       0.000000
      0.321625      -0.000003       0.000000
      0.321649      -0.000003       0.000000
      0.321666      -0.000002       0.000000
      0.321665      -0.000002       0.000000
      0.321648      -0.000003       0.000000
      0.321666      -0.000002       0.000000
      0.321681      -0.000001       0.000000
      0.321679      -0.000001       0.000000
      0.321665      -0.000002       0.000000
      0.321648      -0.000003       0.000000
      0.321665      -0.000002       0.000000
      0.321663      -0.000001       0.000000
      0.321646      -0.000002       0.000000
      0.321665      -0.000002       0.000000
      0.321679      -0.000001       0.000000
      0.321678      -0.000001       0.000000
      0.321663      -0.000001       0.000000
      0.321596      -0.000005       0.000000
      0.321625      -0.000003       0.000000
      0.321625      -0.000003       0.000000
      0.321596      -0.000004       0.000000
      0.321625      -0.000003       0.000000
      0.321646      -0.000002       0.000000
      0.321646      -0.000002       0.000000
      0.321625      -0.000003       0.000000
      0.321596      -0.000004       0.000000
      0.321625      -0.000003       0.000000
      0.321625      -0.000002       0.000000
      0.321596      -0.000002       0.000000
      0.321625      -0.000003       0.000000
      0.321646      -0.000002       0.000000
      0.321645      -0.000001       0.000000
      0.321625      -0.000002       0.000000
      0.321646      -0.000002       0.000000
      0.321663      -0.000001       0.000000
      0.321662      -0.000001       0.000000
      0.321646      -0.000002       0.000000
      0.321663      -0.000001       0.000000
      0.321678      -0.000001       0.000000
      0.321677      -0.000001       0.000000
      0.321662      -0.000001       0.000000
      0.321646      -0.000002       0.000000
      0.321662      -0.000001       0.000000
      0.321662      -0.000001       0.000000
      0.321645      -0.000001       0.000000
      0.321662      -0.000001       0.000000
      0.321677      -0.000001       0.000000
      0.321676      -0.000000       0.000000
      0.321662      -0.000001       0.000000
      0.321596      -0.000002       0.000000
      0.321625      -0.000002       0.000000
      0.321625      -0.000001       0.000000
      0.321596      -0.000001       0.000000
      0.321625      -0.000002       0.000000
      0.321645      -0.000001       0.000000
      0.321645      -0.000001       0.000000
      0.321625      -0.000001       0.000000
      0.321596      -0.000001       0.000000
      0.321625      -0.000001       0.000000
      0.321625       0.000000       0.000000
      0.321596       0.000000       0.000000
      0.321625      -0.000001       0.000000
      0.321645      -0.000001       0.000000
      0.321645       0.000000       0.000000
      0.321625       0.000000       0.000000
      0.321645      -0.000001       0.000000
      0.321662      -0.000001       0.000000
      0.321662      -0.000000       0.000000
      0.321645      -0.000001       0.000000
      0.321662      -0.000001       0.000000
      0.321676      -0.000000       0.000000
      0.321676      -0.000000       0.000000
      0.321662      -0.000000       0.000000
      0.321645      -0.000001       0.000000
      0.321662      -0.000000       0.000000
      0.321661       0.000000       0.000000
      0.321645       0.000000       0.000000
      0.321662      -0.000000       0.000000
      0.321676      -0.000000       0.000000
      0.321676       0.000000       0.000000
      0.321661       0.000000       0.000000
      0.000000       0.000000       0.000000
      0.243373       0.004586       0.000000
      0.243995       0.004287       0.000000
      0.000000       0.000000       0.000000
      0.243373       0.004586       0.000000
      0.302547      -0.000947       0.000000
      0.301807      -0.000901       0.000000
      0.243995       0.004287       0.000000
      0.000000       0.000000       0.000000
      0.243995       0.004287       0.000000
      0.254829       0.004889       0.000000
      0.000000       0.000000       0.000000
      0.243995       0.004287       0.000000
      0.301807      -0.000901       0.000000
      0.302409      -0.000670       0.000000
      0.254829       0.004889       0.000000
      0.302547      -0.000947       0.000000
      0.314934      -0.000328       0.000000
      0.313957      -0.000318       0.000000
      0.301807      -0.000901       0.000000
      0.314934      -0.000328       0.000000
      0.321162      -0.000108       0.000000
      0.320933      -0.000092       0.000000
      0.313957      -0.000318       0.000000
      0.301807      -0.000901       0.000000
      0.313957      -0.000318       0.000000
      0.312684      -0.000438       0.000000
      0.302409      -0.000670       0.000000
      0.313957      -0.000318       0.000000
      0.320933      -0.000092       0.000000
      0.320797      -0.000141       0.000000
      0.312684      -0.000438       0.000000
      0.000000       0.000000       0.000000
      0.254829       0.004889       0.000000
      0.272398       0.006354       0.000000
      0.000000       0.000000       0.000000
      0.254829       0.004889       0.000000
      0.302409      -0.000670       0.000000
      0.303513      -0.000587       0.000000
      0.272398       0.006354       0.000000
      0.000000       0.000000       0.000000
      0.272398       0.006354       0.000000
      0.286878       0.006526       0.000000
      0.000000       0.000000       0.000000
      0.272398       0.006354       0.000000
      0.303513      -0.000587       0.000000
      0.304701      -0.000460       0.000000
      0.286878       0.006526       0.000000
      0.302409      -0.000670       0.000000
      0.312684      -0.000438       0.000000
      0.310904      -0.000831       0.000000
      0.303513      -0.000587       0.000000
      0.312684      -0.000438       0.000000
      0.320797      -0.000141       0.000000
      0.320593      -0.000236       0.000000
      0.310904      -0.000831       0.000000
      0.303513      -0.000587       0.000000
      0.310904      -0.000831       0.000000
      0.311185      -0.001440       0.000000
      0.304701      -0.000460       0.000000
      0.310904      -0.000831       0.000000
      0.320593      -0.000236       0.000000
      0.320276      -0.000294       0.000000
      0.311185      -0.001440       0.000000
      0.000000       0.000000       0.000000
      0.286878       0.006526       0.000000
      0.295958       0.005513       0.000000
      0.000000       0.000000       0.000000
      0.286878       0.006526       0.000000
      0.304701      -0.000460       0.000000
      0.306541      -0.000223       0.000000
      0.295958       0.005513       0.000000
      0.000000       0.000000       0.000000
      0.295958       0.005513       0.000000
      0.301503       0.004046       0.000000
      0.000000       0.000000       0.000000
      0.295958       0.005513       0.000000
      0.306541      -0.000223       0.000000
      0.308633      -0.000040       0.000000
      0.301503       0.004046       0.000000
      0.000000       0.000000       0.000000
      0.301503       0.004046       0.000000
      0.304787       0.002352       0.000000
      0.000000       0.000000       0.000000
      0.301503       0.004046       0.000000
      0.308633      -0.000040       0.000000
      0.310352       0.000139       0.000000
      0.304787       0.002352       0.000000
      0.000000       0.000000       0.000000
      0.304787       0.002352       0.000000
      0.305875       0.000639       0.000000
      0.000000       0.000000       0.000000
      0.304787       0.002352       0.000000
      0.310352       0.000139       0.000000
      0.311301       0.000426       0.000000
      0.305875       0.000639       0.000000
      0.000000       0.000000       0.000000
      0.305875       0.000639       0.000000
      0.305102      -0.001278       0.000000
      0.000000       0.000000       0.000000
      0.305875       0.000639       0.000000
      0.311301       0.000426       0.000000
      0.311386       0.000559       0.000000
      0.305102      -0.001278       0.000000
      0.000000       0.000000       0.000000
      0.305102      -0.001278       0.000000
      0.302422      -0.003850       0.000000
      0.000000       0.000000       0.000000
      0.305102      -0.001278       0.000000
      0.311386       0.000559       0.000000
      0.310337       0.000180       0.000000
      0.302422      -0.003850       0.000000
      0.000000       0.000000       0.000000
      0.302422      -0.003850       0.000000
      0.295955      -0.006093       0.000000
      0.000000       0.000000       0.000000
      0.302422      -0.003850       0.000000
      0.310337       0.000180       0.000000
      0.307680      -0.000220       0.000000
      0.295955      -0.006093       0.000000
      0.000000       0.000000       0.000000
      0.295955      -0.006093       0.000000
      0.285194      -0.007755       0.000000
      0.000000       0.000000       0.000000
      0.295955      -0.006093       0.000000
      0.307680      -0.000220       0.000000
      0.303656      -0.000368       0.000000
      0.285194      -0.007755       0.000000
      0.000000       0.000000       0.000000
      0.285194      -0.007755       0.000000
      0.272284      -0.007861       0.000000
      0.000000       0.000000       0.000000
      0.285194      -0.007755       0.000000
      0.303656      -0.000368       0.000000
      0.298959      -0.000273       0.000000
      0.272284      -0.007861       0.000000
      0.000000       0.000000       0.000000
      0.272284      -0.007861       0.000000
      0.260777      -0.006164       0.000000
      0.000000       0.000000       0.000000
      0.272284      -0.007861       0.000000
      0.298959      -0.000273       0.000000
      0.294599      -0.000117       0.000000
      0.260777      -0.006164       0.000000
      0.000000       0.000000       0.000000
      0.260777      -0.006164       0.000000
      0.253194      -0.003315       0.000000
      0.000000       0.000000       0.000000
      0.260777      -0.006164       0.000000
      0.294599      -0.000117       0.000000
      0.291561      -0.000026       0.000000
      0.253194      -0.003315       0.000000
      0.000000       0.000000       0.000000
      0.253194      -0.003315       0.000000
      0.250586       0.000000       0.000000
      0.000000       0.000000       0.000000
      0.253194      -0.003315       0.000000
      0.291561      -0.000026       0.000000
      0.290480       0.000000       0.000000
      0.250586       0.000000       0.000000
      0.304701      -0.000460       0.000000
      0.311185      -0.001440       0.000000
      0.312317      -0.001688       0.000000
      0.306541      -0.000223       0.000000
      0.311185      -0.001440       0.000000
      0.320276      -0.000294       0.000000
      0.319827      -0.000304       0.000000
      0.312317      -0.001688       0.000000
      0.306541      -0.000223       0.000000
      0.312317      -0.001688       0.000000
      0.313669      -0.001480       0.000000
      0.308633      -0.000040       0.000000
      0.312317      -0.001688       0.000000
      0.319827      -0.000304       0.000000
      0.319399      -0.000347       0.000000
      0.313669      -0.001480       0.000000
      0.308633      -0.000040       0.000000
      0.313669      -0.001480       0.000000
      0.314821      -0.001035       0.000000
      0.310352       0.000139       0.000000
      0.313669      -0.001480       0.000000
      0.319399      -0.000347       0.000000
      0.319227      -0.000353       0.000000
      0.314821      -0.001035       0.000000
      0.310352       0.000139       0.000000
      0.314821      -0.001035       0.000000
      0.315550      -0.000541       0.000000