# vtk DataFile Version 2.0
time_10.vtk
ASCII
DATASET UNSTRUCTURED_GRID
POINTS  1656 float
      1.666667      -0.583333       0.000000
      2.083333      -0.635417       0.000000
      2.083333      -0.317708       0.000000
      1.666667      -0.291667       0.000000
      2.083333      -0.635417       0.000000
      2.500000      -0.687500       0.000000
      2.500000      -0.343750       0.000000
      2.083333      -0.317708       0.000000
      1.666667      -0.291667       0.000000
      2.083333      -0.317708       0.000000
      2.083333       0.000000       0.000000
      1.666667       0.000000       0.000000
      2.083333      -0.317708       0.000000
      2.500000      -0.343750       0.000000
      2.500000       0.000000       0.000000
      2.083333       0.000000       0.000000
      2.500000      -0.687500       0.000000
      2.916667      -0.739583       0.000000
      2.916667      -0.369792       0.000000
      2.500000      -0.343750       0.000000
      2.916667      -0.739583       0.000000
      3.333333      -0.791667       0.000000
      3.333333      -0.395833       0.000000
      2.916667      -0.369792       0.000000
      2.500000      -0.343750       0.000000
      2.916667      -0.369792       0.000000
      2.916667       0.000000       0.000000
      2.500000       0.000000       0.000000
      2.916667      -0.369792       0.000000
      3.333333      -0.395833       0.000000
      3.333333       0.000000       0.000000
      2.916667       0.000000       0.000000
      3.333333      -0.791667       0.000000
      3.750000      -0.843750       0.000000
      3.750000      -0.421875       0.000000
      3.333333      -0.395833       0.000000
      3.750000      -0.843750       0.000000
      4.166667      -0.895833       0.000000
      4.166667      -0.447917       0.000000
      3.750000      -0.421875       0.000000
      3.333333      -0.395833       0.000000
      3.750000      -0.421875       0.000000
      3.750000       0.000000       0.000000
      3.333333       0.000000       0.000000
      3.750000      -0.421875       0.000000
      4.166667      -0.447917       0.000000
      4.166667       0.000000       0.000000
      3.750000       0.000000       0.000000
      4.166667      -0.895833       0.000000
      4.583333      -0.947917       0.000000
      4.583333      -0.473958       0.000000
      4.166667      -0.447917       0.000000
      4.583333      -0.947917       0.000000
      5.000000      -1.000000       0.000000
      5.000000      -0.500000       0.000000
      4.583333      -0.473958       0.000000
      4.166667      -0.447917       0.000000
      4.583333      -0.473958       0.000000
      4.583333       0.000000       0.000000
      4.166667       0.000000       0.000000
      4.583333      -0.473958       0.000000
      5.000000      -0.500000       0.000000
      5.000000       0.000000       0.000000
      4.583333       0.000000       0.000000
      0.833333      -0.479167       0.000000
      1.041667      -0.505208       0.000000
      1.041667      -0.378906       0.000000
      0.833333      -0.359375       0.000000
      1.041667      -0.505208       0.000000
      1.250000      -0.531250       0.000000
      1.250000      -0.398437       0.000000
      1.041667      -0.378906       0.000000
      0.833333      -0.359375       0.000000
      1.041667      -0.378906       0.000000
      1.041667      -0.252604       0.000000
      0.833333      -0.239583       0.000000
      1.041667      -0.378906       0.000000
      1.250000      -0.398437       0.000000
      1.250000      -0.265625       0.000000
      1.041667      -0.252604       0.000000
      1.250000      -0.531250       0.000000
      1.458333      -0.557292       0.000000
      1.458333      -0.417969       0.000000
      1.250000      -0.398437       0.000000
      1.458333      -0.557292       0.000000
      1.666667      -0.583333       0.000000
      1.666667      -0.437500       0.000000
      1.458333      -0.417969       0.000000
      1.250000      -0.398437       0.000000
      1.458333      -0.417969       0.000000
      1.458333      -0.278646       0.000000
      1.250000      -0.265625       0.000000
      1.458333      -0.417969       0.000000
      1.666667      -0.437500       0.000000
      1.666667      -0.291667       0.000000
      1.458333      -0.278646       0.000000
      0.833333      -0.239583       0.000000
      1.041667      -0.252604       0.000000
      1.041667      -0.126302       0.000000
      0.833333      -0.119792       0.000000
      1.041667      -0.252604       0.000000
      1.250000      -0.265625       0.000000
      1.250000      -0.132812       0.000000
      1.041667      -0.126302       0.000000
      0.833333      -0.119792       0.000000
      1.041667      -0.126302       0.000000
      1.041667       0.000000       0.000000
      0.833333       0.000000       0.000000
      1.041667      -0.126302       0.000000
      1.250000      -0.132812       0.000000
      1.250000       0.000000       0.000000
      1.041667       0.000000       0.000000
      1.250000      -0.265625       0.000000
      1.458333      -0.278646       0.000000
      1.458333      -0.139323       0.000000
      1.250000      -0.132812       0.000000
      1.458333      -0.278646       0.000000
      1.666667      -0.291667       0.000000
      1.666667      -0.145833       0.000000
      1.458333      -0.139323       0.000000
      1.250000      -0.132812       0.000000
      1.458333      -0.139323       0.000000
      1.458333       0.000000       0.000000
      1.250000       0.000000       0.000000
      1.458333      -0.139323       0.000000
      1.666667      -0.145833       0.000000
      1.666667       0.000000       0.000000
      1.458333       0.000000       0.000000
      0.416667      -0.427083       0.000000
      0.520833      -0.440104       0.000000
      0.520833      -0.385091       0.000000
      0.416667      -0.373698       0.000000
      0.520833      -0.440104       0.000000
      0.625000      -0.453125       0.000000
      0.625000      -0.396484       0.000000
      0.520833      -0.385091       0.000000
      0.416667      -0.373698       0.000000
      0.520833      -0.385091       0.000000
      0.520833      -0.330078       0.000000
      0.416667      -0.320312       0.000000
      0.520833      -0.385091       0.000000
      0.625000      -0.396484       0.000000
      0.625000      -0.339844       0.000000
      0.520833      -0.330078       0.000000
      0.625000      -0.453125       0.000000
      0.729167      -0.466146       0.000000
      0.729167      -0.407878       0.000000
      0.625000      -0.396484       0.000000
      0.729167      -0.466146       0.000000
      0.833333      -0.479167       0.000000
      0.833333      -0.419271       0.000000
      0.729167      -0.407878       0.000000
      0.625000      -0.396484       0.000000
      0.729167      -0.407878       0.000000
      0.729167      -0.349609       0.000000
      0.625000      -0.339844       0.000000
      0.729167      -0.407878       0.000000
      0.833333      -0.419271       0.000000
      0.833333      -0.359375       0.000000
      0.729167      -0.349609       0.000000
      0.416667      -0.320312       0.000000
      0.520833      -0.330078       0.000000
      0.520833      -0.275065       0.000000
      0.416667      -0.266927       0.000000
      0.520833      -0.330078       0.000000
      0.625000      -0.339844       0.000000
      0.625000      -0.283203       0.000000
      0.520833      -0.275065       0.000000
      0.520833      -0.275065       0.000000
      0.625000      -0.283203       0.000000
      0.625000      -0.226562       0.000000
      0.520833      -0.220052       0.000000
      0.625000      -0.339844       0.000000
      0.729167      -0.349609       0.000000
      0.729167      -0.291341       0.000000
      0.625000      -0.283203       0.000000
      0.729167      -0.349609       0.000000
      0.833333      -0.359375       0.000000
      0.833333      -0.299479       0.000000
      0.729167      -0.291341       0.000000
      0.625000      -0.283203       0.000000
      0.729167      -0.291341       0.000000
      0.729167      -0.233073       0.000000
      0.625000      -0.226562       0.000000
      0.729167      -0.291341       0.000000
      0.833333      -0.299479       0.000000
      0.833333      -0.239583       0.000000
      0.729167      -0.233073       0.000000
      0.520833      -0.220052       0.000000
      0.625000      -0.226562       0.000000
      0.625000      -0.169922       0.000000
      0.520833      -0.165039       0.000000
      0.520833      -0.165039       0.000000
      0.625000      -0.169922       0.000000
      0.625000      -0.113281       0.000000
      0.520833      -0.110026       0.000000
      0.625000      -0.226562       0.000000
      0.729167      -0.233073       0.000000
      0.729167      -0.174805       0.000000
      0.625000      -0.169922       0.000000
      0.729167      -0.233073       0.000000
      0.833333      -0.239583       0.000000
      0.833333      -0.179687       0.000000
      0.729167      -0.174805       0.000000
      0.625000      -0.169922       0.000000
      0.729167      -0.174805       0.000000
      0.729167      -0.116536       0.000000
      0.625000      -0.113281       0.000000
      0.729167      -0.174805       0.000000
      0.833333      -0.179687       0.000000
      0.833333      -0.119792       0.000000
      0.729167      -0.116536       0.000000
      0.520833      -0.110026       0.000000
      0.625000      -0.113281       0.000000
      0.625000      -0.056641       0.000000
      0.520833      -0.055013       0.000000
      0.520833      -0.055013       0.000000
      0.625000      -0.056641       0.000000
      0.625000       0.000000       0.000000
      0.520833       0.000000       0.000000
[...]
POINT_DATA  1656
VECTORS U float 
      0.389635      -0.000001       0.000000
      0.389694      -0.000000       0.000000
      0.389686      -0.000000       0.000000
      0.389627      -0.000000       0.000000
      0.389694      -0.000000       0.000000
      0.389749      -0.000000       0.000000
      0.389741      -0.000000       0.000000
      0.389686      -0.000000       0.000000
      0.389627      -0.000000       0.000000
      0.389686      -0.000000       0.000000
      0.389683      -0.000000       0.000000
      0.389624      -0.000000       0.000000
      0.389686      -0.000000       0.000000
      0.389741      -0.000000       0.000000
      0.389738      -0.000000       0.000000
      0.389683      -0.000000       0.000000
      0.389749      -0.000000       0.000000
      0.389799      -0.000000       0.000000
      0.389791      -0.000000       0.000000
      0.389741      -0.000000       0.000000
      0.389799      -0.000000       0.000000
      0.389846      -0.000000       0.000000
      0.389838      -0.000000       0.000000
      0.389791      -0.000000       0.000000
      0.389741      -0.000000       0.000000
      0.389791      -0.000000       0.000000
      0.389788      -0.000000       0.000000
      0.389738      -0.000000       0.000000
      0.389791      -0.000000       0.000000
      0.389838      -0.000000       0.000000
      0.389835      -0.000000       0.000000
      0.389788      -0.000000       0.000000
      0.389846      -0.000000       0.000000
      0.389890      -0.000000       0.000000
      0.389882       0.000000       0.000000
      0.389838      -0.000000       0.000000
      0.389890      -0.000000       0.000000
      0.389932       0.000001       0.000000
      0.389923       0.000001       0.000000
      0.389882       0.000000       0.000000
      0.389838      -0.000000       0.000000
      0.389882       0.000000       0.000000
      0.389879      -0.000000       0.000000
      0.389835      -0.000000       0.000000
      0.389882       0.000000       0.000000
      0.389923       0.000001       0.000000
      0.389921      -0.000000       0.000000
      0.389879      -0.000000       0.000000
      0.389932       0.000001       0.000000
      0.389970       0.000003       0.000000
      0.389962       0.000002       0.000000
      0.389923       0.000001       0.000000
      0.389970       0.000003       0.000000
      0.390000       0.000006       0.000000
      0.390000       0.000004       0.000000
      0.389962       0.000002       0.000000
      0.389923       0.000001       0.000000
      0.389962       0.000002       0.000000
      0.389961      -0.000000       0.000000
      0.389921      -0.000000       0.000000
      0.389962       0.000002       0.000000
      0.390000       0.000004       0.000000
      0.390000      -0.000000       0.000000
      0.389961      -0.000000       0.000000
      0.389487      -0.000003       0.000000
      0.389532      -0.000003       0.000000
      0.389527      -0.000003       0.000000
      0.389484      -0.000003       0.000000
      0.389532      -0.000003       0.000000
      0.389570      -0.000002       0.000000
      0.389565      -0.000001       0.000000
      0.389527      -0.000003       0.000000
      0.389484      -0.000003       0.000000
      0.389527      -0.000003       0.000000
      0.389525      -0.000002       0.000000
      0.389485      -0.000003       0.000000
      0.389527      -0.000003       0.000000
      0.389565      -0.000001       0.000000
      0.389561      -0.000001       0.000000
      0.389525      -0.000002       0.000000
      0.389570      -0.000002       0.000000
      0.389604      -0.000001       0.000000
      0.389599      -0.000001       0.000000
      0.389565      -0.000001       0.000000
      0.389604      -0.000001       0.000000
      0.389635      -0.000001       0.000000
      0.389630      -0.000000       0.000000
      0.389599      -0.000001       0.000000
      0.389565      -0.000001       0.000000
      0.389599      -0.000001       0.000000
      0.389595      -0.000001       0.000000
      0.389561      -0.000001       0.000000
      0.389599      -0.000001       0.000000
      0.389630      -0.000000       0.000000
      0.389627      -0.000000       0.000000
      0.389595      -0.000001       0.000000
      0.389485      -0.000003       0.000000
      0.389525      -0.000002       0.000000
      0.389525      -0.000001       0.000000
      0.389487      -0.000001       0.000000
      0.389525      -0.000002       0.000000
      0.389561      -0.000001       0.000000
      0.389560      -0.000001       0.000000
      0.389525      -0.000001       0.000000
      0.389487      -0.000001       0.000000
      0.389525      -0.000001       0.000000
      0.389524      -0.000000       0.000000
      0.389488      -0.000000       0.000000
      0.389525      -0.000001       0.000000
      0.389560      -0.000001       0.000000
      0.389559      -0.000000       0.000000
      0.389524      -0.000000       0.000000
      0.389561      -0.000001       0.000000
      0.389595      -0.000001       0.000000
      0.389593      -0.000000       0.000000
      0.389560      -0.000001       0.000000
      0.389595      -0.000001       0.000000
      0.389627      -0.000000       0.000000
      0.389625      -0.000000       0.000000
      0.389593      -0.000000       0.000000
      0.389560      -0.000001       0.000000
      0.389593      -0.000000       0.000000
      0.389593      -0.000000       0.000000
      0.389559      -0.000000       0.000000
      0.389593      -0.000000       0.000000
      0.389625      -0.000000       0.000000
      0.389624      -0.000000       0.000000
      0.389593      -0.000000       0.000000
      0.389291       0.000046       0.000000
      0.389373       0.000014       0.000000
      0.389378       0.000014       0.000000
      0.389310       0.000047       0.000000
      0.389373       0.000014       0.000000
      0.389423       0.000002       0.000000
      0.389424       0.000002       0.000000
      0.389378       0.000014       0.000000
      0.389310       0.000047       0.000000
      0.389378       0.000014       0.000000
      0.389388       0.000014       0.000000
      0.389334       0.000045       0.000000
      0.389378       0.000014       0.000000
      0.389424       0.000002       0.000000
      0.389427       0.000002       0.000000
      0.389388       0.000014       0.000000
      0.389423       0.000002       0.000000
      0.389459      -0.000002       0.000000
      0.389457      -0.000002       0.000000
      0.389424       0.000002       0.000000
      0.389459      -0.000002       0.000000
      0.389487      -0.000003       0.000000
      0.389485      -0.000003       0.000000
      0.389457      -0.000002       0.000000
      0.389424       0.000002       0.000000
      0.389457      -0.000002       0.000000
      0.389458      -0.000002       0.000000
      0.389427       0.000002       0.000000
      0.389457      -0.000002       0.000000
      0.389485      -0.000003       0.000000
      0.389484      -0.000003       0.000000
      0.389458      -0.000002       0.000000
      0.389334       0.000045       0.000000
      0.389388       0.000014       0.000000
      0.389398       0.000014       0.000000
      0.389355       0.000042       0.000000
      0.389388       0.000014       0.000000
      0.389427       0.000002       0.000000
      0.389432       0.000003       0.000000
      0.389398       0.000014       0.000000
      0.389398       0.000014       0.000000
      0.389432       0.000003       0.000000
      0.389437       0.000003       0.000000
      0.389407       0.000013       0.000000
      0.389427       0.000002       0.000000
      0.389458      -0.000002       0.000000
      0.389460      -0.000002       0.000000
      0.389432       0.000003       0.000000
      0.389458      -0.000002       0.000000
      0.389484      -0.000003       0.000000
      0.389484      -0.000003       0.000000
      0.389460      -0.000002       0.000000
      0.389432       0.000003       0.000000
      0.389460      -0.000002       0.000000
      0.389462      -0.000001       0.000000
      0.389437       0.000003       0.000000
      0.389460      -0.000002       0.000000
      0.389484      -0.000003       0.000000
      0.389485      -0.000003       0.000000
      0.389462      -0.000001       0.000000
      0.389407       0.000013       0.000000
      0.389437       0.000003       0.000000
      0.389441       0.000002       0.000000
      0.389413       0.000011       0.000000
      0.389413       0.000011       0.000000
      0.389441       0.000002       0.000000
      0.389445       0.000002       0.000000
      0.389418       0.000008       0.000000
      0.389437       0.000003       0.000000
      0.389462      -0.000001       0.000000
      0.389465      -0.000001       0.000000
      0.389441       0.000002       0.000000
      0.389462      -0.000001       0.000000
      0.389485      -0.000003       0.000000
      0.389486      -0.000002       0.000000
      0.389465      -0.000001       0.000000
      0.389441       0.000002       0.000000
      0.389465      -0.000001       0.000000
      0.389467      -0.000001       0.000000
      0.389445       0.000002       0.000000
      0.389465      -0.000001       0.000000
      0.389486      -0.000002       0.000000
      0.389487      -0.000001       0.000000
      0.389467      -0.000001       0.000000
      0.389418       0.000008       0.000000
      0.389445       0.000002       0.000000
      0.389447       0.000001       0.000000
      0.389420       0.000004       0.000000
      0.389420       0.000004       0.000000
      0.389447       0.000001       0.000000
      0.389447      -0.000000       0.000000
      0.389421      -0.000000       0.000000
      0.389445       0.000002       0.000000
      0.389467      -0.000001       0.000000
      0.389468      -0.000000       0.000000
      0.389447       0.000001       0.000000
      0.389467      -0.000001       0.000000
      0.389487      -0.000001       0.000000
      0.389488      -0.000001       0.000000
      0.389468      -0.000000       0.000000
      0.389447       0.000001       0.000000
      0.389468      -0.000000       0.000000
      0.389469      -0.000000       0.000000
      0.389447      -0.000000       0.000000
      0.389468      -0.000000       0.000000
      0.389488      -0.000001       0.000000
      0.389488      -0.000000       0.000000
      0.389469      -0.000000       0.000000
      0.000000       0.000000       0.000000
      0.138387      -0.003059       0.000000
      0.113397      -0.003375       0.000000
      0.000000       0.000000       0.000000
      0.138387      -0.003059       0.000000
      0.337448       0.005543       0.000000
      0.289632       0.013706       0.000000
      0.113397      -0.003375       0.000000
      0.000000       0.000000       0.000000
      0.113397      -0.003375       0.000000
      0.086593      -0.002719       0.000000
      0.000000       0.000000       0.000000
      0.113397      -0.003375       0.000000
      0.289632       0.013706       0.000000
      0.245881       0.010919       0.000000
      0.086593      -0.002719       0.000000
      0.337448       0.005543       0.000000
      0.388272      -0.001272       0.000000
      0.386711      -0.001202       0.000000
      0.289632       0.013706       0.000000
      0.388272      -0.001272       0.000000
      0.388906       0.000256       0.000000
      0.388601       0.000296       0.000000
      0.386711      -0.001202       0.000000
      0.289632       0.013706       0.000000
      0.386711      -0.001202       0.000000
      0.385324      -0.001298       0.000000
      0.245881       0.010919       0.000000
      0.386711      -0.001202       0.000000
      0.388601       0.000296       0.000000
      0.388248       0.000433       0.000000
      0.385324      -0.001298       0.000000
      0.000000       0.000000       0.000000
      0.086593      -0.002719       0.000000
      0.061328      -0.001836       0.000000
      0.000000       0.000000       0.000000
      0.086593      -0.002719       0.000000
      0.245881       0.010919       0.000000
      0.204199       0.005195       0.000000
      0.061328      -0.001836       0.000000
      0.000000       0.000000       0.000000
      0.061328      -0.001836       0.000000
      0.039934      -0.000929       0.000000
      0.000000       0.000000       0.000000
      0.061328      -0.001836       0.000000
      0.204199       0.005195       0.000000
      0.141038       0.007932       0.000000
      0.039934      -0.000929       0.000000
      0.245881       0.010919       0.000000
      0.385324      -0.001298       0.000000
      0.381646      -0.001649       0.000000
      0.204199       0.005195       0.000000
      0.385324      -0.001298       0.000000
      0.388248       0.000433       0.000000
      0.387852       0.000675       0.000000
      0.381646      -0.001649       0.000000
      0.204199       0.005195       0.000000
      0.381646      -0.001649       0.000000
      0.368238      -0.001905       0.000000
      0.141038       0.007932       0.000000
      0.381646      -0.001649       0.000000
      0.387852       0.000675       0.000000
      0.387558       0.000814       0.000000
      0.368238      -0.001905       0.000000
      0.000000       0.000000       0.000000
      0.039934      -0.000929       0.000000
      0.023751      -0.000155       0.000000
      0.000000       0.000000       0.000000
      0.039934      -0.000929       0.000000
      0.141038       0.007932       0.000000
      0.087671       0.012165       0.000000
      0.023751      -0.000155       0.000000
      0.000000       0.000000       0.000000
      0.023751      -0.000155       0.000000
      0.013137       0.000551       0.000000
      0.000000       0.000000       0.000000
      0.023751      -0.000155       0.000000
      0.087671       0.012165       0.000000
      0.053712       0.012267       0.000000
      0.013137       0.000551       0.000000
      0.141038       0.007932       0.000000
      0.368238      -0.001905       0.000000
      0.318598       0.006722       0.000000
      0.087671       0.012165       0.000000
      0.368238      -0.001905       0.000000
      0.387558       0.000814       0.000000
      0.387327      -0.000523       0.000000
      0.318598       0.006722       0.000000
      0.087671       0.012165       0.000000
      0.318598       0.006722       0.000000
      0.276212       0.017813       0.000000
      0.053712       0.012267       0.000000
      0.318598       0.006722       0.000000
      0.387327      -0.000523       0.000000
      0.383569      -0.000265       0.000000
      0.276212       0.017813       0.000000
      0.000000       0.000000       0.000000
      0.013137       0.000551       0.000000
      0.006522       0.001194       0.000000
      0.000000       0.000000       0.000000
      0.013137       0.000551       0.000000
      0.053712       0.012267       0.000000
      0.015596       0.014107       0.000000
      0.006522       0.001194       0.000000
      0.000000       0.000000       0.000000
      0.006522       0.001194       0.000000
      0.003439       0.001233       0.000000
      0.000000       0.000000       0.000000
      0.006522       0.001194       0.000000
      0.015596       0.014107       0.000000
      0.001980       0.005994       0.000000
      0.003439       0.001233       0.000000
      0.053712       0.012267       0.000000
      0.276212       0.017813       0.000000
      0.341836       0.007472       0.000000
      0.015596       0.014107       0.000000
      0.276212       0.017813       0.000000
      0.383569      -0.000265       0.000000
      0.384339      -0.000359       0.000000
      0.341836       0.007472       0.000000
      0.015596       0.014107       0.000000
      0.341836       0.007472       0.000000
      0.372028      -0.003510       0.000000
      0.001980       0.005994       0.000000
      0.341836       0.007472       0.000000
      0.384339      -0.000359       0.000000
      0.384068      -0.000505       0.000000
      0.372028      -0.003510       0.000000
      0.000000       0.000000       0.000000
      0.003439       0.001233       0.000000
      0.002450       0.001087       0.000000
      0.000000       0.000000       0.000000
      0.003439       0.001233       0.000000
      0.001980       0.005994       0.000000
      0.002755       0.002176       0.000000
      0.002450       0.001087       0.000000
      0.000000       0.000000       0.000000
      0.002450       0.001087       0.000000
      0.002259       0.000846       0.000000
      0.000000       0.000000       0.000000
      0.002450       0.001087       0.000000
      0.002755       0.002176       0.000000
      0.005478       0.000982       0.000000
      0.002259       0.000846       0.000000
      0.001980       0.005994       0.000000
      0.372028      -0.003510       0.000000
      0.318671      -0.005622       0.000000
      0.002755       0.002176       0.000000
      0.372028      -0.003510       0.000000
      0.384068      -0.000505       0.000000
      0.380984      -0.000315       0.000000
      0.318671      -0.005622       0.000000
      0.002755       0.002176       0.000000
      0.318671      -0.005622       0.000000
      0.266847       0.000151       0.000000
      0.005478       0.000982       0.000000
      0.318671      -0.005622       0.000000
      0.380984      -0.000315       0.000000
      0.377440      -0.000074       0.000000
      0.266847       0.000151       0.000000
      0.000000       0.000000       0.000000
      0.002259       0.000846       0.000000
      0.002102       0.000632       0.000000
      0.000000       0.000000       0.000000
      0.002259       0.000846       0.000000
      0.005478       0.000982       0.000000
      0.006077       0.001097       0.000000
      0.002102       0.000632       0.000000
      0.000000       0.000000       0.000000
      0.002102       0.000632       0.000000
      0.001838       0.000463       0.000000
      0.000000       0.000000       0.000000
      0.002102       0.000632       0.000000
      0.006077       0.001097       0.000000
      0.005474       0.001291       0.000000
      0.001838       0.000463       0.000000
      0.005478       0.000982       0.000000
      0.266847       0.000151       0.000000
      0.240140       0.000951       0.000000
      0.006077       0.001097       0.000000
      0.266847       0.000151       0.000000
      0.377440      -0.000074       0.000000
      0.374746      -0.000073       0.000000
      0.240140       0.000951       0.000000
      0.006077       0.001097       0.000000
      0.240140       0.000951       0.000000
      0.228764       0.000479       0.000000
      0.005474       0.001291       0.000000
      0.240140       0.000951       0.000000
      0.374746      -0.000073       0.000000
      0.372970      -0.000113       0.000000
      0.228764       0.000479       0.000000
      0.000000       0.000000       0.000000
      0.001838       0.000463       0.000000
      0.001530       0.000329       0.000000
      0.000000       0.000000       0.000000
      0.001838       0.000463       0.000000
      0.005474       0.001291       0.000000
      0.004515       0.001232       0.000000
      0.001530       0.000329       0.000000
      0.000000       0.000000       0.000000
      0.001530       0.000329       0.000000
      0.001261       0.000213       0.000000
      0.000000       0.000000       0.000000
      0.001530       0.000329       0.000000
      0.004515       0.001232       0.000000
      0.003641       0.000938       0.000000