# vtk DataFile Version 2.0
time_10.vtk
ASCII
DATASET UNSTRUCTURED_GRID
POINTS   768 float
      1.666667      -0.583333       0.000000
      2.083333      -0.635417       0.000000
      2.083333      -0.317708       0.000000
      1.666667      -0.291667       0.000000
      2.083333      -0.635417       0.000000
      2.500000      -0.687500       0.000000
      2.500000      -0.343750       0.000000
      2.083333      -0.317708       0.000000
      1.666667      -0.291667       0.000000
      2.083333      -0.317708       0.000000
      2.083333       0.000000       0.000000
      1.666667       0.000000       0.000000
      2.083333      -0.317708       0.000000
      2.500000      -0.343750       0.000000
      2.500000       0.000000       0.000000
      2.083333       0.000000       0.000000
      2.500000      -0.687500       0.000000
      2.916667      -0.739583       0.000000
      2.916667      -0.369792       0.000000
      2.500000      -0.343750       0.000000
      2.916667      -0.739583       0.000000
      3.333333      -0.791667       0.000000
      3.333333      -0.395833       0.000000
      2.916667      -0.369792       0.000000
      2.500000      -0.343750       0.000000
      2.916667      -0.369792       0.000000
      2.916667       0.000000       0.000000
      2.500000       0.000000       0.000000
      2.916667      -0.369792       0.000000
      3.333333      -0.395833       0.000000
      3.333333       0.000000       0.000000
      2.916667       0.000000       0.000000
      3.333333      -0.791667       0.000000
      3.750000      -0.843750       0.000000
      3.750000      -0.421875       0.000000
      3.333333      -0.395833       0.000000
      3.750000      -0.843750       0.000000
      4.166667      -0.895833       0.000000
      4.166667      -0.447917       0.000000
      3.750000      -0.421875       0.000000
      3.333333      -0.395833       0.000000
      3.750000      -0.421875       0.000000
      3.750000       0.000000       0.000000
      3.333333       0.000000       0.000000
      3.750000      -0.421875       0.000000
      4.166667      -0.447917       0.000000
      4.166667       0.000000       0.000000
      3.750000       0.000000       0.000000
      4.166667      -0.895833       0.000000
      4.583333      -0.947917       0.000000
      4.583333      -0.473958       0.000000
      4.166667      -0.447917       0.000000
      4.583333      -0.947917       0.000000
      5.000000      -1.000000       0.000000
      5.000000      -0.500000       0.000000
      4.583333      -0.473958       0.000000
      4.166667      -0.447917       0.000000
      4.583333      -0.473958       0.000000
      4.583333       0.000000       0.000000
      4.166667       0.000000       0.000000
      4.583333      -0.473958       0.000000
      5.000000      -0.500000       0.000000
      5.000000       0.000000       0.000000
      4.583333       0.000000       0.000000
      0.833333      -0.479167       0.000000
      1.041667      -0.505208       0.000000
      1.041667      -0.378906       0.000000
      0.833333      -0.359375       0.000000
      1.041667      -0.505208       0.000000
      1.250000      -0.531250       0.000000
      1.250000      -0.398437       0.000000
      1.041667      -0.378906       0.000000
      0.833333      -0.359375       0.000000
      1.041667      -0.378906       0.000000
      1.041667      -0.252604       0.000000
      0.833333      -0.239583       0.000000
      1.041667      -0.378906       0.000000
      1.250000      -0.398437       0.000000
      1.250000      -0.265625       0.000000
      1.041667      -0.252604       0.000000
      1.250000      -0.531250       0.000000
      1.458333      -0.557292       0.000000
      1.458333      -0.417969       0.000000
      1.250000      -0.398437       0.000000
      1.458333      -0.557292       0.000000
      1.666667      -0.583333       0.000000
      1.666667      -0.437500       0.000000
      1.458333      -0.417969       0.000000
      1.250000      -0.398437       0.000000
      1.458333      -0.417969       0.000000
      1.458333      -0.278646       0.000000
      1.250000      -0.265625       0.000000
      1.458333      -0.417969       0.000000
      1.666667      -0.437500       0.000000
      1.666667      -0.291667       0.000000
      1.458333      -0.278646       0.000000
      0.833333      -0.239583       0.000000
      1.041667      -0.252604       0.000000
      1.041667      -0.126302       0.000000
      0.833333      -0.119792       0.000000
      1.041667      -0.252604       0.000000
      1.250000      -0.265625       0.000000
      1.250000      -0.132812       0.000000
      1.041667      -0.126302       0.000000
      0.833333      -0.119792       0.000000
      1.041667      -0.126302       0.000000
      1.041667       0.000000       0.000000
      0.833333       0.000000       0.000000
      1.041667      -0.126302       0.000000
      1.250000      -0.132812       0.000000
      1.250000       0.000000       0.000000
      1.041667       0.000000       0.000000
      1.250000      -0.265625       0.000000
      1.458333      -0.278646       0.000000
      1.458333      -0.139323       0.000000
      1.250000      -0.132812       0.000000
      1.458333      -0.278646       0.000000
      1.666667      -0.291667       0.000000
      1.666667      -0.145833       0.000000
      1.458333      -0.139323       0.000000
      1.250000      -0.132812       0.000000
      1.458333      -0.139323       0.000000
      1.458333       0.000000       0.000000
      1.250000       0.000000       0.000000
      1.458333      -0.139323       0.000000
      1.666667      -0.145833       0.000000
      1.666667       0.000000       0.000000
      1.458333       0.000000       0.000000
      0.000000      -0.375000       0.000000
      0.104167      -0.388021       0.000000
      0.104167      -0.339518       0.000000
      0.000000      -0.328125       0.000000
      0.104167      -0.388021       0.000000
      0.208333      -0.401042       0.000000
      0.208333      -0.350911       0.000000
      0.104167      -0.339518       0.000000
      0.000000      -0.328125       0.000000
      0.104167      -0.339518       0.000000
      0.104167      -0.291016       0.000000
      0.000000      -0.281250       0.000000
      0.104167      -0.339518       0.000000
      0.208333      -0.350911       0.000000
      0.208333      -0.300781       0.000000
      0.104167      -0.291016       0.000000
      0.208333      -0.401042       0.000000
      0.312500      -0.414062       0.000000
      0.312500      -0.362305       0.000000
      0.208333      -0.350911       0.000000
      0.312500      -0.414062       0.000000
      0.416667      -0.427083       0.000000
      0.416667      -0.373698       0.000000
      0.312500      -0.362305       0.000000
      0.208333      -0.350911       0.000000
      0.312500      -0.362305       0.000000
      0.312500      -0.310547       0.000000
      0.208333      -0.300781       0.000000
      0.312500      -0.362305       0.000000
      0.416667      -0.373698       0.000000
      0.416667      -0.320312       0.000000
      0.312500      -0.310547       0.000000
      0.000000      -0.281250       0.000000
      0.104167      -0.291016       0.000000
      0.104167      -0.242513       0.000000
      0.000000      -0.234375       0.000000
      0.104167      -0.291016       0.000000
      0.208333      -0.300781       0.000000
      0.208333      -0.250651       0.000000
      0.104167      -0.242513       0.000000
      0.000000      -0.234375       0.000000
      0.104167      -0.242513       0.000000
      0.104167      -0.194010       0.000000
      0.000000      -0.187500       0.000000
      0.104167      -0.242513       0.000000
      0.208333      -0.250651       0.000000
      0.208333      -0.200521       0.000000
      0.104167      -0.194010       0.000000
      0.208333      -0.300781       0.000000
      0.312500      -0.310547       0.000000
      0.312500      -0.258789       0.000000
      0.208333      -0.250651       0.000000
      0.312500      -0.310547       0.000000
      0.416667      -0.320312       0.000000
      0.416667      -0.266927       0.000000
      0.312500      -0.258789       0.000000
      0.208333      -0.250651       0.000000
      0.312500      -0.258789       0.000000
      0.312500      -0.207031       0.000000
      0.208333      -0.200521       0.000000
      0.312500      -0.258789       0.000000
      0.416667      -0.266927       0.000000
      0.416667      -0.213542       0.000000
      0.312500      -0.207031       0.000000
      0.416667      -0.427083       0.000000
      0.520833      -0.440104       0.000000
      0.520833      -0.385091       0.000000
      0.416667      -0.373698       0.000000
      0.520833      -0.440104       0.000000
      0.625000      -0.453125       0.000000
      0.625000      -0.396484       0.000000
      0.520833      -0.385091       0.000000
      0.416667      -0.373698       0.000000
      0.520833      -0.385091       0.000000
      0.520833      -0.330078       0.000000
      0.416667      -0.320312       0.000000
      0.520833      -0.385091       0.000000
      0.625000      -0.396484       0.000000
      0.625000      -0.339844       0.000000
      0.520833      -0.330078       0.000000
      0.625000      -0.453125       0.000000
      0.729167      -0.466146       0.000000
      0.729167      -0.407878       0.000000
      0.625000      -0.396484       0.000000
      0.729167      -0.466146       0.000000
      0.833333      -0.479167       0.000000
      0.833333      -0.419271       0.000000
      0.729167      -0.407878       0.000000
      0.625000      -0.396484       0.000000
      0.729167      -0.407878       0.000000
      0.729167      -0.349609       0.000000
      0.625000      -0.339844       0.000000
[...]
POINT_DATA   768
VECTORS U float 
      0.158811      -0.000181       0.000000
      0.182830      -0.000178       0.000000
      0.179625      -0.000023       0.000000
      0.155497      -0.000021       0.000000
      0.182830      -0.000178       0.000000
      0.204384      -0.000178       0.000000
      0.201249      -0.000026       0.000000
      0.179625      -0.000023       0.000000
      0.155497      -0.000021       0.000000
      0.179625      -0.000023       0.000000
      0.178541      -0.000000       0.000000
      0.154374      -0.000000       0.000000
      0.179625      -0.000023       0.000000
      0.201249      -0.000026       0.000000
      0.200188      -0.000000       0.000000
      0.178541      -0.000000       0.000000
      0.204384      -0.000178       0.000000
      0.224009      -0.000179       0.000000
      0.220909      -0.000027       0.000000
      0.201249      -0.000026       0.000000
      0.224009      -0.000179       0.000000
      0.242080      -0.000156       0.000000
      0.238970      -0.000010       0.000000
      0.220909      -0.000027       0.000000
      0.201249      -0.000026       0.000000
      0.220909      -0.000027       0.000000
      0.219858      -0.000000       0.000000
      0.200188      -0.000000       0.000000
      0.220909      -0.000027       0.000000
      0.238970      -0.000010       0.000000
      0.237915      -0.000000       0.000000
      0.219858      -0.000000       0.000000
      0.242080      -0.000156       0.000000
      0.258867      -0.000033       0.000000
      0.255691       0.000085       0.000000
      0.238970      -0.000010       0.000000
      0.258867      -0.000033       0.000000
      0.274489       0.000343       0.000000
      0.271277       0.000366       0.000000
      0.255691       0.000085       0.000000
      0.238970      -0.000010       0.000000
      0.255691       0.000085       0.000000
      0.254638      -0.000000       0.000000
      0.237915      -0.000000       0.000000
      0.255691       0.000085       0.000000
      0.271277       0.000366       0.000000
      0.270306       0.000000       0.000000
      0.254638      -0.000000       0.000000
      0.274489       0.000343       0.000000
      0.288728       0.001160       0.000000
      0.285933       0.000908       0.000000
      0.271277       0.000366       0.000000
      0.288728       0.001160       0.000000
      0.300000       0.002325       0.000000
      0.300000       0.001343       0.000000
      0.285933       0.000908       0.000000
      0.271277       0.000366       0.000000
      0.285933       0.000908       0.000000
      0.285289       0.000000       0.000000
      0.270306       0.000000       0.000000
      0.285933       0.000908       0.000000
      0.300000       0.001343       0.000000
      0.300000       0.000000       0.000000
      0.285289       0.000000       0.000000
      0.099216      -0.000236       0.000000
      0.116104      -0.000201       0.000000
      0.113989      -0.000085       0.000000
      0.096970      -0.000114       0.000000
      0.116104      -0.000201       0.000000
      0.131468      -0.000188       0.000000
      0.129440      -0.000078       0.000000
      0.113989      -0.000085       0.000000
      0.096970      -0.000114       0.000000
      0.113989      -0.000085       0.000000
      0.112447      -0.000025       0.000000
      0.095331      -0.000047       0.000000
      0.113989      -0.000085       0.000000
      0.129440      -0.000078       0.000000
      0.127966      -0.000020       0.000000
      0.112447      -0.000025       0.000000
      0.131468      -0.000188       0.000000
      0.145629      -0.000184       0.000000
      0.143662      -0.000076       0.000000
      0.129440      -0.000078       0.000000
      0.145629      -0.000184       0.000000
      0.158811      -0.000181       0.000000
      0.156888      -0.000076       0.000000
      0.143662      -0.000076       0.000000
      0.129440      -0.000078       0.000000
      0.143662      -0.000076       0.000000
      0.142237      -0.000020       0.000000
      0.127966      -0.000020       0.000000
      0.143662      -0.000076       0.000000
      0.156888      -0.000076       0.000000
      0.155497      -0.000021       0.000000
      0.142237      -0.000020       0.000000
      0.095331      -0.000047       0.000000
      0.112447      -0.000025       0.000000
      0.111510      -0.000003       0.000000
      0.094334      -0.000015       0.000000
      0.112447      -0.000025       0.000000
      0.127966      -0.000020       0.000000
      0.127073      -0.000001       0.000000
      0.111510      -0.000003       0.000000
      0.094334      -0.000015       0.000000
      0.111510      -0.000003       0.000000
      0.111196      -0.000000       0.000000
      0.094000      -0.000000       0.000000
      0.111510      -0.000003       0.000000
      0.127073      -0.000001       0.000000
      0.126773      -0.000000       0.000000
      0.111196      -0.000000       0.000000
      0.127966      -0.000020       0.000000
      0.142237      -0.000020       0.000000
      0.141373      -0.000001       0.000000
      0.127073      -0.000001       0.000000
      0.142237      -0.000020       0.000000
      0.155497      -0.000021       0.000000
      0.154656      -0.000002       0.000000
      0.141373      -0.000001       0.000000
      0.127073      -0.000001       0.000000
      0.141373      -0.000001       0.000000
      0.141084      -0.000000       0.000000
      0.126773      -0.000000       0.000000
      0.141373      -0.000001       0.000000
      0.154656      -0.000002       0.000000
      0.154374      -0.000000       0.000000
      0.141084      -0.000000       0.000000
      0.000000       0.000000       0.000000
      0.017711      -0.001017       0.000000
      0.016318      -0.000941       0.000000
      0.000000       0.000000       0.000000
      0.017711      -0.001017       0.000000
      0.032840      -0.000990       0.000000
      0.031284      -0.000908       0.000000
      0.016318      -0.000941       0.000000
      0.000000       0.000000       0.000000
      0.016318      -0.000941       0.000000
      0.015466      -0.000842       0.000000
      0.000000       0.000000       0.000000
      0.016318      -0.000941       0.000000
      0.031284      -0.000908       0.000000
      0.030100      -0.000831       0.000000
      0.015466      -0.000842       0.000000
      0.032840      -0.000990       0.000000
      0.046358      -0.000788       0.000000
      0.044830      -0.000706       0.000000
      0.031284      -0.000908       0.000000
      0.046358      -0.000788       0.000000
      0.058624      -0.000589       0.000000
      0.057172      -0.000510       0.000000
      0.044830      -0.000706       0.000000
      0.031284      -0.000908       0.000000
      0.044830      -0.000706       0.000000
      0.043573      -0.000636       0.000000
      0.030100      -0.000831       0.000000
      0.044830      -0.000706       0.000000
      0.057172      -0.000510       0.000000
      0.055933      -0.000445       0.000000
      0.043573      -0.000636       0.000000
      0.000000       0.000000       0.000000
      0.015466      -0.000842       0.000000
      0.014927      -0.000711       0.000000
      0.000000       0.000000       0.000000
      0.015466      -0.000842       0.000000
      0.030100      -0.000831       0.000000
      0.029224      -0.000737       0.000000
      0.014927      -0.000711       0.000000
      0.000000       0.000000       0.000000
      0.014927      -0.000711       0.000000
      0.014568      -0.000569       0.000000
      0.000000       0.000000       0.000000
      0.014927      -0.000711       0.000000
      0.029224      -0.000737       0.000000
      0.028588      -0.000619       0.000000
      0.014568      -0.000569       0.000000
      0.030100      -0.000831       0.000000
      0.043573      -0.000636       0.000000
      0.042569      -0.000564       0.000000
      0.029224      -0.000737       0.000000
      0.043573      -0.000636       0.000000
      0.055933      -0.000445       0.000000
      0.054906      -0.000385       0.000000
      0.042569      -0.000564       0.000000
      0.029224      -0.000737       0.000000
      0.042569      -0.000564       0.000000
      0.041794      -0.000478       0.000000
      0.028588      -0.000619       0.000000
      0.042569      -0.000564       0.000000
      0.054906      -0.000385       0.000000
      0.054086      -0.000322       0.000000
      0.041794      -0.000478       0.000000
      0.058624      -0.000589       0.000000
      0.069883      -0.000439       0.000000
      0.068510      -0.000363       0.000000
      0.057172      -0.000510       0.000000
      0.069883      -0.000439       0.000000
      0.080314      -0.000338       0.000000
      0.079013      -0.000265       0.000000
      0.068510      -0.000363       0.000000
      0.057172      -0.000510       0.000000
      0.068510      -0.000363       0.000000
      0.067319      -0.000302       0.000000
      0.055933      -0.000445       0.000000
      0.068510      -0.000363       0.000000
      0.079013      -0.000265       0.000000
      0.077873      -0.000207       0.000000
      0.067319      -0.000302       0.000000
      0.080314      -0.000338       0.000000
      0.090056      -0.000275       0.000000
      0.088813      -0.000204       0.000000
      0.079013      -0.000265       0.000000
      0.090056      -0.000275       0.000000
      0.099216      -0.000236       0.000000
      0.098020      -0.000167       0.000000
      0.088813      -0.000204       0.000000
      0.079013      -0.000265       0.000000
      0.088813      -0.000204       0.000000
      0.087722      -0.000148       0.000000
      0.077873      -0.000207       0.000000
      0.088813      -0.000204       0.000000
      0.098020      -0.000167       0.000000
      0.096970      -0.000114       0.000000
      0.087722      -0.000148       0.000000
      0.055933      -0.000445       0.000000
      0.067319      -0.000302       0.000000
      0.066313      -0.000250       0.000000
      0.054906      -0.000385       0.000000
      0.067319      -0.000302       0.000000
      0.077873      -0.000207       0.000000
      0.076903      -0.000161       0.000000
      0.066313      -0.000250       0.000000
      0.054906      -0.000385       0.000000
      0.066313      -0.000250       0.000000
      0.065495      -0.000202       0.000000
      0.054086      -0.000322       0.000000
      0.066313      -0.000250       0.000000
      0.076903      -0.000161       0.000000
      0.076107      -0.000123       0.000000
      0.065495      -0.000202       0.000000
      0.077873      -0.000207       0.000000
      0.087722      -0.000148       0.000000
      0.086790      -0.000106       0.000000
      0.076903      -0.000161       0.000000
      0.087722      -0.000148       0.000000
      0.096970      -0.000114       0.000000
      0.096072      -0.000075       0.000000
      0.086790      -0.000106       0.000000
      0.076903      -0.000161       0.000000
      0.086790      -0.000106       0.000000
      0.086022      -0.000075       0.000000
      0.076107      -0.000123       0.000000
      0.086790      -0.000106       0.000000
      0.096072      -0.000075       0.000000
      0.095331      -0.000047       0.000000
      0.086022      -0.000075       0.000000
      0.000000       0.000000       0.000000
      0.014568      -0.000569       0.000000
      0.014324      -0.000425       0.000000
      0.000000       0.000000       0.000000
      0.014568      -0.000569       0.000000
      0.028588      -0.000619       0.000000
      0.028139      -0.000480       0.000000
      0.014324      -0.000425       0.000000
      0.000000       0.000000       0.000000
      0.014324      -0.000425       0.000000
      0.014165      -0.000282       0.000000
      0.000000       0.000000       0.000000
      0.014324      -0.000425       0.000000
      0.028139      -0.000480       0.000000
      0.027839      -0.000327       0.000000
      0.014165      -0.000282       0.000000
      0.028588      -0.000619       0.000000
      0.041794      -0.000478       0.000000
      0.041221      -0.000376       0.000000
      0.028139      -0.000480       0.000000
      0.041794      -0.000478       0.000000
      0.054086      -0.000322       0.000000
      0.053462      -0.000252       0.000000
      0.041221      -0.000376       0.000000
      0.028139      -0.000480       0.000000
      0.041221      -0.000376       0.000000
      0.040828      -0.000259       0.000000
      0.027839      -0.000327       0.000000
      0.041221      -0.000376       0.000000
      0.053462      -0.000252       0.000000
      0.053025      -0.000173       0.000000
      0.040828      -0.000259       0.000000
      0.000000       0.000000       0.000000
      0.014165      -0.000282       0.000000
      0.014074      -0.000141       0.000000
      0.000000       0.000000       0.000000
      0.014165      -0.000282       0.000000
      0.027839      -0.000327       0.000000
      0.027667      -0.000166       0.000000
      0.014074      -0.000141       0.000000
      0.000000       0.000000       0.000000
      0.014074      -0.000141       0.000000
      0.014044       0.000000       0.000000
      0.000000       0.000000       0.000000
      0.014074      -0.000141       0.000000
      0.027667      -0.000166       0.000000
      0.027611       0.000000       0.000000
      0.014044       0.000000       0.000000
      0.027839      -0.000327       0.000000
      0.040828      -0.000259       0.000000
      0.040599      -0.000132       0.000000
      0.027667      -0.000166       0.000000
      0.040828      -0.000259       0.000000
      0.053025      -0.000173       0.000000
      0.052767      -0.000089       0.000000
      0.040599      -0.000132       0.000000
      0.027667      -0.000166       0.000000
      0.040599      -0.000132       0.000000
      0.040524       0.000000       0.000000
      0.027611       0.000000       0.000000
      0.040599      -0.000132       0.000000
      0.052767      -0.000089       0.000000
      0.052681      -0.000000       0.000000
      0.040524       0.000000       0.000000
      0.054086      -0.000322       0.000000
      0.065495      -0.000202       0.000000
      0.064863      -0.000154       0.000000
      0.053462      -0.000252       0.000000
      0.065495      -0.000202       0.000000
      0.076107      -0.000123       0.000000
      0.075488      -0.000090       0.000000
      0.064863      -0.000154       0.000000
      0.053462      -0.000252       0.000000
      0.064863      -0.000154       0.000000
      0.064415      -0.000105       0.000000
      0.053025      -0.000173       0.000000
      0.064863      -0.000154       0.000000
      0.075488      -0.000090       0.000000
      0.075045      -0.000059       0.000000
      0.064415      -0.000105       0.000000
      0.076107      -0.000123       0.000000
      0.086022      -0.000075       0.000000
      0.085421      -0.000050       0.000000
      0.075488      -0.000090       0.000000
      0.086022      -0.000075       0.000000
      0.095331      -0.000047       0.000000
      0.094750      -0.000028       0.000000
      0.085421      -0.000050       0.000000
      0.075488      -0.000090       0.000000
      0.085421      -0.000050       0.000000
      0.084991      -0.000031       0.000000
      0.075045      -0.000059       0.000000
      0.085421      -0.000050       0.000000
      0.094750      -0.000028       0.000000
      0.094334      -0.000015       0.000000
      0.084991      -0.000031       0.000000
      0.053025      -0.000173       0.000000
      0.064415      -0.000105       0.000000
      0.064148      -0.000053       0.000000
      0.052767      -0.000089       0.000000
      0.064415      -0.000105       0.000000
      0.075045      -0.000059       0.000000
      0.074779      -0.000029       0.000000
      0.064148      -0.000053       0.000000
      0.052767      -0.000089       0.000000
      0.064148      -0.000053       0.000000
      0.064059      -0.000000       0.000000
      0.052681      -0.000000       0.000000
      0.064148      -0.000053       0.000000
      0.074779      -0.000029       0.000000
      0.074691      -0.000000       0.000000
      0.064059      -0.000000       0.000000
      0.075045      -0.000059       0.000000
      0.084991      -0.000031       0.000000
      0.084732      -0.000015       0.000000
      0.074779      -0.000029       0.000000
      0.084991      -0.000031       0.000000
      0.094334      -0.000015       0.000000
      0.094083      -0.000007       0.000000
      0.084732      -0.000015       0.000000
      0.074779      -0.000029       0.000000
      0.084732      -0.000015       0.000000
      0.084646      -0.000000       0.000000
      0.074691      -0.000000       0.000000
      0.084732      -0.000015       0.000000
      0.094083      -0.000007       0.000000
      0.094000      -0.000000       0.000000
      0.084646      -0.000000       0.000000
      0.154374      -0.000000       0.000000
      0.178541      -0.000000       0.000000
      0.179625       0.000023       0.000000
      0.155497       0.000021       0.000000
      0.178541      -0.000000       0.000000
      0.200188      -0.000000       0.000000
      0.201249       0.000026       0.000000
      0.179625       0.000023       0.000000
      0.155497       0.000021       0.000000
      0.179625       0.000023       0.000000
      0.182830       0.000178       0.000000
      0.158811       0.000181       0.000000
      0.179625       0.000023       0.000000
      0.201249       0.000026       0.000000
      0.204384       0.000178       0.000000
      0.182830       0.000178       0.000000
      0.200188      -0.000000       0.000000
      0.219858      -0.000000       0.000000
      0.220909       0.000027       0.000000
      0.201249       0.000026       0.000000
      0.219858      -0.000000       0.000000
      0.237915      -0.000000       0.000000
      0.238970       0.000010       0.000000
      0.220909       0.000027       0.000000
      0.201249       0.000026       0.000000
      0.220909       0.000027       0.000000
      0.224009       0.000179       0.000000
      0.204384       0.000178       0.000000
      0.220909       0.000027       0.000000
      0.238970       0.000010       0.000000
      0.242080       0.000156       0.000000
      0.224009       0.000179       0.000000
      0.237915      -0.000000       0.000000
      0.254638      -0.000000       0.000000
      0.255691      -0.000085       0.000000
      0.238970       0.000010       0.000000
      0.254638      -0.000000       0.000000
      0.270306       0.000000       0.000000
      0.271277      -0.000366       0.000000
      0.255691      -0.000085       0.000000
      0.238970       0.000010       0.000000
      0.255691      -0.000085       0.000000
      0.258867       0.000033       0.000000
      0.242080       0.000156       0.000000
      0.255691      -0.000085       0.000000
      0.271277      -0.000366       0.000000
      0.274489      -0.000343       0.000000
      0.258867       0.000033       0.000000
      0.270306       0.000000       0.000000
      0.285289       0.000000       0.000000
      0.285933      -0.000908       0.000000
      0.271277      -0.000366       0.000000
      0.285289       0.000000       0.000000
      0.300000       0.000000       0.000000
      0.300000      -0.001343       0.000000
      0.285933      -0.000908       0.000000
      0.271277      -0.000366       0.000000
      0.285933      -0.000908       0.000000
      0.288728      -0.001160       0.000000