# vtk DataFile Version 2.0
time_10.vtk
ASCII
DATASET UNSTRUCTURED_GRID
POINTS   768 float
      1.666667      -0.583333       0.000000
      2.083333      -0.635417       0.000000
      2.083333      -0.317708       0.000000
      1.666667      -0.291667       0.000000
      2.083333      -0.635417       0.000000
      2.500000      -0.687500       0.000000
      2.500000      -0.343750       0.000000
      2.083333      -0.317708       0.000000
      1.666667      -0.291667       0.000000
      2.083333      -0.317708       0.000000
      2.083333       0.000000       0.000000
      1.666667       0.000000       0.000000
      2.083333      -0.317708       0.000000
      2.500000      -0.343750       0.000000
      2.500000       0.000000       0.000000
      2.083333       0.000000       0.000000
      2.500000      -0.687500       0.000000
      2.916667      -0.739583       0.000000
      2.916667      -0.369792       0.000000
      2.500000      -0.343750       0.000000
      2.916667      -0.739583       0.000000
      3.333333      -0.791667       0.000000
      3.333333      -0.395833       0.000000
      2.916667      -0.369792       0.000000
      2.500000      -0.343750       0.000000
      2.916667      -0.369792       0.000000
      2.916667       0.000000       0.000000
      2.500000       0.000000       0.000000
      2.916667      -0.369792       0.000000
      3.333333      -0.395833       0.000000
      3.333333       0.000000       0.000000
      2.916667       0.000000       0.000000
      3.333333      -0.791667       0.000000
      3.750000      -0.843750       0.000000
      3.750000      -0.421875       0.000000
      3.333333      -0.395833       0.000000
      3.750000      -0.843750       0.000000
      4.166667      -0.895833       0.000000
      4.166667      -0.447917       0.000000
      3.750000      -0.421875       0.000000
      3.333333      -0.395833       0.000000
      3.750000      -0.421875       0.000000
      3.750000       0.000000       0.000000
      3.333333       0.000000       0.000000
      3.750000      -0.421875       0.000000
      4.166667      -0.447917       0.000000
      4.166667       0.000000       0.000000
      3.750000       0.000000       0.000000
      4.166667      -0.895833       0.000000
      4.583333      -0.947917       0.000000
      4.583333      -0.473958       0.000000
      4.166667      -0.447917       0.000000
      4.583333      -0.947917       0.000000
      5.000000      -1.000000       0.000000
      5.000000      -0.500000       0.000000
      4.583333      -0.473958       0.000000
      4.166667      -0.447917       0.000000
      4.583333      -0.473958       0.000000
      4.583333       0.000000       0.000000
      4.166667       0.000000       0.000000
      4.583333      -0.473958       0.000000
      5.000000      -0.500000       0.000000
      5.000000       0.000000       0.000000
      4.583333       0.000000       0.000000
      0.833333      -0.479167       0.000000
      1.041667      -0.505208       0.000000
      1.041667      -0.378906       0.000000
      0.833333      -0.359375       0.000000
      1.041667      -0.505208       0.000000
      1.250000      -0.531250       0.000000
      1.250000      -0.398437       0.000000
      1.041667      -0.378906       0.000000
      0.833333      -0.359375       0.000000
      1.041667      -0.378906       0.000000
      1.041667      -0.252604       0.000000
      0.833333      -0.239583       0.000000
      1.041667      -0.378906       0.000000
      1.250000      -0.398437       0.000000
      1.250000      -0.265625       0.000000
      1.041667      -0.252604       0.000000
      1.250000      -0.531250       0.000000
      1.458333      -0.557292       0.000000
      1.458333      -0.417969       0.000000
      1.250000      -0.398437       0.000000
      1.458333      -0.557292       0.000000
      1.666667      -0.583333       0.000000
      1.666667      -0.437500       0.000000
      1.458333      -0.417969       0.000000
      1.250000      -0.398437       0.000000
      1.458333      -0.417969       0.000000
      1.458333      -0.278646       0.000000
      1.250000      -0.265625       0.000000
      1.458333      -0.417969       0.000000
      1.666667      -0.437500       0.000000
      1.666667      -0.291667       0.000000
      1.458333      -0.278646       0.000000
      0.833333      -0.239583       0.000000
      1.041667      -0.252604       0.000000
      1.041667      -0.126302       0.000000
      0.833333      -0.119792       0.000000
      1.041667      -0.252604       0.000000
      1.250000      -0.265625       0.000000
      1.250000      -0.132812       0.000000
      1.041667      -0.126302       0.000000
      0.833333      -0.119792       0.000000
      1.041667      -0.126302       0.000000
      1.041667       0.000000       0.000000
      0.833333       0.000000       0.000000
      1.041667      -0.126302       0.000000
      1.250000      -0.132812       0.000000
      1.250000       0.000000       0.000000
      1.041667       0.000000       0.000000
      1.250000      -0.265625       0.000000
      1.458333      -0.278646       0.000000
      1.458333      -0.139323       0.000000
      1.250000      -0.132812       0.000000
      1.458333      -0.278646       0.000000
      1.666667      -0.291667       0.000000
      1.666667      -0.145833       0.000000
      1.458333      -0.139323       0.000000
      1.250000      -0.132812       0.000000
      1.458333      -0.139323       0.000000
      1.458333       0.000000       0.000000
      1.250000       0.000000       0.000000
      1.458333      -0.139323       0.000000
      1.666667      -0.145833       0.000000
      1.666667       0.000000       0.000000
      1.458333       0.000000       0.000000
      0.000000      -0.375000       0.000000
      0.104167      -0.388021       0.000000
      0.104167      -0.339518       0.000000
      0.000000      -0.328125       0.000000
      0.104167      -0.388021       0.000000
      0.208333      -0.401042       0.000000
      0.208333      -0.350911       0.000000
      0.104167      -0.339518       0.000000
      0.000000      -0.328125       0.000000
      0.104167      -0.339518       0.000000
      0.104167      -0.291016       0.000000
      0.000000      -0.281250       0.000000
      0.104167      -0.339518       0.000000
      0.208333      -0.350911       0.000000
      0.208333      -0.300781       0.000000
      0.104167      -0.291016       0.000000
      0.208333      -0.401042       0.000000
      0.312500      -0.414062       0.000000
      0.312500      -0.362305       0.000000
      0.208333      -0.350911       0.000000
      0.312500      -0.414062       0.000000
      0.416667      -0.427083       0.000000
      0.416667      -0.373698       0.000000
      0.312500      -0.362305       0.000000
      0.208333      -0.350911       0.000000
      0.312500      -0.362305       0.000000
      0.312500      -0.310547       0.000000
      0.208333      -0.300781       0.000000
      0.312500      -0.362305       0.000000
      0.416667      -0.373698       0.000000
      0.416667      -0.320312       0.000000
      0.312500      -0.310547       0.000000
      0.000000      -0.281250       0.000000
      0.104167      -0.291016       0.000000
      0.104167      -0.242513       0.000000
      0.000000      -0.234375       0.000000
      0.104167      -0.291016       0.000000
      0.208333      -0.300781       0.000000
      0.208333      -0.250651       0.000000
      0.104167      -0.242513       0.000000
      0.000000      -0.234375       0.000000
      0.104167      -0.242513       0.000000
      0.104167      -0.194010       0.000000
      0.000000      -0.187500       0.000000
      0.104167      -0.242513       0.000000
      0.208333      -0.250651       0.000000
      0.208333      -0.200521       0.000000
      0.104167      -0.194010       0.000000
      0.208333      -0.300781       0.000000
      0.312500      -0.310547       0.000000
      0.312500      -0.258789       0.000000
      0.208333      -0.250651       0.000000
      0.312500      -0.310547       0.000000
      0.416667      -0.320312       0.000000
      0.416667      -0.266927       0.000000
      0.312500      -0.258789       0.000000
      0.208333      -0.250651       0.000000
      0.312500      -0.258789       0.000000
      0.312500      -0.207031       0.000000
      0.208333      -0.200521       0.000000
      0.312500      -0.258789       0.000000
      0.416667      -0.266927       0.000000
      0.416667      -0.213542       0.000000
      0.312500      -0.207031       0.000000
      0.416667      -0.427083       0.000000
      0.520833      -0.440104       0.000000
      0.520833      -0.385091       0.000000
      0.416667      -0.373698       0.000000
      0.520833      -0.440104       0.000000
      0.625000      -0.453125       0.000000
      0.625000      -0.396484       0.000000
      0.520833      -0.385091       0.000000
      0.416667      -0.373698       0.000000
      0.520833      -0.385091       0.000000
      0.520833      -0.330078       0.000000
      0.416667      -0.320312       0.000000
      0.520833      -0.385091       0.000000
      0.625000      -0.396484       0.000000
      0.625000      -0.339844       0.000000
      0.520833      -0.330078       0.000000
      0.625000      -0.453125       0.000000
      0.729167      -0.466146       0.000000
      0.729167      -0.407878       0.000000
      0.625000      -0.396484       0.000000
      0.729167      -0.466146       0.000000
      0.833333      -0.479167       0.000000
      0.833333      -0.419271       0.000000
      0.729167      -0.407878       0.000000
      0.625000      -0.396484       0.000000
      0.729167      -0.407878       0.000000
      0.729167      -0.349609       0.000000
      0.625000      -0.339844       0.000000
[...]
POINT_DATA   768
VECTORS U float 
      0.124737      -0.000158       0.000000
      0.145763      -0.000157       0.000000
      0.142947      -0.000020       0.000000
      0.121857      -0.000019       0.000000
      0.145763      -0.000157       0.000000
      0.164777      -0.000158       0.000000
      0.162005      -0.000023       0.000000
      0.142947      -0.000020       0.000000
      0.121857      -0.000019       0.000000
      0.142947      -0.000020       0.000000
      0.141996       0.000000       0.000000
      0.120883       0.000000       0.000000
      0.142947      -0.000020       0.000000
      0.162005      -0.000023       0.000000
      0.161067       0.000000       0.000000
      0.141996       0.000000       0.000000
      0.164777      -0.000158       0.000000
      0.182174      -0.000159       0.000000
      0.179422      -0.000024       0.000000
      0.162005      -0.000023       0.000000
      0.182174      -0.000159       0.000000
      0.198248      -0.000138       0.000000
      0.195479      -0.000008       0.000000
      0.179422      -0.000024       0.000000
      0.162005      -0.000023       0.000000
      0.179422      -0.000024       0.000000
      0.178489       0.000000       0.000000
      0.161067       0.000000       0.000000
      0.179422      -0.000024       0.000000
      0.195479      -0.000008       0.000000
      0.194541       0.000000       0.000000
      0.178489       0.000000       0.000000
      0.198248      -0.000138       0.000000
      0.213215      -0.000028       0.000000
      0.210383       0.000077       0.000000
      0.195479      -0.000008       0.000000
      0.213215      -0.000028       0.000000
      0.227168       0.000308       0.000000
      0.224303       0.000327       0.000000
      0.210383       0.000077       0.000000
      0.195479      -0.000008       0.000000
      0.210383       0.000077       0.000000
      0.209445       0.000000       0.000000
      0.194541       0.000000       0.000000
      0.210383       0.000077       0.000000
      0.224303       0.000327       0.000000
      0.223438       0.000000       0.000000
      0.209445       0.000000       0.000000
      0.227168       0.000308       0.000000
      0.239905       0.001036       0.000000
      0.237409       0.000811       0.000000
      0.224303       0.000327       0.000000
      0.239905       0.001036       0.000000
      0.250000       0.002076       0.000000
      0.250000       0.001198       0.000000
      0.237409       0.000811       0.000000
      0.224303       0.000327       0.000000
      0.237409       0.000811       0.000000
      0.236836       0.000000       0.000000
      0.223438       0.000000       0.000000
      0.237409       0.000811       0.000000
      0.250000       0.001198       0.000000
      0.250000       0.000000       0.000000
      0.236836       0.000000       0.000000
      0.074056      -0.000196       0.000000
      0.088102      -0.000171       0.000000
      0.086329      -0.000074       0.000000
      0.072222      -0.000097       0.000000
      0.088102      -0.000171       0.000000
      0.101132      -0.000163       0.000000
      0.099402      -0.000068       0.000000
      0.086329      -0.000074       0.000000
      0.072222      -0.000097       0.000000
      0.086329      -0.000074       0.000000
      0.085043      -0.000023       0.000000
      0.070892      -0.000042       0.000000
      0.086329      -0.000074       0.000000
      0.099402      -0.000068       0.000000
      0.098150      -0.000019       0.000000
      0.085043      -0.000023       0.000000
      0.101132      -0.000163       0.000000
      0.113303      -0.000160       0.000000
      0.111605      -0.000067       0.000000
      0.099402      -0.000068       0.000000
      0.113303      -0.000160       0.000000
      0.124737      -0.000158       0.000000
      0.123065      -0.000067       0.000000
      0.111605      -0.000067       0.000000
      0.099402      -0.000068       0.000000
      0.111605      -0.000067       0.000000
      0.110378      -0.000019       0.000000
      0.098150      -0.000019       0.000000
      0.111605      -0.000067       0.000000
      0.123065      -0.000067       0.000000
      0.121857      -0.000019       0.000000
      0.110378      -0.000019       0.000000
      0.070892      -0.000042       0.000000
      0.085043      -0.000023       0.000000
      0.084263      -0.000004       0.000000
      0.070087      -0.000014       0.000000
      0.085043      -0.000023       0.000000
      0.098150      -0.000019       0.000000
      0.097391      -0.000002       0.000000
      0.084263      -0.000004       0.000000
      0.070087      -0.000014       0.000000
      0.084263      -0.000004       0.000000
      0.084002       0.000000       0.000000
      0.069819       0.000000       0.000000
      0.084263      -0.000004       0.000000
      0.097391      -0.000002       0.000000
      0.097137       0.000000       0.000000
      0.084002       0.000000       0.000000
      0.098150      -0.000019       0.000000
      0.110378      -0.000019       0.000000
      0.109636      -0.000001       0.000000
      0.097391      -0.000002       0.000000
      0.110378      -0.000019       0.000000
      0.121857      -0.000019       0.000000
      0.121127      -0.000002       0.000000
      0.109636      -0.000001       0.000000
      0.097391      -0.000002       0.000000
      0.109636      -0.000001       0.000000
      0.109388       0.000000       0.000000
      0.097137       0.000000       0.000000
      0.109636      -0.000001       0.000000
      0.121127      -0.000002       0.000000
      0.120883       0.000000       0.000000
      0.109388       0.000000       0.000000
      0.000000       0.000000       0.000000
      0.012282      -0.000705       0.000000
      0.011314      -0.000652       0.000000
      0.000000       0.000000       0.000000
      0.012282      -0.000705       0.000000
      0.022975      -0.000699       0.000000
      0.021871      -0.000640       0.000000
      0.011314      -0.000652       0.000000
      0.000000       0.000000       0.000000
      0.011314      -0.000652       0.000000
      0.010726      -0.000583       0.000000
      0.000000       0.000000       0.000000
      0.011314      -0.000652       0.000000
      0.021871      -0.000640       0.000000
      0.021037      -0.000586       0.000000
      0.010726      -0.000583       0.000000
      0.022975      -0.000699       0.000000
      0.032790      -0.000570       0.000000
      0.031676      -0.000510       0.000000
      0.021871      -0.000640       0.000000
      0.032790      -0.000570       0.000000
      0.041951      -0.000439       0.000000
      0.040863      -0.000379       0.000000
      0.031676      -0.000510       0.000000
      0.021871      -0.000640       0.000000
      0.031676      -0.000510       0.000000
      0.030766      -0.000459       0.000000
      0.021037      -0.000586       0.000000
      0.031676      -0.000510       0.000000
      0.040863      -0.000379       0.000000
      0.039940      -0.000331       0.000000
      0.030766      -0.000459       0.000000
      0.000000       0.000000       0.000000
      0.010726      -0.000583       0.000000
      0.010359      -0.000492       0.000000
      0.000000       0.000000       0.000000
      0.010726      -0.000583       0.000000
      0.021037      -0.000586       0.000000
      0.020426      -0.000519       0.000000
      0.010359      -0.000492       0.000000
      0.000000       0.000000       0.000000
      0.010359      -0.000492       0.000000
      0.010117      -0.000393       0.000000
      0.000000       0.000000       0.000000
      0.010359      -0.000492       0.000000
      0.020426      -0.000519       0.000000
      0.019987      -0.000436       0.000000
      0.010117      -0.000393       0.000000
      0.021037      -0.000586       0.000000
      0.030766      -0.000459       0.000000
      0.030046      -0.000407       0.000000
      0.020426      -0.000519       0.000000
      0.030766      -0.000459       0.000000
      0.039940      -0.000331       0.000000
      0.039180      -0.000287       0.000000
      0.030046      -0.000407       0.000000
      0.020426      -0.000519       0.000000
      0.030046      -0.000407       0.000000
      0.029494      -0.000345       0.000000
      0.019987      -0.000436       0.000000
      0.030046      -0.000407       0.000000
      0.039180      -0.000287       0.000000
      0.038578      -0.000240       0.000000
      0.029494      -0.000345       0.000000
      0.041951      -0.000439       0.000000
      0.050587      -0.000338       0.000000
      0.049531      -0.000279       0.000000
      0.040863      -0.000379       0.000000
      0.050587      -0.000338       0.000000
      0.058780      -0.000268       0.000000
      0.057754      -0.000210       0.000000
      0.049531      -0.000279       0.000000
      0.040863      -0.000379       0.000000
      0.049531      -0.000279       0.000000
      0.048618      -0.000232       0.000000
      0.039940      -0.000331       0.000000
      0.049531      -0.000279       0.000000
      0.057754      -0.000210       0.000000
      0.056860      -0.000165       0.000000
      0.048618      -0.000232       0.000000
      0.058780      -0.000268       0.000000
      0.066589      -0.000224       0.000000
      0.065588      -0.000166       0.000000
      0.057754      -0.000210       0.000000
      0.066589      -0.000224       0.000000
      0.074056      -0.000196       0.000000
      0.073078      -0.000140       0.000000
      0.065588      -0.000166       0.000000
      0.057754      -0.000210       0.000000
      0.065588      -0.000166       0.000000
      0.064714      -0.000122       0.000000
      0.056860      -0.000165       0.000000
      0.065588      -0.000166       0.000000
      0.073078      -0.000140       0.000000
      0.072222      -0.000097       0.000000
      0.064714      -0.000122       0.000000
      0.039940      -0.000331       0.000000
      0.048618      -0.000232       0.000000
      0.047853      -0.000193       0.000000
      0.039180      -0.000287       0.000000
      0.048618      -0.000232       0.000000
      0.056860      -0.000165       0.000000
      0.056104      -0.000129       0.000000
      0.047853      -0.000193       0.000000
      0.039180      -0.000287       0.000000
      0.047853      -0.000193       0.000000
      0.047235      -0.000156       0.000000
      0.038578      -0.000240       0.000000
      0.047853      -0.000193       0.000000
      0.056104      -0.000129       0.000000
      0.055486      -0.000099       0.000000
      0.047235      -0.000156       0.000000
      0.056860      -0.000165       0.000000
      0.064714      -0.000122       0.000000
      0.063971      -0.000089       0.000000
      0.056104      -0.000129       0.000000
      0.064714      -0.000122       0.000000
      0.072222      -0.000097       0.000000
      0.071492      -0.000065       0.000000
      0.063971      -0.000089       0.000000
      0.056104      -0.000129       0.000000
      0.063971      -0.000089       0.000000
      0.063361      -0.000063       0.000000
      0.055486      -0.000099       0.000000
      0.063971      -0.000089       0.000000
      0.071492      -0.000065       0.000000
      0.070892      -0.000042       0.000000
      0.063361      -0.000063       0.000000
      0.000000       0.000000       0.000000
      0.010117      -0.000393       0.000000
      0.009954      -0.000294       0.000000
      0.000000       0.000000       0.000000
      0.010117      -0.000393       0.000000
      0.019987      -0.000436       0.000000
      0.019679      -0.000338       0.000000
      0.009954      -0.000294       0.000000
      0.000000       0.000000       0.000000
      0.009954      -0.000294       0.000000
      0.009848      -0.000195       0.000000
      0.000000       0.000000       0.000000
      0.009954      -0.000294       0.000000
      0.019679      -0.000338       0.000000
      0.019475      -0.000230       0.000000
      0.009848      -0.000195       0.000000
      0.019987      -0.000436       0.000000
      0.029494      -0.000345       0.000000
      0.029089      -0.000272       0.000000
      0.019679      -0.000338       0.000000
      0.029494      -0.000345       0.000000
      0.038578      -0.000240       0.000000
      0.038123      -0.000188       0.000000
      0.029089      -0.000272       0.000000
      0.019679      -0.000338       0.000000
      0.029089      -0.000272       0.000000
      0.028814      -0.000188       0.000000
      0.019475      -0.000230       0.000000
      0.029089      -0.000272       0.000000
      0.038123      -0.000188       0.000000
      0.037806      -0.000130       0.000000
      0.028814      -0.000188       0.000000
      0.000000       0.000000       0.000000
      0.009848      -0.000195       0.000000
      0.009788      -0.000097       0.000000
      0.000000       0.000000       0.000000
      0.009848      -0.000195       0.000000
      0.019475      -0.000230       0.000000
      0.019358      -0.000117       0.000000
      0.009788      -0.000097       0.000000
      0.000000       0.000000       0.000000
      0.009788      -0.000097       0.000000
      0.009768       0.000000       0.000000
      0.000000       0.000000       0.000000
      0.009788      -0.000097       0.000000
      0.019358      -0.000117       0.000000
      0.019320       0.000000       0.000000
      0.009768       0.000000       0.000000
      0.019475      -0.000230       0.000000
      0.028814      -0.000188       0.000000
      0.028653      -0.000096       0.000000
      0.019358      -0.000117       0.000000
      0.028814      -0.000188       0.000000
      0.037806      -0.000130       0.000000
      0.037619      -0.000066       0.000000
      0.028653      -0.000096       0.000000
      0.019358      -0.000117       0.000000
      0.028653      -0.000096       0.000000
      0.028601       0.000000       0.000000
      0.019320       0.000000       0.000000
      0.028653      -0.000096       0.000000
      0.037619      -0.000066       0.000000
      0.037558       0.000000       0.000000
      0.028601       0.000000       0.000000
      0.038578      -0.000240       0.000000
      0.047235      -0.000156       0.000000
      0.046760      -0.000120       0.000000
      0.038123      -0.000188       0.000000
      0.047235      -0.000156       0.000000
      0.055486      -0.000099       0.000000
      0.055006      -0.000073       0.000000
      0.046760      -0.000120       0.000000
      0.038123      -0.000188       0.000000
      0.046760      -0.000120       0.000000
      0.046424      -0.000081       0.000000
      0.037806      -0.000130       0.000000
      0.046760      -0.000120       0.000000
      0.055006      -0.000073       0.000000
      0.054665      -0.000048       0.000000
      0.046424      -0.000081       0.000000
      0.055486      -0.000099       0.000000
      0.063361      -0.000063       0.000000
      0.062885      -0.000043       0.000000
      0.055006      -0.000073       0.000000
      0.063361      -0.000063       0.000000
      0.070892      -0.000042       0.000000
      0.070423      -0.000026       0.000000
      0.062885      -0.000043       0.000000
      0.055006      -0.000073       0.000000
      0.062885      -0.000043       0.000000
      0.062545      -0.000027       0.000000
      0.054665      -0.000048       0.000000
      0.062885      -0.000043       0.000000
      0.070423      -0.000026       0.000000
      0.070087      -0.000014       0.000000
      0.062545      -0.000027       0.000000
      0.037806      -0.000130       0.000000
      0.046424      -0.000081       0.000000
      0.046224      -0.000041       0.000000
      0.037619      -0.000066       0.000000
      0.046424      -0.000081       0.000000
      0.054665      -0.000048       0.000000
      0.054461      -0.000024       0.000000
      0.046224      -0.000041       0.000000
      0.037619      -0.000066       0.000000
      0.046224      -0.000041       0.000000
      0.046158       0.000000       0.000000
      0.037558       0.000000       0.000000
      0.046224      -0.000041       0.000000
      0.054461      -0.000024       0.000000
      0.054393       0.000000       0.000000
      0.046158       0.000000       0.000000
      0.054665      -0.000048       0.000000
      0.062545      -0.000027       0.000000
      0.062341      -0.000013       0.000000
      0.054461      -0.000024       0.000000
      0.062545      -0.000027       0.000000
      0.070087      -0.000014       0.000000
      0.069886      -0.000006       0.000000
      0.062341      -0.000013       0.000000
      0.054461      -0.000024       0.000000
      0.062341      -0.000013       0.000000
      0.062273       0.000000       0.000000
      0.054393       0.000000       0.000000
      0.062341      -0.000013       0.000000
      0.069886      -0.000006       0.000000
      0.069819       0.000000       0.000000
      0.062273       0.000000       0.000000
      0.120883       0.000000       0.000000
      0.141996       0.000000       0.000000
      0.142947       0.000020       0.000000
      0.121857       0.000019       0.000000
      0.141996       0.000000       0.000000
      0.161067       0.000000       0.000000
      0.162005       0.000023       0.000000
      0.142947       0.000020       0.000000
      0.121857       0.000019       0.000000
      0.142947       0.000020       0.000000
      0.145763       0.000157       0.000000
      0.124737       0.000158       0.000000
      0.142947       0.000020       0.000000
      0.162005       0.000023       0.000000
      0.164777       0.000158       0.000000
      0.145763       0.000157       0.000000
      0.161067       0.000000       0.000000
      0.178489       0.000000       0.000000
      0.179422       0.000024       0.000000
      0.162005       0.000023       0.000000
      0.178489       0.000000       0.000000
      0.194541       0.000000       0.000000
      0.195479       0.000008       0.000000
      0.179422       0.000024       0.000000
      0.162005       0.000023       0.000000
      0.179422       0.000024       0.000000
      0.182174       0.000159       0.000000
      0.164777       0.000158       0.000000
      0.179422       0.000024       0.000000
      0.195479       0.000008       0.000000
      0.198248       0.000138       0.000000
      0.182174       0.000159       0.000000
      0.194541       0.000000       0.000000
      0.209445       0.000000       0.000000
      0.210383      -0.000077       0.000000
      0.195479       0.000008       0.000000
      0.209445       0.000000       0.000000
      0.223438       0.000000       0.000000
      0.224303      -0.000327       0.000000
      0.210383      -0.000077       0.000000
      0.195479       0.000008       0.000000
      0.210383      -0.000077       0.000000
      0.213215       0.000028       0.000000
      0.198248       0.000138       0.000000
      0.210383      -0.000077       0.000000
      0.224303      -0.000327       0.000000
      0.227168      -0.000308       0.000000
      0.213215       0.000028       0.000000
      0.223438       0.000000       0.000000
      0.236836       0.000000       0.000000
      0.237409      -0.000811       0.000000
      0.224303      -0.000327       0.000000
      0.236836       0.000000       0.000000
      0.250000       0.000000       0.000000
      0.250000      -0.001198       0.000000
      0.237409      -0.000811       0.000000
      0.224303      -0.000327       0.000000
      0.237409      -0.000811       0.000000
      0.239905      -0.001036       0.000000