# vtk DataFile Version 2.0
time_10.vtk
ASCII
DATASET UNSTRUCTURED_GRID
POINTS  1536 float
      1.666667      -0.583333       0.000000
      2.083333      -0.635417       0.000000
      2.083333      -0.317708       0.000000
      1.666667      -0.291667       0.000000
      2.083333      -0.635417       0.000000
      2.500000      -0.687500       0.000000
      2.500000      -0.343750       0.000000
      2.083333      -0.317708       0.000000
      1.666667      -0.291667       0.000000
      2.083333      -0.317708       0.000000
      2.083333       0.000000       0.000000
      1.666667       0.000000       0.000000
      2.083333      -0.317708       0.000000
      2.500000      -0.343750       0.000000
      2.500000       0.000000       0.000000
      2.083333       0.000000       0.000000
      2.500000      -0.687500       0.000000
      2.916667      -0.739583       0.000000
      2.916667      -0.369792       0.000000
      2.500000      -0.343750       0.000000
      2.916667      -0.739583       0.000000
      3.333333      -0.791667       0.000000
      3.333333      -0.395833       0.000000
      2.916667      -0.369792       0.000000
      2.500000      -0.343750       0.000000
      2.916667      -0.369792       0.000000
      2.916667       0.000000       0.000000
      2.500000       0.000000       0.000000
      2.916667      -0.369792       0.000000
      3.333333      -0.395833       0.000000
      3.333333       0.000000       0.000000
      2.916667       0.000000       0.000000
      3.333333      -0.791667       0.000000
      3.750000      -0.843750       0.000000
      3.750000      -0.421875       0.000000
      3.333333      -0.395833       0.000000
      3.750000      -0.843750       0.000000
      4.166667      -0.895833       0.000000
      4.166667      -0.447917       0.000000
      3.750000      -0.421875       0.000000
      3.333333      -0.395833       0.000000
      3.750000      -0.421875       0.000000
      3.750000       0.000000       0.000000
      3.333333       0.000000       0.000000
      3.750000      -0.421875       0.000000
      4.166667      -0.447917       0.000000
      4.166667       0.000000       0.000000
      3.750000       0.000000       0.000000
      4.166667      -0.895833       0.000000
      4.583333      -0.947917       0.000000
      4.583333      -0.473958       0.000000
      4.166667      -0.447917       0.000000
      4.583333      -0.947917       0.000000
      5.000000      -1.000000       0.000000
      5.000000      -0.500000       0.000000
      4.583333      -0.473958       0.000000
      4.166667      -0.447917       0.000000
      4.583333      -0.473958       0.000000
      4.583333       0.000000       0.000000
      4.166667       0.000000       0.000000
      4.583333      -0.473958       0.000000
      5.000000      -0.500000       0.000000
      5.000000       0.000000       0.000000
      4.583333       0.000000       0.000000
      0.833333      -0.479167       0.000000
      1.041667      -0.505208       0.000000
      1.041667      -0.378906       0.000000
      0.833333      -0.359375       0.000000
      1.041667      -0.505208       0.000000
      1.250000      -0.531250       0.000000
      1.250000      -0.398437       0.000000
      1.041667      -0.378906       0.000000
      0.833333      -0.359375       0.000000
      1.041667      -0.378906       0.000000
      1.041667      -0.252604       0.000000
      0.833333      -0.239583       0.000000
      1.041667      -0.378906       0.000000
      1.250000      -0.398437       0.000000
      1.250000      -0.265625       0.000000
      1.041667      -0.252604       0.000000
      1.250000      -0.531250       0.000000
      1.458333      -0.557292       0.000000
      1.458333      -0.417969       0.000000
      1.250000      -0.398437       0.000000
      1.458333      -0.557292       0.000000
      1.666667      -0.583333       0.000000
      1.666667      -0.437500       0.000000
      1.458333      -0.417969       0.000000
      1.250000      -0.398437       0.000000
      1.458333      -0.417969       0.000000
      1.458333      -0.278646       0.000000
      1.250000      -0.265625       0.000000
      1.458333      -0.417969       0.000000
      1.666667      -0.437500       0.000000
      1.666667      -0.291667       0.000000
      1.458333      -0.278646       0.000000
      0.833333      -0.239583       0.000000
      1.041667      -0.252604       0.000000
      1.041667      -0.126302       0.000000
      0.833333      -0.119792       0.000000
      1.041667      -0.252604       0.000000
      1.250000      -0.265625       0.000000
      1.250000      -0.132812       0.000000
      1.041667      -0.126302       0.000000
      0.833333      -0.119792       0.000000
      1.041667      -0.126302       0.000000
      1.041667       0.000000       0.000000
      0.833333       0.000000       0.000000
      1.041667      -0.126302       0.000000
      1.250000      -0.132812       0.000000
      1.250000       0.000000       0.000000
      1.041667       0.000000       0.000000
      1.250000      -0.265625       0.000000
      1.458333      -0.278646       0.000000
      1.458333      -0.139323       0.000000
      1.250000      -0.132812       0.000000
      1.458333      -0.278646       0.000000
      1.666667      -0.291667       0.000000
      1.666667      -0.145833       0.000000
      1.458333      -0.139323       0.000000
      1.250000      -0.132812       0.000000
      1.458333      -0.139323       0.000000
      1.458333       0.000000       0.000000
      1.250000       0.000000       0.000000
      1.458333      -0.139323       0.000000
      1.666667      -0.145833       0.000000
      1.666667       0.000000       0.000000
      1.458333       0.000000       0.000000
      0.416667      -0.427083       0.000000
      0.520833      -0.440104       0.000000
      0.520833      -0.385091       0.000000
      0.416667      -0.373698       0.000000
      0.520833      -0.440104       0.000000
      0.625000      -0.453125       0.000000
      0.625000      -0.396484       0.000000
      0.520833      -0.385091       0.000000
      0.416667      -0.373698       0.000000
      0.520833      -0.385091       0.000000
      0.520833      -0.330078       0.000000
      0.416667      -0.320312       0.000000
      0.520833      -0.385091       0.000000
      0.625000      -0.396484       0.000000
      0.625000      -0.339844       0.000000
      0.520833      -0.330078       0.000000
      0.625000      -0.453125       0.000000
      0.729167      -0.466146       0.000000
      0.729167      -0.407878       0.000000
      0.625000      -0.396484       0.000000
      0.729167      -0.466146       0.000000
      0.833333      -0.479167       0.000000
      0.833333      -0.419271       0.000000
      0.729167      -0.407878       0.000000
      0.625000      -0.396484       0.000000
      0.729167      -0.407878       0.000000
      0.729167      -0.349609       0.000000
      0.625000      -0.339844       0.000000
      0.729167      -0.407878       0.000000
      0.833333      -0.419271       0.000000
      0.833333      -0.359375       0.000000
      0.729167      -0.349609       0.000000
      0.416667      -0.320312       0.000000
      0.520833      -0.330078       0.000000
      0.520833      -0.275065       0.000000
      0.416667      -0.266927       0.000000
      0.520833      -0.330078       0.000000
      0.625000      -0.339844       0.000000
      0.625000      -0.283203       0.000000
      0.520833      -0.275065       0.000000
      0.416667      -0.266927       0.000000
      0.520833      -0.275065       0.000000
      0.520833      -0.220052       0.000000
      0.416667      -0.213542       0.000000
      0.520833      -0.275065       0.000000
      0.625000      -0.283203       0.000000
      0.625000      -0.226562       0.000000
      0.520833      -0.220052       0.000000
      0.625000      -0.339844       0.000000
      0.729167      -0.349609       0.000000
      0.729167      -0.291341       0.000000
      0.625000      -0.283203       0.000000
      0.729167      -0.349609       0.000000
      0.833333      -0.359375       0.000000
      0.833333      -0.299479       0.000000
      0.729167      -0.291341       0.000000
      0.625000      -0.283203       0.000000
      0.729167      -0.291341       0.000000
      0.729167      -0.233073       0.000000
      0.625000      -0.226562       0.000000
      0.729167      -0.291341       0.000000
      0.833333      -0.299479       0.000000
      0.833333      -0.239583       0.000000
      0.729167      -0.233073       0.000000
      0.416667      -0.213542       0.000000
      0.520833      -0.220052       0.000000
      0.520833      -0.165039       0.000000
      0.416667      -0.160156       0.000000
      0.520833      -0.220052       0.000000
      0.625000      -0.226562       0.000000
      0.625000      -0.169922       0.000000
      0.520833      -0.165039       0.000000
      0.416667      -0.160156       0.000000
      0.520833      -0.165039       0.000000
      0.520833      -0.110026       0.000000
      0.416667      -0.106771       0.000000
      0.520833      -0.165039       0.000000
      0.625000      -0.169922       0.000000
      0.625000      -0.113281       0.000000
      0.520833      -0.110026       0.000000
      0.625000      -0.226562       0.000000
      0.729167      -0.233073       0.000000
      0.729167      -0.174805       0.000000
      0.625000      -0.169922       0.000000
      0.729167      -0.233073       0.000000
      0.833333      -0.239583       0.000000
      0.833333      -0.179687       0.000000
      0.729167      -0.174805       0.000000
      0.625000      -0.169922       0.000000
      0.729167      -0.174805       0.000000
      0.729167      -0.116536       0.000000
      0.625000      -0.113281       0.000000
[...]
POINT_DATA  1536
VECTORS U float 
      0.273456      -0.000051       0.000000
      0.280991      -0.000056       0.000000
      0.279981      -0.000007       0.000000
      0.272432      -0.000002       0.000000
      0.280991      -0.000056       0.000000
      0.287850      -0.000057       0.000000
      0.286848      -0.000008       0.000000
      0.279981      -0.000007       0.000000
      0.272432      -0.000002       0.000000
      0.279981      -0.000007       0.000000
      0.279640       0.000000       0.000000
      0.272085       0.000000       0.000000
      0.279981      -0.000007       0.000000
      0.286848      -0.000008       0.000000
      0.286510       0.000000       0.000000
      0.279640       0.000000       0.000000
      0.287850      -0.000057       0.000000
      0.294162      -0.000058       0.000000
      0.293161      -0.000009       0.000000
      0.286848      -0.000008       0.000000
      0.294162      -0.000058       0.000000
      0.300019      -0.000050       0.000000
      0.299009      -0.000002       0.000000
      0.293161      -0.000009       0.000000
      0.286848      -0.000008       0.000000
      0.293161      -0.000009       0.000000
      0.292823       0.000000       0.000000
      0.286510       0.000000       0.000000
      0.293161      -0.000009       0.000000
      0.299009      -0.000002       0.000000
      0.298667       0.000000       0.000000
      0.292823       0.000000       0.000000
      0.300019      -0.000050       0.000000
      0.305491      -0.000009       0.000000
      0.304456       0.000029       0.000000
      0.299009      -0.000002       0.000000
      0.305491      -0.000009       0.000000
      0.310606       0.000113       0.000000
      0.309557       0.000120       0.000000
      0.304456       0.000029       0.000000
      0.299009      -0.000002       0.000000
      0.304456       0.000029       0.000000
      0.304113       0.000000       0.000000
      0.298667       0.000000       0.000000
      0.304456       0.000029       0.000000
      0.309557       0.000120       0.000000
      0.309242       0.000000       0.000000
      0.304113       0.000000       0.000000
      0.310606       0.000113       0.000000
      0.315284       0.000379       0.000000
      0.314370       0.000297       0.000000
      0.309557       0.000120       0.000000
      0.315284       0.000379       0.000000
      0.319000       0.000761       0.000000
      0.319000       0.000438       0.000000
      0.314370       0.000297       0.000000
      0.309557       0.000120       0.000000
      0.314370       0.000297       0.000000
      0.314162       0.000000       0.000000
      0.309242       0.000000       0.000000
      0.314370       0.000297       0.000000
      0.319000       0.000438       0.000000
      0.319000       0.000000       0.000000
      0.314162       0.000000       0.000000
      0.255173       0.000043       0.000000
      0.260340       0.000007       0.000000
      0.259699       0.000042       0.000000
      0.254440       0.000083       0.000000
      0.260340       0.000007       0.000000
      0.265026      -0.000025       0.000000
      0.264415       0.000009       0.000000
      0.259699       0.000042       0.000000
      0.254440       0.000083       0.000000
      0.259699       0.000042       0.000000
      0.259197       0.000052       0.000000
      0.253812       0.000091       0.000000
      0.259699       0.000042       0.000000
      0.264415       0.000009       0.000000
      0.263960       0.000022       0.000000
      0.259197       0.000052       0.000000
      0.265026      -0.000025       0.000000
      0.269373      -0.000043       0.000000
      0.268774      -0.000010       0.000000
      0.264415       0.000009       0.000000
      0.269373      -0.000043       0.000000
      0.273456      -0.000051       0.000000
      0.272862      -0.000018       0.000000
      0.268774      -0.000010       0.000000
      0.264415       0.000009       0.000000
      0.268774      -0.000010       0.000000
      0.268337       0.000006       0.000000
      0.263960       0.000022       0.000000
      0.268774      -0.000010       0.000000
      0.272862      -0.000018       0.000000
      0.272432      -0.000002       0.000000
      0.268337       0.000006       0.000000
      0.253812       0.000091       0.000000
      0.259197       0.000052       0.000000
      0.258873       0.000035       0.000000
      0.253382       0.000059       0.000000
      0.259197       0.000052       0.000000
      0.263960       0.000022       0.000000
      0.263677       0.000017       0.000000
      0.258873       0.000035       0.000000
      0.253382       0.000059       0.000000
      0.258873       0.000035       0.000000
      0.258760       0.000000       0.000000
      0.253229       0.000000       0.000000
      0.258873       0.000035       0.000000
      0.263677       0.000017       0.000000
      0.263581       0.000000       0.000000
      0.258760       0.000000       0.000000
      0.263960       0.000022       0.000000
      0.268337       0.000006       0.000000
      0.268070       0.000007       0.000000
      0.263677       0.000017       0.000000
      0.268337       0.000006       0.000000
      0.272432      -0.000002       0.000000
      0.272172       0.000002       0.000000
      0.268070       0.000007       0.000000
      0.263677       0.000017       0.000000
      0.268070       0.000007       0.000000
      0.267980       0.000000       0.000000
      0.263581       0.000000       0.000000
      0.268070       0.000007       0.000000
      0.272172       0.000002       0.000000
      0.272085       0.000000       0.000000
      0.267980       0.000000       0.000000
      0.241253      -0.000575       0.000000
      0.245613      -0.000166       0.000000
      0.244950      -0.000132       0.000000
      0.240274      -0.000531       0.000000
      0.245613      -0.000166       0.000000
      0.249186      -0.000005       0.000000
      0.248683       0.000023       0.000000
      0.244950      -0.000132       0.000000
      0.240274      -0.000531       0.000000
      0.244950      -0.000132       0.000000
      0.244249      -0.000098       0.000000
      0.239236      -0.000478       0.000000
      0.244950      -0.000132       0.000000
      0.248683       0.000023       0.000000
      0.248163       0.000047       0.000000
      0.244249      -0.000098       0.000000
      0.249186      -0.000005       0.000000
      0.252319       0.000043       0.000000
      0.251900       0.000067       0.000000
      0.248683       0.000023       0.000000
      0.252319       0.000043       0.000000
      0.255173       0.000043       0.000000
      0.254799       0.000066       0.000000
      0.251900       0.000067       0.000000
      0.248683       0.000023       0.000000
      0.251900       0.000067       0.000000
      0.251483       0.000087       0.000000
      0.248163       0.000047       0.000000
      0.251900       0.000067       0.000000
      0.254799       0.000066       0.000000
      0.254440       0.000083       0.000000
      0.251483       0.000087       0.000000
      0.239236      -0.000478       0.000000
      0.244249      -0.000098       0.000000
      0.243555      -0.000068       0.000000
      0.238210      -0.000416       0.000000
      0.244249      -0.000098       0.000000
      0.248163       0.000047       0.000000
      0.247656       0.000064       0.000000
      0.243555      -0.000068       0.000000
      0.238210      -0.000416       0.000000
      0.243555      -0.000068       0.000000
      0.242913      -0.000044       0.000000
      0.237263      -0.000346       0.000000
      0.243555      -0.000068       0.000000
      0.247656       0.000064       0.000000
      0.247190       0.000070       0.000000
      0.242913      -0.000044       0.000000
      0.248163       0.000047       0.000000
      0.251483       0.000087       0.000000
      0.251085       0.000098       0.000000
      0.247656       0.000064       0.000000
      0.251483       0.000087       0.000000
      0.254440       0.000083       0.000000
      0.254107       0.000092       0.000000
      0.251085       0.000098       0.000000
      0.247656       0.000064       0.000000
      0.251085       0.000098       0.000000
      0.250725       0.000098       0.000000
      0.247190       0.000070       0.000000
      0.251085       0.000098       0.000000
      0.254107       0.000092       0.000000
      0.253812       0.000091       0.000000
      0.250725       0.000098       0.000000
      0.237263      -0.000346       0.000000
      0.242913      -0.000044       0.000000
      0.242364      -0.000026       0.000000
      0.236454      -0.000268       0.000000
      0.242913      -0.000044       0.000000
      0.247190       0.000070       0.000000
      0.246794       0.000064       0.000000
      0.242364      -0.000026       0.000000
      0.236454      -0.000268       0.000000
      0.242364      -0.000026       0.000000
      0.241943      -0.000014       0.000000
      0.235836      -0.000183       0.000000
      0.242364      -0.000026       0.000000
      0.246794       0.000064       0.000000
      0.246491       0.000049       0.000000
      0.241943      -0.000014       0.000000
      0.247190       0.000070       0.000000
      0.250725       0.000098       0.000000
      0.250422       0.000086       0.000000
      0.246794       0.000064       0.000000
      0.250725       0.000098       0.000000
      0.253812       0.000091       0.000000
      0.253566       0.000079       0.000000
      0.250422       0.000086       0.000000
      0.246794       0.000064       0.000000
      0.250422       0.000086       0.000000
      0.250192       0.000064       0.000000
      0.246491       0.000049       0.000000
      0.250422       0.000086       0.000000
      0.253566       0.000079       0.000000
      0.253382       0.000059       0.000000
      0.250192       0.000064       0.000000
      0.235836      -0.000183       0.000000
      0.241943      -0.000014       0.000000
      0.241680      -0.000006       0.000000
      0.235449      -0.000093       0.000000
      0.241943      -0.000014       0.000000
      0.246491       0.000049       0.000000
      0.246302       0.000026       0.000000
      0.241680      -0.000006       0.000000
      0.235449      -0.000093       0.000000
      0.241680      -0.000006       0.000000
      0.241590       0.000000       0.000000
      0.235317       0.000000       0.000000
      0.241680      -0.000006       0.000000
      0.246302       0.000026       0.000000
      0.246237       0.000000       0.000000
      0.241590       0.000000       0.000000
      0.246491       0.000049       0.000000
      0.250192       0.000064       0.000000
      0.250048       0.000034       0.000000
      0.246302       0.000026       0.000000
      0.250192       0.000064       0.000000
      0.253382       0.000059       0.000000
      0.253268       0.000031       0.000000
      0.250048       0.000034       0.000000
      0.246302       0.000026       0.000000
      0.250048       0.000034       0.000000
      0.250000       0.000000       0.000000
      0.246237       0.000000       0.000000
      0.250048       0.000034       0.000000
      0.253268       0.000031       0.000000
      0.253229       0.000000       0.000000
      0.250000       0.000000       0.000000
      0.000000       0.000000       0.000000
      0.136391      -0.010198       0.000000
      0.128226      -0.009817       0.000000
      0.000000       0.000000       0.000000
      0.136391      -0.010198       0.000000
      0.191415      -0.008214       0.000000
      0.186672      -0.008028       0.000000
      0.128226      -0.009817       0.000000
      0.000000       0.000000       0.000000
      0.128226      -0.009817       0.000000
      0.122195      -0.009304       0.000000
      0.000000       0.000000       0.000000
      0.128226      -0.009817       0.000000
      0.186672      -0.008028       0.000000
      0.182424      -0.007816       0.000000
      0.122195      -0.009304       0.000000
      0.191415      -0.008214       0.000000
      0.213457      -0.005579       0.000000
      0.210759      -0.005482       0.000000
      0.186672      -0.008028       0.000000
      0.213457      -0.005579       0.000000
      0.224312      -0.003668       0.000000
      0.222630      -0.003609       0.000000
      0.210759      -0.005482       0.000000
      0.186672      -0.008028       0.000000
      0.210759      -0.005482       0.000000
      0.208166      -0.005371       0.000000
      0.182424      -0.007816       0.000000
      0.210759      -0.005482       0.000000
      0.222630      -0.003609       0.000000
      0.220954      -0.003541       0.000000
      0.208166      -0.005371       0.000000
      0.000000       0.000000       0.000000
      0.122195      -0.009304       0.000000
      0.117363      -0.008660       0.000000
      0.000000       0.000000       0.000000
      0.122195      -0.009304       0.000000
      0.182424      -0.007816       0.000000
      0.178543      -0.007544       0.000000
      0.117363      -0.008660       0.000000
      0.000000       0.000000       0.000000
      0.117363      -0.008660       0.000000
      0.113255      -0.007971       0.000000
      0.000000       0.000000       0.000000
      0.117363      -0.008660       0.000000
      0.178543      -0.007544       0.000000
      0.174966      -0.007199       0.000000
      0.113255      -0.007971       0.000000
      0.182424      -0.007816       0.000000
      0.208166      -0.005371       0.000000
      0.205674      -0.005229       0.000000
      0.178543      -0.007544       0.000000
      0.208166      -0.005371       0.000000
      0.220954      -0.003541       0.000000
      0.219300      -0.003453       0.000000
      0.205674      -0.005229       0.000000
      0.178543      -0.007544       0.000000
      0.205674      -0.005229       0.000000
      0.203284      -0.005044       0.000000
      0.174966      -0.007199       0.000000
      0.205674      -0.005229       0.000000
      0.219300      -0.003453       0.000000
      0.217682      -0.003340       0.000000
      0.203284      -0.005044       0.000000
      0.000000       0.000000       0.000000
      0.113255      -0.007971       0.000000
      0.109686      -0.007273       0.000000
      0.000000       0.000000       0.000000
      0.113255      -0.007971       0.000000
      0.174966      -0.007199       0.000000
      0.171668      -0.006784       0.000000
      0.109686      -0.007273       0.000000
      0.000000       0.000000       0.000000
      0.109686      -0.007273       0.000000
      0.106568      -0.006577       0.000000
      0.000000       0.000000       0.000000
      0.109686      -0.007273       0.000000
      0.171668      -0.006784       0.000000
      0.168647      -0.006309       0.000000
      0.106568      -0.006577       0.000000
      0.000000       0.000000       0.000000
      0.106568      -0.006577       0.000000
      0.103851      -0.005888       0.000000
      0.000000       0.000000       0.000000
      0.106568      -0.006577       0.000000
      0.168647      -0.006309       0.000000
      0.165907      -0.005786       0.000000
      0.103851      -0.005888       0.000000
      0.000000       0.000000       0.000000
      0.103851      -0.005888       0.000000
      0.101500      -0.005207       0.000000
      0.000000       0.000000       0.000000
      0.103851      -0.005888       0.000000
      0.165907      -0.005786       0.000000
      0.163454      -0.005223       0.000000
      0.101500      -0.005207       0.000000
      0.000000       0.000000       0.000000
      0.101500      -0.005207       0.000000
      0.099485      -0.004533       0.000000
      0.000000       0.000000       0.000000
      0.101500      -0.005207       0.000000
      0.163454      -0.005223       0.000000
      0.161292      -0.004627       0.000000
      0.099485      -0.004533       0.000000
      0.000000       0.000000       0.000000
      0.099485      -0.004533       0.000000
      0.097782      -0.003868       0.000000
      0.000000       0.000000       0.000000
      0.099485      -0.004533       0.000000
      0.161292      -0.004627       0.000000
      0.159422      -0.004006       0.000000
      0.097782      -0.003868       0.000000
      0.000000       0.000000       0.000000
      0.097782      -0.003868       0.000000
      0.096373      -0.003211       0.000000
      0.000000       0.000000       0.000000
      0.097782      -0.003868       0.000000
      0.159422      -0.004006       0.000000
      0.157844      -0.003366       0.000000
      0.096373      -0.003211       0.000000
      0.000000       0.000000       0.000000
      0.096373      -0.003211       0.000000
      0.095241      -0.002560       0.000000
      0.000000       0.000000       0.000000
      0.096373      -0.003211       0.000000
      0.157844      -0.003366       0.000000
      0.156557      -0.002709       0.000000
      0.095241      -0.002560       0.000000
      0.000000       0.000000       0.000000
      0.095241      -0.002560       0.000000
      0.094373      -0.001915       0.000000
      0.000000       0.000000       0.000000
      0.095241      -0.002560       0.000000
      0.156557      -0.002709       0.000000
      0.155559      -0.002041       0.000000
      0.094373      -0.001915       0.000000
      0.000000       0.000000       0.000000
      0.094373      -0.001915       0.000000
      0.093760      -0.001274       0.000000
      0.000000       0.000000       0.000000
      0.094373      -0.001915       0.000000
      0.155559      -0.002041       0.000000
      0.154847      -0.001365       0.000000
      0.093760      -0.001274       0.000000
      0.000000       0.000000       0.000000
      0.093760      -0.001274       0.000000
      0.093395      -0.000636       0.000000
      0.000000       0.000000       0.000000
      0.093760      -0.001274       0.000000
      0.154847      -0.001365       0.000000
      0.154421      -0.000684       0.000000
      0.093395      -0.000636       0.000000
      0.000000       0.000000       0.000000
      0.093395      -0.000636       0.000000
      0.093274      -0.000000       0.000000
      0.000000       0.000000       0.000000
      0.093395      -0.000636       0.000000
      0.154421      -0.000684       0.000000
      0.154279       0.000000       0.000000
      0.093274      -0.000000       0.000000
      0.174966      -0.007199       0.000000
      0.203284      -0.005044       0.000000
      0.201005      -0.004812       0.000000
      0.171668      -0.006784       0.000000
      0.203284      -0.005044       0.000000
      0.217682      -0.003340       0.000000
      0.216114      -0.003198       0.000000
      0.201005      -0.004812       0.000000
      0.171668      -0.006784       0.000000
      0.201005      -0.004812       0.000000
      0.198854      -0.004533       0.000000
      0.168647      -0.006309       0.000000
      0.201005      -0.004812       0.000000
      0.216114      -0.003198       0.000000
      0.214612      -0.003026       0.000000
      0.198854      -0.004533       0.000000
      0.168647      -0.006309       0.000000
      0.198854      -0.004533       0.000000
      0.196850      -0.004210       0.000000
      0.165907      -0.005786       0.000000
      0.198854      -0.004533       0.000000
      0.214612      -0.003026       0.000000
      0.213193      -0.002823       0.000000
      0.196850      -0.004210       0.000000
      0.165907      -0.005786       0.000000
      0.196850      -0.004210       0.000000
      0.195014      -0.003845       0.000000