# vtk DataFile Version 2.0
time_10.vtk
ASCII
DATASET UNSTRUCTURED_GRID
POINTS   768 float
      1.666667      -0.583333       0.000000
      2.083333      -0.635417       0.000000
      2.083333      -0.317708       0.000000
      1.666667      -0.291667       0.000000
      2.083333      -0.635417       0.000000
      2.500000      -0.687500       0.000000
      2.500000      -0.343750       0.000000
      2.083333      -0.317708       0.000000
      1.666667      -0.291667       0.000000
      2.083333      -0.317708       0.000000
      2.083333       0.000000       0.000000
      1.666667       0.000000       0.000000
      2.083333      -0.317708       0.000000
      2.500000      -0.343750       0.000000
      2.500000       0.000000       0.000000
      2.083333       0.000000       0.000000
      2.500000      -0.687500       0.000000
      2.916667      -0.739583       0.000000
      2.916667      -0.369792       0.000000
      2.500000      -0.343750       0.000000
      2.916667      -0.739583       0.000000
      3.333333      -0.791667       0.000000
      3.333333      -0.395833       0.000000
      2.916667      -0.369792       0.000000
      2.500000      -0.343750       0.000000
      2.916667      -0.369792       0.000000
      2.916667       0.000000       0.000000
      2.500000       0.000000       0.000000
      2.916667      -0.369792       0.000000
      3.333333      -0.395833       0.000000
      3.333333       0.000000       0.000000
      2.916667       0.000000       0.000000
      3.333333      -0.791667       0.000000
      3.750000      -0.843750       0.000000
      3.750000      -0.421875       0.000000
      3.333333      -0.395833       0.000000
      3.750000      -0.843750       0.000000
      4.166667      -0.895833       0.000000
      4.166667      -0.447917       0.000000
      3.750000      -0.421875       0.000000
      3.333333      -0.395833       0.000000
      3.750000      -0.421875       0.000000
      3.750000       0.000000       0.000000
      3.333333       0.000000       0.000000
      3.750000      -0.421875       0.000000
      4.166667      -0.447917       0.000000
      4.166667       0.000000       0.000000
      3.750000       0.000000       0.000000
      4.166667      -0.895833       0.000000
      4.583333      -0.947917       0.000000
      4.583333      -0.473958       0.000000
      4.166667      -0.447917       0.000000
      4.583333      -0.947917       0.000000
      5.000000      -1.000000       0.000000
      5.000000      -0.500000       0.000000
      4.583333      -0.473958       0.000000
      4.166667      -0.447917       0.000000
      4.583333      -0.473958       0.000000
      4.583333       0.000000       0.000000
      4.166667       0.000000       0.000000
      4.583333      -0.473958       0.000000
      5.000000      -0.500000       0.000000
      5.000000       0.000000       0.000000
      4.583333       0.000000       0.000000
      0.833333      -0.479167       0.000000
      1.041667      -0.505208       0.000000
      1.041667      -0.378906       0.000000
      0.833333      -0.359375       0.000000
      1.041667      -0.505208       0.000000
      1.250000      -0.531250       0.000000
      1.250000      -0.398437       0.000000
      1.041667      -0.378906       0.000000
      0.833333      -0.359375       0.000000
      1.041667      -0.378906       0.000000
      1.041667      -0.252604       0.000000
      0.833333      -0.239583       0.000000
      1.041667      -0.378906       0.000000
      1.250000      -0.398437       0.000000
      1.250000      -0.265625       0.000000
      1.041667      -0.252604       0.000000
      1.250000      -0.531250       0.000000
      1.458333      -0.557292       0.000000
      1.458333      -0.417969       0.000000
      1.250000      -0.398437       0.000000
      1.458333      -0.557292       0.000000
      1.666667      -0.583333       0.000000
      1.666667      -0.437500       0.000000
      1.458333      -0.417969       0.000000
      1.250000      -0.398437       0.000000
      1.458333      -0.417969       0.000000
      1.458333      -0.278646       0.000000
      1.250000      -0.265625       0.000000
      1.458333      -0.417969       0.000000
      1.666667      -0.437500       0.000000
      1.666667      -0.291667       0.000000
      1.458333      -0.278646       0.000000
      0.833333      -0.239583       0.000000
      1.041667      -0.252604       0.000000
      1.041667      -0.126302       0.000000
      0.833333      -0.119792       0.000000
      1.041667      -0.252604       0.000000
      1.250000      -0.265625       0.000000
      1.250000      -0.132812       0.000000
      1.041667      -0.126302       0.000000
      0.833333      -0.119792       0.000000
      1.041667      -0.126302       0.000000
      1.041667       0.000000       0.000000
      0.833333       0.000000       0.000000
      1.041667      -0.126302       0.000000
      1.250000      -0.132812       0.000000
      1.250000       0.000000       0.000000
      1.041667       0.000000       0.000000
      1.250000      -0.265625       0.000000
      1.458333      -0.278646       0.000000
      1.458333      -0.139323       0.000000
      1.250000      -0.132812       0.000000
      1.458333      -0.278646       0.000000
      1.666667      -0.291667       0.000000
      1.666667      -0.145833       0.000000
      1.458333      -0.139323       0.000000
      1.250000      -0.132812       0.000000
      1.458333      -0.139323       0.000000
      1.458333       0.000000       0.000000
      1.250000       0.000000       0.000000
      1.458333      -0.139323       0.000000
      1.666667      -0.145833       0.000000
      1.666667       0.000000       0.000000
      1.458333       0.000000       0.000000
      0.000000      -0.375000       0.000000
      0.104167      -0.388021       0.000000
      0.104167      -0.339518       0.000000
      0.000000      -0.328125       0.000000
      0.104167      -0.388021       0.000000
      0.208333      -0.401042       0.000000
      0.208333      -0.350911       0.000000
      0.104167      -0.339518       0.000000
      0.000000      -0.328125       0.000000
      0.104167      -0.339518       0.000000
      0.104167      -0.291016       0.000000
      0.000000      -0.281250       0.000000
      0.104167      -0.339518       0.000000
      0.208333      -0.350911       0.000000
      0.208333      -0.300781       0.000000
      0.104167      -0.291016       0.000000
      0.208333      -0.401042       0.000000
      0.312500      -0.414062       0.000000
      0.312500      -0.362305       0.000000
      0.208333      -0.350911       0.000000
      0.312500      -0.414062       0.000000
      0.416667      -0.427083       0.000000
      0.416667      -0.373698       0.000000
      0.312500      -0.362305       0.000000
      0.208333      -0.350911       0.000000
      0.312500      -0.362305       0.000000
      0.312500      -0.310547       0.000000
      0.208333      -0.300781       0.000000
      0.312500      -0.362305       0.000000
      0.416667      -0.373698       0.000000
      0.416667      -0.320312       0.000000
      0.312500      -0.310547       0.000000
      0.000000      -0.281250       0.000000
      0.104167      -0.291016       0.000000
      0.104167      -0.242513       0.000000
      0.000000      -0.234375       0.000000
      0.104167      -0.291016       0.000000
      0.208333      -0.300781       0.000000
      0.208333      -0.250651       0.000000
      0.104167      -0.242513       0.000000
      0.000000      -0.234375       0.000000
      0.104167      -0.242513       0.000000
      0.104167      -0.194010       0.000000
      0.000000      -0.187500       0.000000
      0.104167      -0.242513       0.000000
      0.208333      -0.250651       0.000000
      0.208333      -0.200521       0.000000
      0.104167      -0.194010       0.000000
      0.208333      -0.300781       0.000000
      0.312500      -0.310547       0.000000
      0.312500      -0.258789       0.000000
      0.208333      -0.250651       0.000000
      0.312500      -0.310547       0.000000
      0.416667      -0.320312       0.000000
      0.416667      -0.266927       0.000000
      0.312500      -0.258789       0.000000
      0.208333      -0.250651       0.000000
      0.312500      -0.258789       0.000000
      0.312500      -0.207031       0.000000
      0.208333      -0.200521       0.000000
      0.312500      -0.258789       0.000000
      0.416667      -0.266927       0.000000
      0.416667      -0.213542       0.000000
      0.312500      -0.207031       0.000000
      0.416667      -0.427083       0.000000
      0.520833      -0.440104       0.000000
      0.520833      -0.385091       0.000000
      0.416667      -0.373698       0.000000
      0.520833      -0.440104       0.000000
      0.625000      -0.453125       0.000000
      0.625000      -0.396484       0.000000
      0.520833      -0.385091       0.000000
      0.416667      -0.373698       0.000000
      0.520833      -0.385091       0.000000
      0.520833      -0.330078       0.000000
      0.416667      -0.320312       0.000000
      0.520833      -0.385091       0.000000
      0.625000      -0.396484       0.000000
      0.625000      -0.339844       0.000000
      0.520833      -0.330078       0.000000
      0.625000      -0.453125       0.000000
      0.729167      -0.466146       0.000000
      0.729167      -0.407878       0.000000
      0.625000      -0.396484       0.000000
      0.729167      -0.466146       0.000000
      0.833333      -0.479167       0.000000
      0.833333      -0.419271       0.000000
      0.729167      -0.407878       0.000000
      0.625000      -0.396484       0.000000
      0.729167      -0.407878       0.000000
      0.729167      -0.349609       0.000000
      0.625000      -0.339844       0.000000
[...]
POINT_DATA   768
VECTORS U float 
      0.160061      -0.000180       0.000000
      0.183835      -0.000177       0.000000
      0.180662      -0.000023       0.000000
      0.156783      -0.000021       0.000000
      0.183835      -0.000177       0.000000
      0.205184      -0.000177       0.000000
      0.202078      -0.000026       0.000000
      0.180662      -0.000023       0.000000
      0.156783      -0.000021       0.000000
      0.180662      -0.000023       0.000000
      0.179588      -0.000000       0.000000
      0.155671      -0.000000       0.000000
      0.180662      -0.000023       0.000000
      0.202078      -0.000026       0.000000
      0.201026      -0.000000       0.000000
      0.179588      -0.000000       0.000000
      0.205184      -0.000177       0.000000
      0.224633      -0.000178       0.000000
      0.221560      -0.000027       0.000000
      0.202078      -0.000026       0.000000
      0.224633      -0.000178       0.000000
      0.242549      -0.000155       0.000000
      0.239464      -0.000010       0.000000
      0.221560      -0.000027       0.000000
      0.202078      -0.000026       0.000000
      0.221560      -0.000027       0.000000
      0.220518      -0.000000       0.000000
      0.201026      -0.000000       0.000000
      0.221560      -0.000027       0.000000
      0.239464      -0.000010       0.000000
      0.238419      -0.000000       0.000000
      0.220518      -0.000000       0.000000
      0.242549      -0.000155       0.000000
      0.259196      -0.000033       0.000000
      0.256046       0.000085       0.000000
      0.239464      -0.000010       0.000000
      0.259196      -0.000033       0.000000
      0.274690       0.000340       0.000000
      0.271505       0.000363       0.000000
      0.256046       0.000085       0.000000
      0.239464      -0.000010       0.000000
      0.256046       0.000085       0.000000
      0.255001      -0.000000       0.000000
      0.238419      -0.000000       0.000000
      0.256046       0.000085       0.000000
      0.271505       0.000363       0.000000
      0.270542      -0.000000       0.000000
      0.255001      -0.000000       0.000000
      0.274690       0.000340       0.000000
      0.288816       0.001151       0.000000
      0.286044       0.000901       0.000000
      0.271505       0.000363       0.000000
      0.288816       0.001151       0.000000
      0.300000       0.002306       0.000000
      0.300000       0.001332       0.000000
      0.286044       0.000901       0.000000
      0.271505       0.000363       0.000000
      0.286044       0.000901       0.000000
      0.285405      -0.000000       0.000000
      0.270542      -0.000000       0.000000
      0.286044       0.000901       0.000000
      0.300000       0.001332       0.000000
      0.300000      -0.000000       0.000000
      0.285405      -0.000000       0.000000
      0.101073      -0.000234       0.000000
      0.117813      -0.000199       0.000000
      0.115717      -0.000084       0.000000
      0.098842      -0.000113       0.000000
      0.117813      -0.000199       0.000000
      0.133015      -0.000187       0.000000
      0.131008      -0.000077       0.000000
      0.115717      -0.000084       0.000000
      0.098842      -0.000113       0.000000
      0.115717      -0.000084       0.000000
      0.114189      -0.000024       0.000000
      0.097210      -0.000046       0.000000
      0.115717      -0.000084       0.000000
      0.131008      -0.000077       0.000000
      0.129550      -0.000020       0.000000
      0.114189      -0.000024       0.000000
      0.133015      -0.000187       0.000000
      0.147021      -0.000182       0.000000
      0.145075      -0.000076       0.000000
      0.131008      -0.000077       0.000000
      0.147021      -0.000182       0.000000
      0.160061      -0.000180       0.000000
      0.158159      -0.000075       0.000000
      0.145075      -0.000076       0.000000
      0.131008      -0.000077       0.000000
      0.145075      -0.000076       0.000000
      0.143665      -0.000020       0.000000
      0.129550      -0.000020       0.000000
      0.145075      -0.000076       0.000000
      0.158159      -0.000075       0.000000
      0.156783      -0.000021       0.000000
      0.143665      -0.000020       0.000000
      0.097210      -0.000046       0.000000
      0.114189      -0.000024       0.000000
      0.113260      -0.000002       0.000000
      0.096217      -0.000014       0.000000
      0.114189      -0.000024       0.000000
      0.129550      -0.000020       0.000000
      0.128665      -0.000000       0.000000
      0.113260      -0.000002       0.000000
      0.096217      -0.000014       0.000000
      0.113260      -0.000002       0.000000
      0.112948      -0.000000       0.000000
      0.095884      -0.000000       0.000000
      0.113260      -0.000002       0.000000
      0.128665      -0.000000       0.000000
      0.128368      -0.000000       0.000000
      0.112948      -0.000000       0.000000
      0.129550      -0.000020       0.000000
      0.143665      -0.000020       0.000000
      0.142811      -0.000001       0.000000
      0.128665      -0.000000       0.000000
      0.143665      -0.000020       0.000000
      0.156783      -0.000021       0.000000
      0.155950      -0.000002       0.000000
      0.142811      -0.000001       0.000000
      0.128665      -0.000000       0.000000
      0.142811      -0.000001       0.000000
      0.142524      -0.000000       0.000000
      0.128368      -0.000000       0.000000
      0.142811      -0.000001       0.000000
      0.155950      -0.000002       0.000000
      0.155671      -0.000000       0.000000
      0.142524      -0.000000       0.000000
      0.000000       0.000000       0.000000
      0.018473      -0.001047       0.000000
      0.017021      -0.000972       0.000000
      0.000000       0.000000       0.000000
      0.018473      -0.001047       0.000000
      0.034138      -0.001013       0.000000
      0.032530      -0.000930       0.000000
      0.017021      -0.000972       0.000000
      0.000000       0.000000       0.000000
      0.017021      -0.000972       0.000000
      0.016131      -0.000870       0.000000
      0.000000       0.000000       0.000000
      0.017021      -0.000972       0.000000
      0.032530      -0.000930       0.000000
      0.031305      -0.000853       0.000000
      0.016131      -0.000870       0.000000
      0.034138      -0.001013       0.000000
      0.048000      -0.000800       0.000000
      0.046437      -0.000717       0.000000
      0.032530      -0.000930       0.000000
      0.048000      -0.000800       0.000000
      0.060461      -0.000594       0.000000
      0.058989      -0.000514       0.000000
      0.046437      -0.000717       0.000000
      0.032530      -0.000930       0.000000
      0.046437      -0.000717       0.000000
      0.045149      -0.000647       0.000000
      0.031305      -0.000853       0.000000
      0.046437      -0.000717       0.000000
      0.058989      -0.000514       0.000000
      0.057730      -0.000449       0.000000
      0.045149      -0.000647       0.000000
      0.000000       0.000000       0.000000
      0.016131      -0.000870       0.000000
      0.015568      -0.000737       0.000000
      0.000000       0.000000       0.000000
      0.016131      -0.000870       0.000000
      0.031305      -0.000853       0.000000
      0.030396      -0.000757       0.000000
      0.015568      -0.000737       0.000000
      0.000000       0.000000       0.000000
      0.015568      -0.000737       0.000000
      0.015191      -0.000590       0.000000
      0.000000       0.000000       0.000000
      0.015568      -0.000737       0.000000
      0.030396      -0.000757       0.000000
      0.029735      -0.000637       0.000000
      0.015191      -0.000590       0.000000
      0.031305      -0.000853       0.000000
      0.045149      -0.000647       0.000000
      0.044118      -0.000574       0.000000
      0.030396      -0.000757       0.000000
      0.045149      -0.000647       0.000000
      0.057730      -0.000449       0.000000
      0.056686      -0.000388       0.000000
      0.044118      -0.000574       0.000000
      0.030396      -0.000757       0.000000
      0.044118      -0.000574       0.000000
      0.043320      -0.000487       0.000000
      0.029735      -0.000637       0.000000
      0.044118      -0.000574       0.000000
      0.056686      -0.000388       0.000000
      0.055850      -0.000325       0.000000
      0.043320      -0.000487       0.000000
      0.060461      -0.000594       0.000000
      0.071808      -0.000440       0.000000
      0.070427      -0.000363       0.000000
      0.058989      -0.000514       0.000000
      0.071808      -0.000440       0.000000
      0.082256      -0.000337       0.000000
      0.080954      -0.000263       0.000000
      0.070427      -0.000363       0.000000
      0.058989      -0.000514       0.000000
      0.070427      -0.000363       0.000000
      0.069226      -0.000302       0.000000
      0.057730      -0.000449       0.000000
      0.070427      -0.000363       0.000000
      0.080954      -0.000263       0.000000
      0.079813      -0.000206       0.000000
      0.069226      -0.000302       0.000000
      0.082256      -0.000337       0.000000
      0.091969      -0.000272       0.000000
      0.090731      -0.000202       0.000000
      0.080954      -0.000263       0.000000
      0.091969      -0.000272       0.000000
      0.101073      -0.000234       0.000000
      0.099886      -0.000165       0.000000
      0.090731      -0.000202       0.000000
      0.080954      -0.000263       0.000000
      0.090731      -0.000202       0.000000
      0.089643      -0.000147       0.000000
      0.079813      -0.000206       0.000000
      0.090731      -0.000202       0.000000
      0.099886      -0.000165       0.000000
      0.098842      -0.000113       0.000000
      0.089643      -0.000147       0.000000
      0.057730      -0.000449       0.000000
      0.069226      -0.000302       0.000000
      0.068211      -0.000250       0.000000
      0.056686      -0.000388       0.000000
      0.069226      -0.000302       0.000000
      0.079813      -0.000206       0.000000
      0.078840      -0.000160       0.000000
      0.068211      -0.000250       0.000000
      0.056686      -0.000388       0.000000
      0.068211      -0.000250       0.000000
      0.067384      -0.000202       0.000000
      0.055850      -0.000325       0.000000
      0.068211      -0.000250       0.000000
      0.078840      -0.000160       0.000000
      0.078041      -0.000122       0.000000
      0.067384      -0.000202       0.000000
      0.079813      -0.000206       0.000000
      0.089643      -0.000147       0.000000
      0.088712      -0.000105       0.000000
      0.078840      -0.000160       0.000000
      0.089643      -0.000147       0.000000
      0.098842      -0.000113       0.000000
      0.097948      -0.000074       0.000000
      0.088712      -0.000105       0.000000
      0.078840      -0.000160       0.000000
      0.088712      -0.000105       0.000000
      0.087945      -0.000073       0.000000
      0.078041      -0.000122       0.000000
      0.088712      -0.000105       0.000000
      0.097948      -0.000074       0.000000
      0.097210      -0.000046       0.000000
      0.087945      -0.000073       0.000000
      0.000000       0.000000       0.000000
      0.015191      -0.000590       0.000000
      0.014935      -0.000441       0.000000
      0.000000       0.000000       0.000000
      0.015191      -0.000590       0.000000
      0.029735      -0.000637       0.000000
      0.029267      -0.000494       0.000000
      0.014935      -0.000441       0.000000
      0.000000       0.000000       0.000000
      0.014935      -0.000441       0.000000
      0.014767      -0.000293       0.000000
      0.000000       0.000000       0.000000
      0.014935      -0.000441       0.000000
      0.029267      -0.000494       0.000000
      0.028954      -0.000337       0.000000
      0.014767      -0.000293       0.000000
      0.029735      -0.000637       0.000000
      0.043320      -0.000487       0.000000
      0.042730      -0.000383       0.000000
      0.029267      -0.000494       0.000000
      0.043320      -0.000487       0.000000
      0.055850      -0.000325       0.000000
      0.055213      -0.000254       0.000000
      0.042730      -0.000383       0.000000
      0.029267      -0.000494       0.000000
      0.042730      -0.000383       0.000000
      0.042324      -0.000265       0.000000
      0.028954      -0.000337       0.000000
      0.042730      -0.000383       0.000000
      0.055213      -0.000254       0.000000
      0.054767      -0.000175       0.000000
      0.042324      -0.000265       0.000000
      0.000000       0.000000       0.000000
      0.014767      -0.000293       0.000000
      0.014672      -0.000146       0.000000
      0.000000       0.000000       0.000000
      0.014767      -0.000293       0.000000
      0.028954      -0.000337       0.000000
      0.028775      -0.000171       0.000000
      0.014672      -0.000146       0.000000
      0.000000       0.000000       0.000000
      0.014672      -0.000146       0.000000
      0.014641       0.000000       0.000000
      0.000000       0.000000       0.000000
      0.014672      -0.000146       0.000000
      0.028775      -0.000171       0.000000
      0.028716       0.000000       0.000000
      0.014641       0.000000       0.000000
      0.028954      -0.000337       0.000000
      0.042324      -0.000265       0.000000
      0.042087      -0.000135       0.000000
      0.028775      -0.000171       0.000000
      0.042324      -0.000265       0.000000
      0.054767      -0.000175       0.000000
      0.054503      -0.000089       0.000000
      0.042087      -0.000135       0.000000
      0.028775      -0.000171       0.000000
      0.042087      -0.000135       0.000000
      0.042010      -0.000000       0.000000
      0.028716       0.000000       0.000000
      0.042087      -0.000135       0.000000
      0.054503      -0.000089       0.000000
      0.054415      -0.000000       0.000000
      0.042010      -0.000000       0.000000
      0.055850      -0.000325       0.000000
      0.067384      -0.000202       0.000000
      0.066745      -0.000154       0.000000
      0.055213      -0.000254       0.000000
      0.067384      -0.000202       0.000000
      0.078041      -0.000122       0.000000
      0.077418      -0.000089       0.000000
      0.066745      -0.000154       0.000000
      0.055213      -0.000254       0.000000
      0.066745      -0.000154       0.000000
      0.066291      -0.000105       0.000000
      0.054767      -0.000175       0.000000
      0.066745      -0.000154       0.000000
      0.077418      -0.000089       0.000000
      0.076973      -0.000058       0.000000
      0.066291      -0.000105       0.000000
      0.078041      -0.000122       0.000000
      0.087945      -0.000073       0.000000
      0.087344      -0.000049       0.000000
      0.077418      -0.000089       0.000000
      0.087945      -0.000073       0.000000
      0.097210      -0.000046       0.000000
      0.096632      -0.000027       0.000000
      0.087344      -0.000049       0.000000
      0.077418      -0.000089       0.000000
      0.087344      -0.000049       0.000000
      0.086914      -0.000030       0.000000
      0.076973      -0.000058       0.000000
      0.087344      -0.000049       0.000000
      0.096632      -0.000027       0.000000
      0.096217      -0.000014       0.000000
      0.086914      -0.000030       0.000000
      0.054767      -0.000175       0.000000
      0.066291      -0.000105       0.000000
      0.066020      -0.000053       0.000000
      0.054503      -0.000089       0.000000
      0.066291      -0.000105       0.000000
      0.076973      -0.000058       0.000000
      0.076705      -0.000029       0.000000
      0.066020      -0.000053       0.000000
      0.054503      -0.000089       0.000000
      0.066020      -0.000053       0.000000
      0.065930      -0.000000       0.000000
      0.054415      -0.000000       0.000000
      0.066020      -0.000053       0.000000
      0.076705      -0.000029       0.000000
      0.076616      -0.000000       0.000000
      0.065930      -0.000000       0.000000
      0.076973      -0.000058       0.000000
      0.086914      -0.000030       0.000000
      0.086655      -0.000014       0.000000
      0.076705      -0.000029       0.000000
      0.086914      -0.000030       0.000000
      0.096217      -0.000014       0.000000
      0.095967      -0.000006       0.000000
      0.086655      -0.000014       0.000000
      0.076705      -0.000029       0.000000
      0.086655      -0.000014       0.000000
      0.086569      -0.000000       0.000000
      0.076616      -0.000000       0.000000
      0.086655      -0.000014       0.000000
      0.095967      -0.000006       0.000000
      0.095884      -0.000000       0.000000
      0.086569      -0.000000       0.000000
      0.155671      -0.000000       0.000000
      0.179588      -0.000000       0.000000
      0.180662       0.000023       0.000000
      0.156783       0.000021       0.000000
      0.179588      -0.000000       0.000000
      0.201026      -0.000000       0.000000
      0.202078       0.000026       0.000000
      0.180662       0.000023       0.000000
      0.156783       0.000021       0.000000
      0.180662       0.000023       0.000000
      0.183835       0.000177       0.000000
      0.160061       0.000180       0.000000
      0.180662       0.000023       0.000000
      0.202078       0.000026       0.000000
      0.205184       0.000177       0.000000
      0.183835       0.000177       0.000000
      0.201026      -0.000000       0.000000
      0.220518      -0.000000       0.000000
      0.221560       0.000027       0.000000
      0.202078       0.000026       0.000000
      0.220518      -0.000000       0.000000
      0.238419      -0.000000       0.000000
      0.239464       0.000010       0.000000
      0.221560       0.000027       0.000000
      0.202078       0.000026       0.000000
      0.221560       0.000027       0.000000
      0.224633       0.000178       0.000000
      0.205184       0.000177       0.000000
      0.221560       0.000027       0.000000
      0.239464       0.000010       0.000000
      0.242549       0.000155       0.000000
      0.224633       0.000178       0.000000
      0.238419      -0.000000       0.000000
      0.255001      -0.000000       0.000000
      0.256046      -0.000085       0.000000
      0.239464       0.000010       0.000000
      0.255001      -0.000000       0.000000
      0.270542      -0.000000       0.000000
      0.271505      -0.000363       0.000000
      0.256046      -0.000085       0.000000
      0.239464       0.000010       0.000000
      0.256046      -0.000085       0.000000
      0.259196       0.000033       0.000000
      0.242549       0.000155       0.000000
      0.256046      -0.000085       0.000000
      0.271505      -0.000363       0.000000
      0.274690      -0.000340       0.000000
      0.259196       0.000033       0.000000
      0.270542      -0.000000       0.000000
      0.285405      -0.000000       0.000000
      0.286044      -0.000901       0.000000
      0.271505      -0.000363       0.000000
      0.285405      -0.000000       0.000000
      0.300000      -0.000000       0.000000
      0.300000      -0.001332       0.000000
      0.286044      -0.000901       0.000000
      0.271505      -0.000363       0.000000
      0.286044      -0.000901       0.000000
      0.288816      -0.001151       0.000000