# vtk DataFile Version 2.0
time_10.vtk
ASCII
DATASET UNSTRUCTURED_GRID
POINTS   768 float
      1.666667      -0.583333       0.000000
      2.083333      -0.635417       0.000000
      2.083333      -0.317708       0.000000
      1.666667      -0.291667       0.000000
      2.083333      -0.635417       0.000000
      2.500000      -0.687500       0.000000
      2.500000      -0.343750       0.000000
      2.083333      -0.317708       0.000000
      1.666667      -0.291667       0.000000
      2.083333      -0.317708       0.000000
      2.083333       0.000000       0.000000
      1.666667       0.000000       0.000000
      2.083333      -0.317708       0.000000
      2.500000      -0.343750       0.000000
      2.500000       0.000000       0.000000
      2.083333       0.000000       0.000000
      2.500000      -0.687500       0.000000
      2.916667      -0.739583       0.000000
      2.916667      -0.369792       0.000000
      2.500000      -0.343750       0.000000
      2.916667      -0.739583       0.000000
      3.333333      -0.791667       0.000000
      3.333333      -0.395833       0.000000
      2.916667      -0.369792       0.000000
      2.500000      -0.343750       0.000000
      2.916667      -0.369792       0.000000
      2.916667       0.000000       0.000000
      2.500000       0.000000       0.000000
      2.916667      -0.369792       0.000000
      3.333333      -0.395833       0.000000
      3.333333       0.000000       0.000000
      2.916667       0.000000       0.000000
      3.333333      -0.791667       0.000000
      3.750000      -0.843750       0.000000
      3.750000      -0.421875       0.000000
      3.333333      -0.395833       0.000000
      3.750000      -0.843750       0.000000
      4.166667      -0.895833       0.000000
      4.166667      -0.447917       0.000000
      3.750000      -0.421875       0.000000
      3.333333      -0.395833       0.000000
      3.750000      -0.421875       0.000000
      3.750000       0.000000       0.000000
      3.333333       0.000000       0.000000
      3.750000      -0.421875       0.000000
      4.166667      -0.447917       0.000000
      4.166667       0.000000       0.000000
      3.750000       0.000000       0.000000
      4.166667      -0.895833       0.000000
      4.583333      -0.947917       0.000000
      4.583333      -0.473958       0.000000
      4.166667      -0.447917       0.000000
      4.583333      -0.947917       0.000000
      5.000000      -1.000000       0.000000
      5.000000      -0.500000       0.000000
      4.583333      -0.473958       0.000000
      4.166667      -0.447917       0.000000
      4.583333      -0.473958       0.000000
      4.583333       0.000000       0.000000
      4.166667       0.000000       0.000000
      4.583333      -0.473958       0.000000
      5.000000      -0.500000       0.000000
      5.000000       0.000000       0.000000
      4.583333       0.000000       0.000000
      0.833333      -0.479167       0.000000
      1.041667      -0.505208       0.000000
      1.041667      -0.378906       0.000000
      0.833333      -0.359375       0.000000
      1.041667      -0.505208       0.000000
      1.250000      -0.531250       0.000000
      1.250000      -0.398437       0.000000
      1.041667      -0.378906       0.000000
      0.833333      -0.359375       0.000000
      1.041667      -0.378906       0.000000
      1.041667      -0.252604       0.000000
      0.833333      -0.239583       0.000000
      1.041667      -0.378906       0.000000
      1.250000      -0.398437       0.000000
      1.250000      -0.265625       0.000000
      1.041667      -0.252604       0.000000
      1.250000      -0.531250       0.000000
      1.458333      -0.557292       0.000000
      1.458333      -0.417969       0.000000
      1.250000      -0.398437       0.000000
      1.458333      -0.557292       0.000000
      1.666667      -0.583333       0.000000
      1.666667      -0.437500       0.000000
      1.458333      -0.417969       0.000000
      1.250000      -0.398437       0.000000
      1.458333      -0.417969       0.000000
      1.458333      -0.278646       0.000000
      1.250000      -0.265625       0.000000
      1.458333      -0.417969       0.000000
      1.666667      -0.437500       0.000000
      1.666667      -0.291667       0.000000
      1.458333      -0.278646       0.000000
      0.833333      -0.239583       0.000000
      1.041667      -0.252604       0.000000
      1.041667      -0.126302       0.000000
      0.833333      -0.119792       0.000000
      1.041667      -0.252604       0.000000
      1.250000      -0.265625       0.000000
      1.250000      -0.132812       0.000000
      1.041667      -0.126302       0.000000
      0.833333      -0.119792       0.000000
      1.041667      -0.126302       0.000000
      1.041667       0.000000       0.000000
      0.833333       0.000000       0.000000
      1.041667      -0.126302       0.000000
      1.250000      -0.132812       0.000000
      1.250000       0.000000       0.000000
      1.041667       0.000000       0.000000
      1.250000      -0.265625       0.000000
      1.458333      -0.278646       0.000000
      1.458333      -0.139323       0.000000
      1.250000      -0.132812       0.000000
      1.458333      -0.278646       0.000000
      1.666667      -0.291667       0.000000
      1.666667      -0.145833       0.000000
      1.458333      -0.139323       0.000000
      1.250000      -0.132812       0.000000
      1.458333      -0.139323       0.000000
      1.458333       0.000000       0.000000
      1.250000       0.000000       0.000000
      1.458333      -0.139323       0.000000
      1.666667      -0.145833       0.000000
      1.666667       0.000000       0.000000
      1.458333       0.000000       0.000000
      0.000000      -0.375000       0.000000
      0.104167      -0.388021       0.000000
      0.104167      -0.339518       0.000000
      0.000000      -0.328125       0.000000
      0.104167      -0.388021       0.000000
      0.208333      -0.401042       0.000000
      0.208333      -0.350911       0.000000
      0.104167      -0.339518       0.000000
      0.000000      -0.328125       0.000000
      0.104167      -0.339518       0.000000
      0.104167      -0.291016       0.000000
      0.000000      -0.281250       0.000000
      0.104167      -0.339518       0.000000
      0.208333      -0.350911       0.000000
      0.208333      -0.300781       0.000000
      0.104167      -0.291016       0.000000
      0.208333      -0.401042       0.000000
      0.312500      -0.414062       0.000000
      0.312500      -0.362305       0.000000
      0.208333      -0.350911       0.000000
      0.312500      -0.414062       0.000000
      0.416667      -0.427083       0.000000
      0.416667      -0.373698       0.000000
      0.312500      -0.362305       0.000000
      0.208333      -0.350911       0.000000
      0.312500      -0.362305       0.000000
      0.312500      -0.310547       0.000000
      0.208333      -0.300781       0.000000
      0.312500      -0.362305       0.000000
      0.416667      -0.373698       0.000000
      0.416667      -0.320312       0.000000
      0.312500      -0.310547       0.000000
      0.000000      -0.281250       0.000000
      0.104167      -0.291016       0.000000
      0.104167      -0.242513       0.000000
      0.000000      -0.234375       0.000000
      0.104167      -0.291016       0.000000
      0.208333      -0.300781       0.000000
      0.208333      -0.250651       0.000000
      0.104167      -0.242513       0.000000
      0.000000      -0.234375       0.000000
      0.104167      -0.242513       0.000000
      0.104167      -0.194010       0.000000
      0.000000      -0.187500       0.000000
      0.104167      -0.242513       0.000000
      0.208333      -0.250651       0.000000
      0.208333      -0.200521       0.000000
      0.104167      -0.194010       0.000000
      0.208333      -0.300781       0.000000
      0.312500      -0.310547       0.000000
      0.312500      -0.258789       0.000000
      0.208333      -0.250651       0.000000
      0.312500      -0.310547       0.000000
      0.416667      -0.320312       0.000000
      0.416667      -0.266927       0.000000
      0.312500      -0.258789       0.000000
      0.208333      -0.250651       0.000000
      0.312500      -0.258789       0.000000
      0.312500      -0.207031       0.000000
      0.208333      -0.200521       0.000000
      0.312500      -0.258789       0.000000
      0.416667      -0.266927       0.000000
      0.416667      -0.213542       0.000000
      0.312500      -0.207031       0.000000
      0.416667      -0.427083       0.000000
      0.520833      -0.440104       0.000000
      0.520833      -0.385091       0.000000
      0.416667      -0.373698       0.000000
      0.520833      -0.440104       0.000000
      0.625000      -0.453125       0.000000
      0.625000      -0.396484       0.000000
      0.520833      -0.385091       0.000000
      0.416667      -0.373698       0.000000
      0.520833      -0.385091       0.000000
      0.520833      -0.330078       0.000000
      0.416667      -0.320312       0.000000
      0.520833      -0.385091       0.000000
      0.625000      -0.396484       0.000000
      0.625000      -0.339844       0.000000
      0.520833      -0.330078       0.000000
      0.625000      -0.453125       0.000000
      0.729167      -0.466146       0.000000
      0.729167      -0.407878       0.000000
      0.625000      -0.396484       0.000000
      0.729167      -0.466146       0.000000
      0.833333      -0.479167       0.000000
      0.833333      -0.419271       0.000000
      0.729167      -0.407878       0.000000
      0.625000      -0.396484       0.000000
      0.729167      -0.407878       0.000000
      0.729167      -0.349609       0.000000
      0.625000      -0.339844       0.000000
[...]
POINT_DATA   768
VECTORS U float 
      0.023099      -0.000032       0.000000
      0.027457      -0.000033       0.000000
      0.026869      -0.000004       0.000000
      0.022510      -0.000004       0.000000
      0.027457      -0.000033       0.000000
      0.031470      -0.000033       0.000000
      0.030882      -0.000005       0.000000
      0.026869      -0.000004       0.000000
      0.022510      -0.000004       0.000000
      0.026869      -0.000004       0.000000
      0.026671       0.000000       0.000000
      0.022311       0.000000       0.000000
      0.026869      -0.000004       0.000000
      0.030882      -0.000005       0.000000
      0.030683       0.000000       0.000000
      0.026671       0.000000       0.000000
      0.031470      -0.000033       0.000000
      0.035191      -0.000034       0.000000
      0.034599      -0.000005       0.000000
      0.030882      -0.000005       0.000000
      0.035191      -0.000034       0.000000
      0.038662      -0.000029       0.000000
      0.038062      -0.000001       0.000000
      0.034599      -0.000005       0.000000
      0.030882      -0.000005       0.000000
      0.034599      -0.000005       0.000000
      0.034399       0.000000       0.000000
      0.030683       0.000000       0.000000
      0.034599      -0.000005       0.000000
      0.038062      -0.000001       0.000000
      0.037859       0.000000       0.000000
      0.034399       0.000000       0.000000
      0.038662      -0.000029       0.000000
      0.041918      -0.000005       0.000000
      0.041301       0.000018       0.000000
      0.038062      -0.000001       0.000000
      0.041918      -0.000005       0.000000
      0.044970       0.000068       0.000000
      0.044346       0.000072       0.000000
      0.041301       0.000018       0.000000
      0.038062      -0.000001       0.000000
      0.041301       0.000018       0.000000
      0.041098       0.000000       0.000000
      0.037859       0.000000       0.000000
      0.041301       0.000018       0.000000
      0.044346       0.000072       0.000000
      0.044159       0.000000       0.000000
      0.041098       0.000000       0.000000
      0.044970       0.000068       0.000000
      0.047770       0.000226       0.000000
      0.047226       0.000177       0.000000
      0.044346       0.000072       0.000000
      0.047770       0.000226       0.000000
      0.050000       0.000454       0.000000
      0.050000       0.000261       0.000000
      0.047226       0.000177       0.000000
      0.044346       0.000072       0.000000
      0.047226       0.000177       0.000000
      0.047102       0.000000       0.000000
      0.044159       0.000000       0.000000
      0.047226       0.000177       0.000000
      0.050000       0.000261       0.000000
      0.050000       0.000000       0.000000
      0.047102       0.000000       0.000000
      0.013063      -0.000038       0.000000
      0.015764      -0.000034       0.000000
      0.015420      -0.000015       0.000000
      0.012716      -0.000019       0.000000
      0.015764      -0.000034       0.000000
      0.018329      -0.000033       0.000000
      0.017986      -0.000014       0.000000
      0.015420      -0.000015       0.000000
      0.012716      -0.000019       0.000000
      0.015420      -0.000015       0.000000
      0.015171      -0.000005       0.000000
      0.012466      -0.000009       0.000000
      0.015420      -0.000015       0.000000
      0.017986      -0.000014       0.000000
      0.017738      -0.000004       0.000000
      0.015171      -0.000005       0.000000
      0.018329      -0.000033       0.000000
      0.020770      -0.000032       0.000000
      0.020427      -0.000014       0.000000
      0.017986      -0.000014       0.000000
      0.020770      -0.000032       0.000000
      0.023099      -0.000032       0.000000
      0.022757      -0.000014       0.000000
      0.020427      -0.000014       0.000000
      0.017986      -0.000014       0.000000
      0.020427      -0.000014       0.000000
      0.020180      -0.000004       0.000000
      0.017738      -0.000004       0.000000
      0.020427      -0.000014       0.000000
      0.022757      -0.000014       0.000000
      0.022510      -0.000004       0.000000
      0.020180      -0.000004       0.000000
      0.012466      -0.000009       0.000000
      0.015171      -0.000005       0.000000
      0.015021      -0.000001       0.000000
      0.012316      -0.000003       0.000000
      0.015171      -0.000005       0.000000
      0.017738      -0.000004       0.000000
      0.017588      -0.000000       0.000000
      0.015021      -0.000001       0.000000
      0.012316      -0.000003       0.000000
      0.015021      -0.000001       0.000000
      0.014971       0.000000       0.000000
      0.012266       0.000000       0.000000
      0.015021      -0.000001       0.000000
      0.017588      -0.000000       0.000000
      0.017538       0.000000       0.000000
      0.014971       0.000000       0.000000
      0.017738      -0.000004       0.000000
      0.020180      -0.000004       0.000000
      0.020031      -0.000000       0.000000
      0.017588      -0.000000       0.000000
      0.020180      -0.000004       0.000000
      0.022510      -0.000004       0.000000
      0.022361      -0.000000       0.000000
      0.020031      -0.000000       0.000000
      0.017588      -0.000000       0.000000
      0.020031      -0.000000       0.000000
      0.019981       0.000000       0.000000
      0.017538       0.000000       0.000000
      0.020031      -0.000000       0.000000
      0.022361      -0.000000       0.000000
      0.022311       0.000000       0.000000
      0.019981       0.000000       0.000000
      0.000000       0.000000       0.000000
      0.002053      -0.000117       0.000000
      0.001892      -0.000108       0.000000
      0.000000       0.000000       0.000000
      0.002053      -0.000117       0.000000
      0.003864      -0.000118       0.000000
      0.003677      -0.000108       0.000000
      0.001892      -0.000108       0.000000
      0.000000       0.000000       0.000000
      0.001892      -0.000108       0.000000
      0.001794      -0.000097       0.000000
      0.000000       0.000000       0.000000
      0.001892      -0.000108       0.000000
      0.003677      -0.000108       0.000000
      0.003536      -0.000099       0.000000
      0.001794      -0.000097       0.000000
      0.003864      -0.000118       0.000000
      0.005555      -0.000098       0.000000
      0.005363      -0.000088       0.000000
      0.003677      -0.000108       0.000000
      0.005555      -0.000098       0.000000
      0.007165      -0.000077       0.000000
      0.006973      -0.000067       0.000000
      0.005363      -0.000088       0.000000
      0.003677      -0.000108       0.000000
      0.005363      -0.000088       0.000000
      0.005207      -0.000079       0.000000
      0.003536      -0.000099       0.000000
      0.005363      -0.000088       0.000000
      0.006973      -0.000067       0.000000
      0.006812      -0.000058       0.000000
      0.005207      -0.000079       0.000000
      0.000000       0.000000       0.000000
      0.001794      -0.000097       0.000000
      0.001734      -0.000082       0.000000
      0.000000       0.000000       0.000000
      0.001794      -0.000097       0.000000
      0.003536      -0.000099       0.000000
      0.003434      -0.000087       0.000000
      0.001734      -0.000082       0.000000
      0.000000       0.000000       0.000000
      0.001734      -0.000082       0.000000
      0.001695      -0.000065       0.000000
      0.000000       0.000000       0.000000
      0.001734      -0.000082       0.000000
      0.003434      -0.000087       0.000000
      0.003362      -0.000073       0.000000
      0.001695      -0.000065       0.000000
      0.003536      -0.000099       0.000000
      0.005207      -0.000079       0.000000
      0.005085      -0.000070       0.000000
      0.003434      -0.000087       0.000000
      0.005207      -0.000079       0.000000
      0.006812      -0.000058       0.000000
      0.006680      -0.000051       0.000000
      0.005085      -0.000070       0.000000
      0.003434      -0.000087       0.000000
      0.005085      -0.000070       0.000000
      0.004992      -0.000059       0.000000
      0.003362      -0.000073       0.000000
      0.005085      -0.000070       0.000000
      0.006680      -0.000051       0.000000
      0.006576      -0.000042       0.000000
      0.004992      -0.000059       0.000000
      0.007165      -0.000077       0.000000
      0.008712      -0.000061       0.000000
      0.008522      -0.000050       0.000000
      0.006973      -0.000067       0.000000
      0.008712      -0.000061       0.000000
      0.010206      -0.000050       0.000000
      0.010019      -0.000039       0.000000
      0.008522      -0.000050       0.000000
      0.006973      -0.000067       0.000000
      0.008522      -0.000050       0.000000
      0.008359      -0.000042       0.000000
      0.006812      -0.000058       0.000000
      0.008522      -0.000050       0.000000
      0.010019      -0.000039       0.000000
      0.009856      -0.000031       0.000000
      0.008359      -0.000042       0.000000
      0.010206      -0.000050       0.000000
      0.011655      -0.000042       0.000000
      0.011469      -0.000032       0.000000
      0.010019      -0.000039       0.000000
      0.011655      -0.000042       0.000000
      0.013063      -0.000038       0.000000
      0.012877      -0.000027       0.000000
      0.011469      -0.000032       0.000000
      0.010019      -0.000039       0.000000
      0.011469      -0.000032       0.000000
      0.011307      -0.000024       0.000000
      0.009856      -0.000031       0.000000
      0.011469      -0.000032       0.000000
      0.012877      -0.000027       0.000000
      0.012716      -0.000019       0.000000
      0.011307      -0.000024       0.000000
      0.006812      -0.000058       0.000000
      0.008359      -0.000042       0.000000
      0.008223      -0.000035       0.000000
      0.006680      -0.000051       0.000000
      0.008359      -0.000042       0.000000
      0.009856      -0.000031       0.000000
      0.009719      -0.000024       0.000000
      0.008223      -0.000035       0.000000
      0.006680      -0.000051       0.000000
      0.008223      -0.000035       0.000000
      0.008114      -0.000029       0.000000
      0.006576      -0.000042       0.000000
      0.008223      -0.000035       0.000000
      0.009719      -0.000024       0.000000
      0.009607      -0.000019       0.000000
      0.008114      -0.000029       0.000000
      0.009856      -0.000031       0.000000
      0.011307      -0.000024       0.000000
      0.011169      -0.000017       0.000000
      0.009719      -0.000024       0.000000
      0.011307      -0.000024       0.000000
      0.012716      -0.000019       0.000000
      0.012579      -0.000013       0.000000
      0.011169      -0.000017       0.000000
      0.009719      -0.000024       0.000000
      0.011169      -0.000017       0.000000
      0.011057      -0.000012       0.000000
      0.009607      -0.000019       0.000000
      0.011169      -0.000017       0.000000
      0.012579      -0.000013       0.000000
      0.012466      -0.000009       0.000000
      0.011057      -0.000012       0.000000
      0.000000       0.000000       0.000000
      0.001695      -0.000065       0.000000
      0.001668      -0.000049       0.000000
      0.000000       0.000000       0.000000
      0.001695      -0.000065       0.000000
      0.003362      -0.000073       0.000000
      0.003312      -0.000057       0.000000
      0.001668      -0.000049       0.000000
      0.000000       0.000000       0.000000
      0.001668      -0.000049       0.000000
      0.001651      -0.000032       0.000000
      0.000000       0.000000       0.000000
      0.001668      -0.000049       0.000000
      0.003312      -0.000057       0.000000
      0.003279      -0.000039       0.000000
      0.001651      -0.000032       0.000000
      0.003362      -0.000073       0.000000
      0.004992      -0.000059       0.000000
      0.004924      -0.000047       0.000000
      0.003312      -0.000057       0.000000
      0.004992      -0.000059       0.000000
      0.006576      -0.000042       0.000000
      0.006498      -0.000033       0.000000
      0.004924      -0.000047       0.000000
      0.003312      -0.000057       0.000000
      0.004924      -0.000047       0.000000
      0.004878      -0.000032       0.000000
      0.003279      -0.000039       0.000000
      0.004924      -0.000047       0.000000
      0.006498      -0.000033       0.000000
      0.006444      -0.000023       0.000000
      0.004878      -0.000032       0.000000
      0.000000       0.000000       0.000000
      0.001651      -0.000032       0.000000
      0.001642      -0.000016       0.000000
      0.000000       0.000000       0.000000
      0.001651      -0.000032       0.000000
      0.003279      -0.000039       0.000000
      0.003260      -0.000020       0.000000
      0.001642      -0.000016       0.000000
      0.000000       0.000000       0.000000
      0.001642      -0.000016       0.000000
      0.001639       0.000000       0.000000
      0.000000       0.000000       0.000000
      0.001642      -0.000016       0.000000
      0.003260      -0.000020       0.000000
      0.003254       0.000000       0.000000
      0.001639       0.000000       0.000000
      0.003279      -0.000039       0.000000
      0.004878      -0.000032       0.000000
      0.004852      -0.000016       0.000000
      0.003260      -0.000020       0.000000
      0.004878      -0.000032       0.000000
      0.006444      -0.000023       0.000000
      0.006412      -0.000012       0.000000
      0.004852      -0.000016       0.000000
      0.003260      -0.000020       0.000000
      0.004852      -0.000016       0.000000
      0.004843       0.000000       0.000000
      0.003254       0.000000       0.000000
      0.004852      -0.000016       0.000000
      0.006412      -0.000012       0.000000
      0.006402       0.000000       0.000000
      0.004843       0.000000       0.000000
      0.006576      -0.000042       0.000000
      0.008114      -0.000029       0.000000
      0.008031      -0.000022       0.000000
      0.006498      -0.000033       0.000000
      0.008114      -0.000029       0.000000
      0.009607      -0.000019       0.000000
      0.009521      -0.000014       0.000000
      0.008031      -0.000022       0.000000
      0.006498      -0.000033       0.000000
      0.008031      -0.000022       0.000000
      0.007972      -0.000015       0.000000
      0.006444      -0.000023       0.000000
      0.008031      -0.000022       0.000000
      0.009521      -0.000014       0.000000
      0.009460      -0.000009       0.000000
      0.007972      -0.000015       0.000000
      0.009607      -0.000019       0.000000
      0.011057      -0.000012       0.000000
      0.010970      -0.000009       0.000000
      0.009521      -0.000014       0.000000
      0.011057      -0.000012       0.000000
      0.012466      -0.000009       0.000000
      0.012379      -0.000005       0.000000
      0.010970      -0.000009       0.000000
      0.009521      -0.000014       0.000000
      0.010970      -0.000009       0.000000
      0.010908      -0.000005       0.000000
      0.009460      -0.000009       0.000000
      0.010970      -0.000009       0.000000
      0.012379      -0.000005       0.000000
      0.012316      -0.000003       0.000000
      0.010908      -0.000005       0.000000
      0.006444      -0.000023       0.000000
      0.007972      -0.000015       0.000000
      0.007937      -0.000008       0.000000
      0.006412      -0.000012       0.000000
      0.007972      -0.000015       0.000000
      0.009460      -0.000009       0.000000
      0.009424      -0.000005       0.000000
      0.007937      -0.000008       0.000000
      0.006412      -0.000012       0.000000
      0.007937      -0.000008       0.000000
      0.007926       0.000000       0.000000
      0.006402       0.000000       0.000000
      0.007937      -0.000008       0.000000
      0.009424      -0.000005       0.000000
      0.009411       0.000000       0.000000
      0.007926       0.000000       0.000000
      0.009460      -0.000009       0.000000
      0.010908      -0.000005       0.000000
      0.010870      -0.000003       0.000000
      0.009424      -0.000005       0.000000
      0.010908      -0.000005       0.000000
      0.012316      -0.000003       0.000000
      0.012279      -0.000001       0.000000
      0.010870      -0.000003       0.000000
      0.009424      -0.000005       0.000000
      0.010870      -0.000003       0.000000
      0.010858       0.000000       0.000000
      0.009411       0.000000       0.000000
      0.010870      -0.000003       0.000000
      0.012279      -0.000001       0.000000
      0.012266       0.000000       0.000000
      0.010858       0.000000       0.000000
      0.022311       0.000000       0.000000
      0.026671       0.000000       0.000000
      0.026869       0.000004       0.000000
      0.022510       0.000004       0.000000
      0.026671       0.000000       0.000000
      0.030683       0.000000       0.000000
      0.030882       0.000005       0.000000
      0.026869       0.000004       0.000000
      0.022510       0.000004       0.000000
      0.026869       0.000004       0.000000
      0.027457       0.000033       0.000000
      0.023099       0.000032       0.000000
      0.026869       0.000004       0.000000
      0.030882       0.000005       0.000000
      0.031470       0.000033       0.000000
      0.027457       0.000033       0.000000
      0.030683       0.000000       0.000000
      0.034399       0.000000       0.000000
      0.034599       0.000005       0.000000
      0.030882       0.000005       0.000000
      0.034399       0.000000       0.000000
      0.037859       0.000000       0.000000
      0.038062       0.000001       0.000000
      0.034599       0.000005       0.000000
      0.030882       0.000005       0.000000
      0.034599       0.000005       0.000000
      0.035191       0.000034       0.000000
      0.031470       0.000033       0.000000
      0.034599       0.000005       0.000000
      0.038062       0.000001       0.000000
      0.038662       0.000029       0.000000
      0.035191       0.000034       0.000000
      0.037859       0.000000       0.000000
      0.041098       0.000000       0.000000
      0.041301      -0.000018       0.000000
      0.038062       0.000001       0.000000
      0.041098       0.000000       0.000000
      0.044159       0.000000       0.000000
      0.044346      -0.000072       0.000000
      0.041301      -0.000018       0.000000
      0.038062       0.000001       0.000000
      0.041301      -0.000018       0.000000
      0.041918       0.000005       0.000000
      0.038662       0.000029       0.000000
      0.041301      -0.000018       0.000000
      0.044346      -0.000072       0.000000
      0.044970      -0.000068       0.000000
      0.041918       0.000005       0.000000
      0.044159       0.000000       0.000000
      0.047102       0.000000       0.000000
      0.047226      -0.000177       0.000000
      0.044346      -0.000072       0.000000
      0.047102       0.000000       0.000000
      0.050000       0.000000       0.000000
      0.050000      -0.000261       0.000000
      0.047226      -0.000177       0.000000
      0.044346      -0.000072       0.000000
      0.047226      -0.000177       0.000000
      0.047770      -0.000226       0.000000