# vtk DataFile Version 2.0
time_10.vtk
ASCII
DATASET UNSTRUCTURED_GRID
POINTS   768 float
      1.666667      -0.583333       0.000000
      2.083333      -0.635417       0.000000
      2.083333      -0.317708       0.000000
      1.666667      -0.291667       0.000000
      2.083333      -0.635417       0.000000
      2.500000      -0.687500       0.000000
      2.500000      -0.343750       0.000000
      2.083333      -0.317708       0.000000
      1.666667      -0.291667       0.000000
      2.083333      -0.317708       0.000000
      2.083333       0.000000       0.000000
      1.666667       0.000000       0.000000
      2.083333      -0.317708       0.000000
      2.500000      -0.343750       0.000000
      2.500000       0.000000       0.000000
      2.083333       0.000000       0.000000
      2.500000      -0.687500       0.000000
      2.916667      -0.739583       0.000000
      2.916667      -0.369792       0.000000
      2.500000      -0.343750       0.000000
      2.916667      -0.739583       0.000000
      3.333333      -0.791667       0.000000
      3.333333      -0.395833       0.000000
      2.916667      -0.369792       0.000000
      2.500000      -0.343750       0.000000
      2.916667      -0.369792       0.000000
      2.916667       0.000000       0.000000
      2.500000       0.000000       0.000000
      2.916667      -0.369792       0.000000
      3.333333      -0.395833       0.000000
      3.333333       0.000000       0.000000
      2.916667       0.000000       0.000000
      3.333333      -0.791667       0.000000
      3.750000      -0.843750       0.000000
      3.750000      -0.421875       0.000000
      3.333333      -0.395833       0.000000
      3.750000      -0.843750       0.000000
      4.166667      -0.895833       0.000000
      4.166667      -0.447917       0.000000
      3.750000      -0.421875       0.000000
      3.333333      -0.395833       0.000000
      3.750000      -0.421875       0.000000
      3.750000       0.000000       0.000000
      3.333333       0.000000       0.000000
      3.750000      -0.421875       0.000000
      4.166667      -0.447917       0.000000
      4.166667       0.000000       0.000000
      3.750000       0.000000       0.000000
      4.166667      -0.895833       0.000000
      4.583333      -0.947917       0.000000
      4.583333      -0.473958       0.000000
      4.166667      -0.447917       0.000000
      4.583333      -0.947917       0.000000
      5.000000      -1.000000       0.000000
      5.000000      -0.500000       0.000000
      4.583333      -0.473958       0.000000
      4.166667      -0.447917       0.000000
      4.583333      -0.473958       0.000000
      4.583333       0.000000       0.000000
      4.166667       0.000000       0.000000
      4.583333      -0.473958       0.000000
      5.000000      -0.500000       0.000000
      5.000000       0.000000       0.000000
      4.583333       0.000000       0.000000
      0.833333      -0.479167       0.000000
      1.041667      -0.505208       0.000000
      1.041667      -0.378906       0.000000
      0.833333      -0.359375       0.000000
      1.041667      -0.505208       0.000000
      1.250000      -0.531250       0.000000
      1.250000      -0.398437       0.000000
      1.041667      -0.378906       0.000000
      0.833333      -0.359375       0.000000
      1.041667      -0.378906       0.000000
      1.041667      -0.252604       0.000000
      0.833333      -0.239583       0.000000
      1.041667      -0.378906       0.000000
      1.250000      -0.398437       0.000000
      1.250000      -0.265625       0.000000
      1.041667      -0.252604       0.000000
      1.250000      -0.531250       0.000000
      1.458333      -0.557292       0.000000
      1.458333      -0.417969       0.000000
      1.250000      -0.398437       0.000000
      1.458333      -0.557292       0.000000
      1.666667      -0.583333       0.000000
      1.666667      -0.437500       0.000000
      1.458333      -0.417969       0.000000
      1.250000      -0.398437       0.000000
      1.458333      -0.417969       0.000000
      1.458333      -0.278646       0.000000
      1.250000      -0.265625       0.000000
      1.458333      -0.417969       0.000000
      1.666667      -0.437500       0.000000
      1.666667      -0.291667       0.000000
      1.458333      -0.278646       0.000000
      0.833333      -0.239583       0.000000
      1.041667      -0.252604       0.000000
      1.041667      -0.126302       0.000000
      0.833333      -0.119792       0.000000
      1.041667      -0.252604       0.000000
      1.250000      -0.265625       0.000000
      1.250000      -0.132812       0.000000
      1.041667      -0.126302       0.000000
      0.833333      -0.119792       0.000000
      1.041667      -0.126302       0.000000
      1.041667       0.000000       0.000000
      0.833333       0.000000       0.000000
      1.041667      -0.126302       0.000000
      1.250000      -0.132812       0.000000
      1.250000       0.000000       0.000000
      1.041667       0.000000       0.000000
      1.250000      -0.265625       0.000000
      1.458333      -0.278646       0.000000
      1.458333      -0.139323       0.000000
      1.250000      -0.132812       0.000000
      1.458333      -0.278646       0.000000
      1.666667      -0.291667       0.000000
      1.666667      -0.145833       0.000000
      1.458333      -0.139323       0.000000
      1.250000      -0.132812       0.000000
      1.458333      -0.139323       0.000000
      1.458333       0.000000       0.000000
      1.250000       0.000000       0.000000
      1.458333      -0.139323       0.000000
      1.666667      -0.145833       0.000000
      1.666667       0.000000       0.000000
      1.458333       0.000000       0.000000
      0.000000      -0.375000       0.000000
      0.104167      -0.388021       0.000000
      0.104167      -0.339518       0.000000
      0.000000      -0.328125       0.000000
      0.104167      -0.388021       0.000000
      0.208333      -0.401042       0.000000
      0.208333      -0.350911       0.000000
      0.104167      -0.339518       0.000000
      0.000000      -0.328125       0.000000
      0.104167      -0.339518       0.000000
      0.104167      -0.291016       0.000000
      0.000000      -0.281250       0.000000
      0.104167      -0.339518       0.000000
      0.208333      -0.350911       0.000000
      0.208333      -0.300781       0.000000
      0.104167      -0.291016       0.000000
      0.208333      -0.401042       0.000000
      0.312500      -0.414062       0.000000
      0.312500      -0.362305       0.000000
      0.208333      -0.350911       0.000000
      0.312500      -0.414062       0.000000
      0.416667      -0.427083       0.000000
      0.416667      -0.373698       0.000000
      0.312500      -0.362305       0.000000
      0.208333      -0.350911       0.000000
      0.312500      -0.362305       0.000000
      0.312500      -0.310547       0.000000
      0.208333      -0.300781       0.000000
      0.312500      -0.362305       0.000000
      0.416667      -0.373698       0.000000
      0.416667      -0.320312       0.000000
      0.312500      -0.310547       0.000000
      0.000000      -0.281250       0.000000
      0.104167      -0.291016       0.000000
      0.104167      -0.242513       0.000000
      0.000000      -0.234375       0.000000
      0.104167      -0.291016       0.000000
      0.208333      -0.300781       0.000000
      0.208333      -0.250651       0.000000
      0.104167      -0.242513       0.000000
      0.000000      -0.234375       0.000000
      0.104167      -0.242513       0.000000
      0.104167      -0.194010       0.000000
      0.000000      -0.187500       0.000000
      0.104167      -0.242513       0.000000
      0.208333      -0.250651       0.000000
      0.208333      -0.200521       0.000000
      0.104167      -0.194010       0.000000
      0.208333      -0.300781       0.000000
      0.312500      -0.310547       0.000000
      0.312500      -0.258789       0.000000
      0.208333      -0.250651       0.000000
      0.312500      -0.310547       0.000000
      0.416667      -0.320312       0.000000
      0.416667      -0.266927       0.000000
      0.312500      -0.258789       0.000000
      0.208333      -0.250651       0.000000
      0.312500      -0.258789       0.000000
      0.312500      -0.207031       0.000000
      0.208333      -0.200521       0.000000
      0.312500      -0.258789       0.000000
      0.416667      -0.266927       0.000000
      0.416667      -0.213542       0.000000
      0.312500      -0.207031       0.000000
      0.416667      -0.427083       0.000000
      0.520833      -0.440104       0.000000
      0.520833      -0.385091       0.000000
      0.416667      -0.373698       0.000000
      0.520833      -0.440104       0.000000
      0.625000      -0.453125       0.000000
      0.625000      -0.396484       0.000000
      0.520833      -0.385091       0.000000
      0.416667      -0.373698       0.000000
      0.520833      -0.385091       0.000000
      0.520833      -0.330078       0.000000
      0.416667      -0.320312       0.000000
      0.520833      -0.385091       0.000000
      0.625000      -0.396484       0.000000
      0.625000      -0.339844       0.000000
      0.520833      -0.330078       0.000000
      0.625000      -0.453125       0.000000
      0.729167      -0.466146       0.000000
      0.729167      -0.407878       0.000000
      0.625000      -0.396484       0.000000
      0.729167      -0.466146       0.000000
      0.833333      -0.479167       0.000000
      0.833333      -0.419271       0.000000
      0.729167      -0.407878       0.000000
      0.625000      -0.396484       0.000000
      0.729167      -0.407878       0.000000
      0.729167      -0.349609       0.000000
      0.625000      -0.339844       0.000000
[...]
POINT_DATA   768
VECTORS U float 
      0.124879      -0.000158       0.000000
      0.145880      -0.000156       0.000000
      0.143068      -0.000020       0.000000
      0.122002      -0.000019       0.000000
      0.145880      -0.000156       0.000000
      0.164872      -0.000158       0.000000
      0.162103      -0.000023       0.000000
      0.143068      -0.000020       0.000000
      0.122002      -0.000019       0.000000
      0.143068      -0.000020       0.000000
      0.142118      -0.000000       0.000000
      0.121029      -0.000000       0.000000
      0.143068      -0.000020       0.000000
      0.162103      -0.000023       0.000000
      0.161167      -0.000000       0.000000
      0.142118      -0.000000       0.000000
      0.164872      -0.000158       0.000000
      0.182249      -0.000159       0.000000
      0.179500      -0.000024       0.000000
      0.162103      -0.000023       0.000000
      0.182249      -0.000159       0.000000
      0.198305      -0.000138       0.000000
      0.195539      -0.000008       0.000000
      0.179500      -0.000024       0.000000
      0.162103      -0.000023       0.000000
      0.179500      -0.000024       0.000000
      0.178568      -0.000000       0.000000
      0.161167      -0.000000       0.000000
      0.179500      -0.000024       0.000000
      0.195539      -0.000008       0.000000
      0.194601      -0.000000       0.000000
      0.178568      -0.000000       0.000000
      0.198305      -0.000138       0.000000
      0.213255      -0.000028       0.000000
      0.210426       0.000077       0.000000
      0.195539      -0.000008       0.000000
      0.213255      -0.000028       0.000000
      0.227193       0.000307       0.000000
      0.224330       0.000327       0.000000
      0.210426       0.000077       0.000000
      0.195539      -0.000008       0.000000
      0.210426       0.000077       0.000000
      0.209489      -0.000000       0.000000
      0.194601      -0.000000       0.000000
      0.210426       0.000077       0.000000
      0.224330       0.000327       0.000000
      0.223467      -0.000000       0.000000
      0.209489      -0.000000       0.000000
      0.227193       0.000307       0.000000
      0.239916       0.001035       0.000000
      0.237423       0.000810       0.000000
      0.224330       0.000327       0.000000
      0.239916       0.001035       0.000000
      0.250000       0.002074       0.000000
      0.250000       0.001197       0.000000
      0.237423       0.000810       0.000000
      0.224330       0.000327       0.000000
      0.237423       0.000810       0.000000
      0.236851      -0.000000       0.000000
      0.223467      -0.000000       0.000000
      0.237423       0.000810       0.000000
      0.250000       0.001197       0.000000
      0.250000      -0.000000       0.000000
      0.236851      -0.000000       0.000000
      0.074236      -0.000196       0.000000
      0.088277      -0.000171       0.000000
      0.086505      -0.000074       0.000000
      0.072401      -0.000097       0.000000
      0.088277      -0.000171       0.000000
      0.101297      -0.000162       0.000000
      0.099569      -0.000068       0.000000
      0.086505      -0.000074       0.000000
      0.072401      -0.000097       0.000000
      0.086505      -0.000074       0.000000
      0.085219      -0.000023       0.000000
      0.071071      -0.000042       0.000000
      0.086505      -0.000074       0.000000
      0.099569      -0.000068       0.000000
      0.098318      -0.000019       0.000000
      0.085219      -0.000023       0.000000
      0.101297      -0.000162       0.000000
      0.113457      -0.000159       0.000000
      0.111761      -0.000067       0.000000
      0.099569      -0.000068       0.000000
      0.113457      -0.000159       0.000000
      0.124879      -0.000158       0.000000
      0.123209      -0.000067       0.000000
      0.111761      -0.000067       0.000000
      0.099569      -0.000068       0.000000
      0.111761      -0.000067       0.000000
      0.110535      -0.000019       0.000000
      0.098318      -0.000019       0.000000
      0.111761      -0.000067       0.000000
      0.123209      -0.000067       0.000000
      0.122002      -0.000019       0.000000
      0.110535      -0.000019       0.000000
      0.071071      -0.000042       0.000000
      0.085219      -0.000023       0.000000
      0.084440      -0.000004       0.000000
      0.070266      -0.000014       0.000000
      0.085219      -0.000023       0.000000
      0.098318      -0.000019       0.000000
      0.097560      -0.000002       0.000000
      0.084440      -0.000004       0.000000
      0.070266      -0.000014       0.000000
      0.084440      -0.000004       0.000000
      0.084179      -0.000000       0.000000
      0.069997      -0.000000       0.000000
      0.084440      -0.000004       0.000000
      0.097560      -0.000002       0.000000
      0.097306      -0.000000       0.000000
      0.084179      -0.000000       0.000000
      0.098318      -0.000019       0.000000
      0.110535      -0.000019       0.000000
      0.109794      -0.000001       0.000000
      0.097560      -0.000002       0.000000
      0.110535      -0.000019       0.000000
      0.122002      -0.000019       0.000000
      0.121273      -0.000002       0.000000
      0.109794      -0.000001       0.000000
      0.097560      -0.000002       0.000000
      0.109794      -0.000001       0.000000
      0.109545      -0.000000       0.000000
      0.097306      -0.000000       0.000000
      0.109794      -0.000001       0.000000
      0.121273      -0.000002       0.000000
      0.121029      -0.000000       0.000000
      0.109545      -0.000000       0.000000
      0.000000       0.000000       0.000000
      0.012335      -0.000708       0.000000
      0.011364      -0.000655       0.000000
      0.000000       0.000000       0.000000
      0.012335      -0.000708       0.000000
      0.023070      -0.000701       0.000000
      0.021962      -0.000643       0.000000
      0.011364      -0.000655       0.000000
      0.000000       0.000000       0.000000
      0.011364      -0.000655       0.000000
      0.010773      -0.000585       0.000000
      0.000000       0.000000       0.000000
      0.011364      -0.000655       0.000000
      0.021962      -0.000643       0.000000
      0.021125      -0.000588       0.000000
      0.010773      -0.000585       0.000000
      0.023070      -0.000701       0.000000
      0.032916      -0.000572       0.000000
      0.031799      -0.000511       0.000000
      0.021962      -0.000643       0.000000
      0.032916      -0.000572       0.000000
      0.042101      -0.000440       0.000000
      0.041009      -0.000380       0.000000
      0.031799      -0.000511       0.000000
      0.021962      -0.000643       0.000000
      0.031799      -0.000511       0.000000
      0.030887      -0.000461       0.000000
      0.021125      -0.000588       0.000000
      0.031799      -0.000511       0.000000
      0.041009      -0.000380       0.000000
      0.040084      -0.000332       0.000000
      0.030887      -0.000461       0.000000
      0.000000       0.000000       0.000000
      0.010773      -0.000585       0.000000
      0.010405      -0.000494       0.000000
      0.000000       0.000000       0.000000
      0.010773      -0.000585       0.000000
      0.021125      -0.000588       0.000000
      0.020511      -0.000521       0.000000
      0.010405      -0.000494       0.000000
      0.000000       0.000000       0.000000
      0.010405      -0.000494       0.000000
      0.010161      -0.000395       0.000000
      0.000000       0.000000       0.000000
      0.010405      -0.000494       0.000000
      0.020511      -0.000521       0.000000
      0.020070      -0.000438       0.000000
      0.010161      -0.000395       0.000000
      0.021125      -0.000588       0.000000
      0.030887      -0.000461       0.000000
      0.030164      -0.000408       0.000000
      0.020511      -0.000521       0.000000
      0.030887      -0.000461       0.000000
      0.040084      -0.000332       0.000000
      0.039323      -0.000287       0.000000
      0.030164      -0.000408       0.000000
      0.020511      -0.000521       0.000000
      0.030164      -0.000408       0.000000
      0.029610      -0.000346       0.000000
      0.020070      -0.000438       0.000000
      0.030164      -0.000408       0.000000
      0.039323      -0.000287       0.000000
      0.038719      -0.000240       0.000000
      0.029610      -0.000346       0.000000
      0.042101      -0.000440       0.000000
      0.050752      -0.000339       0.000000
      0.049693      -0.000279       0.000000
      0.041009      -0.000380       0.000000
      0.050752      -0.000339       0.000000
      0.058954      -0.000269       0.000000
      0.057926      -0.000210       0.000000
      0.049693      -0.000279       0.000000
      0.041009      -0.000380       0.000000
      0.049693      -0.000279       0.000000
      0.048779      -0.000233       0.000000
      0.040084      -0.000332       0.000000
      0.049693      -0.000279       0.000000
      0.057926      -0.000210       0.000000
      0.057032      -0.000165       0.000000
      0.048779      -0.000233       0.000000
      0.058954      -0.000269       0.000000
      0.066767      -0.000224       0.000000
      0.065766      -0.000167       0.000000
      0.057926      -0.000210       0.000000
      0.066767      -0.000224       0.000000
      0.074236      -0.000196       0.000000
      0.073257      -0.000140       0.000000
      0.065766      -0.000167       0.000000
      0.057926      -0.000210       0.000000
      0.065766      -0.000167       0.000000
      0.064892      -0.000122       0.000000
      0.057032      -0.000165       0.000000
      0.065766      -0.000167       0.000000
      0.073257      -0.000140       0.000000
      0.072401      -0.000097       0.000000
      0.064892      -0.000122       0.000000
      0.040084      -0.000332       0.000000
      0.048779      -0.000233       0.000000
      0.048013      -0.000193       0.000000
      0.039323      -0.000287       0.000000
      0.048779      -0.000233       0.000000
      0.057032      -0.000165       0.000000
      0.056274      -0.000129       0.000000
      0.048013      -0.000193       0.000000
      0.039323      -0.000287       0.000000
      0.048013      -0.000193       0.000000
      0.047393      -0.000157       0.000000
      0.038719      -0.000240       0.000000
      0.048013      -0.000193       0.000000
      0.056274      -0.000129       0.000000
      0.055655      -0.000099       0.000000
      0.047393      -0.000157       0.000000
      0.057032      -0.000165       0.000000
      0.064892      -0.000122       0.000000
      0.064148      -0.000089       0.000000
      0.056274      -0.000129       0.000000
      0.064892      -0.000122       0.000000
      0.072401      -0.000097       0.000000
      0.071671      -0.000065       0.000000
      0.064148      -0.000089       0.000000
      0.056274      -0.000129       0.000000
      0.064148      -0.000089       0.000000
      0.063537      -0.000063       0.000000
      0.055655      -0.000099       0.000000
      0.064148      -0.000089       0.000000
      0.071671      -0.000065       0.000000
      0.071071      -0.000042       0.000000
      0.063537      -0.000063       0.000000
      0.000000       0.000000       0.000000
      0.010161      -0.000395       0.000000
      0.009997      -0.000295       0.000000
      0.000000       0.000000       0.000000
      0.010161      -0.000395       0.000000
      0.020070      -0.000438       0.000000
      0.019761      -0.000340       0.000000
      0.009997      -0.000295       0.000000
      0.000000       0.000000       0.000000
      0.009997      -0.000295       0.000000
      0.009890      -0.000196       0.000000
      0.000000       0.000000       0.000000
      0.009997      -0.000295       0.000000
      0.019761      -0.000340       0.000000
      0.019556      -0.000231       0.000000
      0.009890      -0.000196       0.000000
      0.020070      -0.000438       0.000000
      0.029610      -0.000346       0.000000
      0.029204      -0.000273       0.000000
      0.019761      -0.000340       0.000000
      0.029610      -0.000346       0.000000
      0.038719      -0.000240       0.000000
      0.038263      -0.000188       0.000000
      0.029204      -0.000273       0.000000
      0.019761      -0.000340       0.000000
      0.029204      -0.000273       0.000000
      0.028927      -0.000188       0.000000
      0.019556      -0.000231       0.000000
      0.029204      -0.000273       0.000000
      0.038263      -0.000188       0.000000
      0.037945      -0.000130       0.000000
      0.028927      -0.000188       0.000000
      0.000000       0.000000       0.000000
      0.009890      -0.000196       0.000000
      0.009830      -0.000097       0.000000
      0.000000       0.000000       0.000000
      0.009890      -0.000196       0.000000
      0.019556      -0.000231       0.000000
      0.019439      -0.000117       0.000000
      0.009830      -0.000097       0.000000
      0.000000       0.000000       0.000000
      0.009830      -0.000097       0.000000
      0.009811       0.000000       0.000000
      0.000000       0.000000       0.000000
      0.009830      -0.000097       0.000000
      0.019439      -0.000117       0.000000
      0.019401       0.000000       0.000000
      0.009811       0.000000       0.000000
      0.019556      -0.000231       0.000000
      0.028927      -0.000188       0.000000
      0.028766      -0.000096       0.000000
      0.019439      -0.000117       0.000000
      0.028927      -0.000188       0.000000
      0.037945      -0.000130       0.000000
      0.037757      -0.000066       0.000000
      0.028766      -0.000096       0.000000
      0.019439      -0.000117       0.000000
      0.028766      -0.000096       0.000000
      0.028714      -0.000000       0.000000
      0.019401       0.000000       0.000000
      0.028766      -0.000096       0.000000
      0.037757      -0.000066       0.000000
      0.037695      -0.000000       0.000000
      0.028714      -0.000000       0.000000
      0.038719      -0.000240       0.000000
      0.047393      -0.000157       0.000000
      0.046917      -0.000120       0.000000
      0.038263      -0.000188       0.000000
      0.047393      -0.000157       0.000000
      0.055655      -0.000099       0.000000
      0.055175      -0.000073       0.000000
      0.046917      -0.000120       0.000000
      0.038263      -0.000188       0.000000
      0.046917      -0.000120       0.000000
      0.046580      -0.000082       0.000000
      0.037945      -0.000130       0.000000
      0.046917      -0.000120       0.000000
      0.055175      -0.000073       0.000000
      0.054834      -0.000048       0.000000
      0.046580      -0.000082       0.000000
      0.055655      -0.000099       0.000000
      0.063537      -0.000063       0.000000
      0.063061      -0.000043       0.000000
      0.055175      -0.000073       0.000000
      0.063537      -0.000063       0.000000
      0.071071      -0.000042       0.000000
      0.070602      -0.000026       0.000000
      0.063061      -0.000043       0.000000
      0.055175      -0.000073       0.000000
      0.063061      -0.000043       0.000000
      0.062721      -0.000027       0.000000
      0.054834      -0.000048       0.000000
      0.063061      -0.000043       0.000000
      0.070602      -0.000026       0.000000
      0.070266      -0.000014       0.000000
      0.062721      -0.000027       0.000000
      0.037945      -0.000130       0.000000
      0.046580      -0.000082       0.000000
      0.046380      -0.000041       0.000000
      0.037757      -0.000066       0.000000
      0.046580      -0.000082       0.000000
      0.054834      -0.000048       0.000000
      0.054629      -0.000024       0.000000
      0.046380      -0.000041       0.000000
      0.037757      -0.000066       0.000000
      0.046380      -0.000041       0.000000
      0.046314      -0.000000       0.000000
      0.037695      -0.000000       0.000000
      0.046380      -0.000041       0.000000
      0.054629      -0.000024       0.000000
      0.054561      -0.000000       0.000000
      0.046314      -0.000000       0.000000
      0.054834      -0.000048       0.000000
      0.062721      -0.000027       0.000000
      0.062517      -0.000013       0.000000
      0.054629      -0.000024       0.000000
      0.062721      -0.000027       0.000000
      0.070266      -0.000014       0.000000
      0.070064      -0.000006       0.000000
      0.062517      -0.000013       0.000000
      0.054629      -0.000024       0.000000
      0.062517      -0.000013       0.000000
      0.062448      -0.000000       0.000000
      0.054561      -0.000000       0.000000
      0.062517      -0.000013       0.000000
      0.070064      -0.000006       0.000000
      0.069997      -0.000000       0.000000
      0.062448      -0.000000       0.000000
      0.121029      -0.000000       0.000000
      0.142118      -0.000000       0.000000
      0.143068       0.000020       0.000000
      0.122002       0.000019       0.000000
      0.142118      -0.000000       0.000000
      0.161167      -0.000000       0.000000
      0.162103       0.000023       0.000000
      0.143068       0.000020       0.000000
      0.122002       0.000019       0.000000
      0.143068       0.000020       0.000000
      0.145880       0.000156       0.000000
      0.124879       0.000158       0.000000
      0.143068       0.000020       0.000000
      0.162103       0.000023       0.000000
      0.164872       0.000158       0.000000
      0.145880       0.000156       0.000000
      0.161167      -0.000000       0.000000
      0.178568      -0.000000       0.000000
      0.179500       0.000024       0.000000
      0.162103       0.000023       0.000000
      0.178568      -0.000000       0.000000
      0.194601      -0.000000       0.000000
      0.195539       0.000008       0.000000
      0.179500       0.000024       0.000000
      0.162103       0.000023       0.000000
      0.179500       0.000024       0.000000
      0.182249       0.000159       0.000000
      0.164872       0.000158       0.000000
      0.179500       0.000024       0.000000
      0.195539       0.000008       0.000000
      0.198305       0.000138       0.000000
      0.182249       0.000159       0.000000
      0.194601      -0.000000       0.000000
      0.209489      -0.000000       0.000000
      0.210426      -0.000077       0.000000
      0.195539       0.000008       0.000000
      0.209489      -0.000000       0.000000
      0.223467      -0.000000       0.000000
      0.224330      -0.000327       0.000000
      0.210426      -0.000077       0.000000
      0.195539       0.000008       0.000000
      0.210426      -0.000077       0.000000
      0.213255       0.000028       0.000000
      0.198305       0.000138       0.000000
      0.210426      -0.000077       0.000000
      0.224330      -0.000327       0.000000
      0.227193      -0.000307       0.000000
      0.213255       0.000028       0.000000
      0.223467      -0.000000       0.000000
      0.236851      -0.000000       0.000000
      0.237423      -0.000810       0.000000
      0.224330      -0.000327       0.000000
      0.236851      -0.000000       0.000000
      0.250000      -0.000000       0.000000
      0.250000      -0.001197       0.000000
      0.237423      -0.000810       0.000000
      0.224330      -0.000327       0.000000
      0.237423      -0.000810       0.000000
      0.239916      -0.001035       0.000000