# vtk DataFile Version 2.0
time_10.vtk
ASCII
DATASET UNSTRUCTURED_GRID
POINTS   768 float
      1.666667      -0.583333       0.000000
      2.083333      -0.635417       0.000000
      2.083333      -0.317708       0.000000
      1.666667      -0.291667       0.000000
      2.083333      -0.635417       0.000000
      2.500000      -0.687500       0.000000
      2.500000      -0.343750       0.000000
      2.083333      -0.317708       0.000000
      1.666667      -0.291667       0.000000
      2.083333      -0.317708       0.000000
      2.083333       0.000000       0.000000
      1.666667       0.000000       0.000000
      2.083333      -0.317708       0.000000
      2.500000      -0.343750       0.000000
      2.500000       0.000000       0.000000
      2.083333       0.000000       0.000000
      2.500000      -0.687500       0.000000
      2.916667      -0.739583       0.000000
      2.916667      -0.369792       0.000000
      2.500000      -0.343750       0.000000
      2.916667      -0.739583       0.000000
      3.333333      -0.791667       0.000000
      3.333333      -0.395833       0.000000
      2.916667      -0.369792       0.000000
      2.500000      -0.343750       0.000000
      2.916667      -0.369792       0.000000
      2.916667       0.000000       0.000000
      2.500000       0.000000       0.000000
      2.916667      -0.369792       0.000000
      3.333333      -0.395833       0.000000
      3.333333       0.000000       0.000000
      2.916667       0.000000       0.000000
      3.333333      -0.791667       0.000000
      3.750000      -0.843750       0.000000
      3.750000      -0.421875       0.000000
      3.333333      -0.395833       0.000000
      3.750000      -0.843750       0.000000
      4.166667      -0.895833       0.000000
      4.166667      -0.447917       0.000000
      3.750000      -0.421875       0.000000
      3.333333      -0.395833       0.000000
      3.750000      -0.421875       0.000000
      3.750000       0.000000       0.000000
      3.333333       0.000000       0.000000
      3.750000      -0.421875       0.000000
      4.166667      -0.447917       0.000000
      4.166667       0.000000       0.000000
      3.750000       0.000000       0.000000
      4.166667      -0.895833       0.000000
      4.583333      -0.947917       0.000000
      4.583333      -0.473958       0.000000
      4.166667      -0.447917       0.000000
      4.583333      -0.947917       0.000000
      5.000000      -1.000000       0.000000
      5.000000      -0.500000       0.000000
      4.583333      -0.473958       0.000000
      4.166667      -0.447917       0.000000
      4.583333      -0.473958       0.000000
      4.583333       0.000000       0.000000
      4.166667       0.000000       0.000000
      4.583333      -0.473958       0.000000
      5.000000      -0.500000       0.000000
      5.000000       0.000000       0.000000
      4.583333       0.000000       0.000000
      0.833333      -0.479167       0.000000
      1.041667      -0.505208       0.000000
      1.041667      -0.378906       0.000000
      0.833333      -0.359375       0.000000
      1.041667      -0.505208       0.000000
      1.250000      -0.531250       0.000000
      1.250000      -0.398437       0.000000
      1.041667      -0.378906       0.000000
      0.833333      -0.359375       0.000000
      1.041667      -0.378906       0.000000
      1.041667      -0.252604       0.000000
      0.833333      -0.239583       0.000000
      1.041667      -0.378906       0.000000
      1.250000      -0.398437       0.000000
      1.250000      -0.265625       0.000000
      1.041667      -0.252604       0.000000
      1.250000      -0.531250       0.000000
      1.458333      -0.557292       0.000000
      1.458333      -0.417969       0.000000
      1.250000      -0.398437       0.000000
      1.458333      -0.557292       0.000000
      1.666667      -0.583333       0.000000
      1.666667      -0.437500       0.000000
      1.458333      -0.417969       0.000000
      1.250000      -0.398437       0.000000
      1.458333      -0.417969       0.000000
      1.458333      -0.278646       0.000000
      1.250000      -0.265625       0.000000
      1.458333      -0.417969       0.000000
      1.666667      -0.437500       0.000000
      1.666667      -0.291667       0.000000
      1.458333      -0.278646       0.000000
      0.833333      -0.239583       0.000000
      1.041667      -0.252604       0.000000
      1.041667      -0.126302       0.000000
      0.833333      -0.119792       0.000000
      1.041667      -0.252604       0.000000
      1.250000      -0.265625       0.000000
      1.250000      -0.132812       0.000000
      1.041667      -0.126302       0.000000
      0.833333      -0.119792       0.000000
      1.041667      -0.126302       0.000000
      1.041667       0.000000       0.000000
      0.833333       0.000000       0.000000
      1.041667      -0.126302       0.000000
      1.250000      -0.132812       0.000000
      1.250000       0.000000       0.000000
      1.041667       0.000000       0.000000
      1.250000      -0.265625       0.000000
      1.458333      -0.278646       0.000000
      1.458333      -0.139323       0.000000
      1.250000      -0.132812       0.000000
      1.458333      -0.278646       0.000000
      1.666667      -0.291667       0.000000
      1.666667      -0.145833       0.000000
      1.458333      -0.139323       0.000000
      1.250000      -0.132812       0.000000
      1.458333      -0.139323       0.000000
      1.458333       0.000000       0.000000
      1.250000       0.000000       0.000000
      1.458333      -0.139323       0.000000
      1.666667      -0.145833       0.000000
      1.666667       0.000000       0.000000
      1.458333       0.000000       0.000000
      0.000000      -0.375000       0.000000
      0.104167      -0.388021       0.000000
      0.104167      -0.339518       0.000000
      0.000000      -0.328125       0.000000
      0.104167      -0.388021       0.000000
      0.208333      -0.401042       0.000000
      0.208333      -0.350911       0.000000
      0.104167      -0.339518       0.000000
      0.000000      -0.328125       0.000000
      0.104167      -0.339518       0.000000
      0.104167      -0.291016       0.000000
      0.000000      -0.281250       0.000000
      0.104167      -0.339518       0.000000
      0.208333      -0.350911       0.000000
      0.208333      -0.300781       0.000000
      0.104167      -0.291016       0.000000
      0.208333      -0.401042       0.000000
      0.312500      -0.414062       0.000000
      0.312500      -0.362305       0.000000
      0.208333      -0.350911       0.000000
      0.312500      -0.414062       0.000000
      0.416667      -0.427083       0.000000
      0.416667      -0.373698       0.000000
      0.312500      -0.362305       0.000000
      0.208333      -0.350911       0.000000
      0.312500      -0.362305       0.000000
      0.312500      -0.310547       0.000000
      0.208333      -0.300781       0.000000
      0.312500      -0.362305       0.000000
      0.416667      -0.373698       0.000000
      0.416667      -0.320312       0.000000
      0.312500      -0.310547       0.000000
      0.000000      -0.281250       0.000000
      0.104167      -0.291016       0.000000
      0.104167      -0.242513       0.000000
      0.000000      -0.234375       0.000000
      0.104167      -0.291016       0.000000
      0.208333      -0.300781       0.000000
      0.208333      -0.250651       0.000000
      0.104167      -0.242513       0.000000
      0.000000      -0.234375       0.000000
      0.104167      -0.242513       0.000000
      0.104167      -0.194010       0.000000
      0.000000      -0.187500       0.000000
      0.104167      -0.242513       0.000000
      0.208333      -0.250651       0.000000
      0.208333      -0.200521       0.000000
      0.104167      -0.194010       0.000000
      0.208333      -0.300781       0.000000
      0.312500      -0.310547       0.000000
      0.312500      -0.258789       0.000000
      0.208333      -0.250651       0.000000
      0.312500      -0.310547       0.000000
      0.416667      -0.320312       0.000000
      0.416667      -0.266927       0.000000
      0.312500      -0.258789       0.000000
      0.208333      -0.250651       0.000000
      0.312500      -0.258789       0.000000
      0.312500      -0.207031       0.000000
      0.208333      -0.200521       0.000000
      0.312500      -0.258789       0.000000
      0.416667      -0.266927       0.000000
      0.416667      -0.213542       0.000000
      0.312500      -0.207031       0.000000
      0.416667      -0.427083       0.000000
      0.520833      -0.440104       0.000000
      0.520833      -0.385091       0.000000
      0.416667      -0.373698       0.000000
      0.520833      -0.440104       0.000000
      0.625000      -0.453125       0.000000
      0.625000      -0.396484       0.000000
      0.520833      -0.385091       0.000000
      0.416667      -0.373698       0.000000
      0.520833      -0.385091       0.000000
      0.520833      -0.330078       0.000000
      0.416667      -0.320312       0.000000
      0.520833      -0.385091       0.000000
      0.625000      -0.396484       0.000000
      0.625000      -0.339844       0.000000
      0.520833      -0.330078       0.000000
      0.625000      -0.453125       0.000000
      0.729167      -0.466146       0.000000
      0.729167      -0.407878       0.000000
      0.625000      -0.396484       0.000000
      0.729167      -0.466146       0.000000
      0.833333      -0.479167       0.000000
      0.833333      -0.419271       0.000000
      0.729167      -0.407878       0.000000
      0.625000      -0.396484       0.000000
      0.729167      -0.407878       0.000000
      0.729167      -0.349609       0.000000
      0.625000      -0.339844       0.000000
[...]
POINT_DATA   768
VECTORS U float 
      0.070816      -0.000097       0.000000
      0.083799      -0.000097       0.000000
      0.082051      -0.000013       0.000000
      0.069055      -0.000012       0.000000
      0.083799      -0.000097       0.000000
      0.095683      -0.000099       0.000000
      0.093944      -0.000014       0.000000
      0.082051      -0.000013       0.000000
      0.069055      -0.000012       0.000000
      0.082051      -0.000013       0.000000
      0.081461      -0.000000       0.000000
      0.068460       0.000000       0.000000
      0.082051      -0.000013       0.000000
      0.093944      -0.000014       0.000000
      0.093356       0.000000       0.000000
      0.081461      -0.000000       0.000000
      0.095683      -0.000099       0.000000
      0.106653      -0.000100       0.000000
      0.104912      -0.000015       0.000000
      0.093944      -0.000014       0.000000
      0.106653      -0.000100       0.000000
      0.116853      -0.000086       0.000000
      0.115092      -0.000004       0.000000
      0.104912      -0.000015       0.000000
      0.093944      -0.000014       0.000000
      0.104912      -0.000015       0.000000
      0.104323      -0.000000       0.000000
      0.093356       0.000000       0.000000
      0.104912      -0.000015       0.000000
      0.115092      -0.000004       0.000000
      0.114496      -0.000000       0.000000
      0.104323      -0.000000       0.000000
      0.116853      -0.000086       0.000000
      0.126396      -0.000015       0.000000
      0.124590       0.000051       0.000000
      0.115092      -0.000004       0.000000
      0.126396      -0.000015       0.000000
      0.135325       0.000199       0.000000
      0.133496       0.000210       0.000000
      0.124590       0.000051       0.000000
      0.115092      -0.000004       0.000000
      0.124590       0.000051       0.000000
      0.123994      -0.000000       0.000000
      0.114496      -0.000000       0.000000
      0.124590       0.000051       0.000000
      0.133496       0.000210       0.000000
      0.132947       0.000000       0.000000
      0.123994      -0.000000       0.000000
      0.135325       0.000199       0.000000
      0.143501       0.000662       0.000000
      0.141906       0.000518       0.000000
      0.133496       0.000210       0.000000
      0.143501       0.000662       0.000000
      0.150000       0.001328       0.000000
      0.150000       0.000764       0.000000
      0.141906       0.000518       0.000000
      0.133496       0.000210       0.000000
      0.141906       0.000518       0.000000
      0.141543      -0.000000       0.000000
      0.132947       0.000000       0.000000
      0.141906       0.000518       0.000000
      0.150000       0.000764       0.000000
      0.150000      -0.000000       0.000000
      0.141543      -0.000000       0.000000
      0.040530      -0.000115       0.000000
      0.048746      -0.000102       0.000000
      0.047702      -0.000045       0.000000
      0.039471      -0.000057       0.000000
      0.048746      -0.000102       0.000000
      0.056500      -0.000098       0.000000
      0.055465      -0.000041       0.000000
      0.047702      -0.000045       0.000000
      0.039471      -0.000057       0.000000
      0.047702      -0.000045       0.000000
      0.046947      -0.000015       0.000000
      0.038707      -0.000026       0.000000
      0.047702      -0.000045       0.000000
      0.055465      -0.000041       0.000000
      0.054718      -0.000012       0.000000
      0.046947      -0.000015       0.000000
      0.056500      -0.000098       0.000000
      0.063843      -0.000097       0.000000
      0.062814      -0.000041       0.000000
      0.055465      -0.000041       0.000000
      0.063843      -0.000097       0.000000
      0.070816      -0.000097       0.000000
      0.069793      -0.000041       0.000000
      0.062814      -0.000041       0.000000
      0.055465      -0.000041       0.000000
      0.062814      -0.000041       0.000000
      0.062072      -0.000012       0.000000
      0.054718      -0.000012       0.000000
      0.062814      -0.000041       0.000000
      0.069793      -0.000041       0.000000
      0.069055      -0.000012       0.000000
      0.062072      -0.000012       0.000000
      0.038707      -0.000026       0.000000
      0.046947      -0.000015       0.000000
      0.046491      -0.000003       0.000000
      0.038247      -0.000009       0.000000
      0.046947      -0.000015       0.000000
      0.054718      -0.000012       0.000000
      0.054266      -0.000001       0.000000
      0.046491      -0.000003       0.000000
      0.038247      -0.000009       0.000000
      0.046491      -0.000003       0.000000
      0.046338      -0.000000       0.000000
      0.038094      -0.000000       0.000000
      0.046491      -0.000003       0.000000
      0.054266      -0.000001       0.000000
      0.054114      -0.000000       0.000000
      0.046338      -0.000000       0.000000
      0.054718      -0.000012       0.000000
      0.062072      -0.000012       0.000000
      0.061624      -0.000001       0.000000
      0.054266      -0.000001       0.000000
      0.062072      -0.000012       0.000000
      0.069055      -0.000012       0.000000
      0.068609      -0.000001       0.000000
      0.061624      -0.000001       0.000000
      0.054266      -0.000001       0.000000
      0.061624      -0.000001       0.000000
      0.061474       0.000000       0.000000
      0.054114      -0.000000       0.000000
      0.061624      -0.000001       0.000000
      0.068609      -0.000001       0.000000
      0.068460       0.000000       0.000000
      0.061474       0.000000       0.000000
      0.000000       0.000000       0.000000
      0.006449      -0.000369       0.000000
      0.005940      -0.000341       0.000000
      0.000000       0.000000       0.000000
      0.006449      -0.000369       0.000000
      0.012118      -0.000369       0.000000
      0.011532      -0.000338       0.000000
      0.005940      -0.000341       0.000000
      0.000000       0.000000       0.000000
      0.005940      -0.000341       0.000000
      0.005634      -0.000305       0.000000
      0.000000       0.000000       0.000000
      0.005940      -0.000341       0.000000
      0.011532      -0.000338       0.000000
      0.011092      -0.000309       0.000000
      0.005634      -0.000305       0.000000
      0.012118      -0.000369       0.000000
      0.017395      -0.000306       0.000000
      0.016795      -0.000273       0.000000
      0.011532      -0.000338       0.000000
      0.017395      -0.000306       0.000000
      0.022395      -0.000240       0.000000
      0.021800      -0.000207       0.000000
      0.016795      -0.000273       0.000000
      0.011532      -0.000338       0.000000
      0.016795      -0.000273       0.000000
      0.016308      -0.000246       0.000000
      0.011092      -0.000309       0.000000
      0.016795      -0.000273       0.000000
      0.021800      -0.000207       0.000000
      0.021298      -0.000181       0.000000
      0.016308      -0.000246       0.000000
      0.000000       0.000000       0.000000
      0.005634      -0.000305       0.000000
      0.005444      -0.000257       0.000000
      0.000000       0.000000       0.000000
      0.005634      -0.000305       0.000000
      0.011092      -0.000309       0.000000
      0.010772      -0.000274       0.000000
      0.005444      -0.000257       0.000000
      0.000000       0.000000       0.000000
      0.005444      -0.000257       0.000000
      0.005319      -0.000206       0.000000
      0.000000       0.000000       0.000000
      0.005444      -0.000257       0.000000
      0.010772      -0.000274       0.000000
      0.010543      -0.000230       0.000000
      0.005319      -0.000206       0.000000
      0.011092      -0.000309       0.000000
      0.016308      -0.000246       0.000000
      0.015925      -0.000218       0.000000
      0.010772      -0.000274       0.000000
      0.016308      -0.000246       0.000000
      0.021298      -0.000181       0.000000
      0.020887      -0.000157       0.000000
      0.015925      -0.000218       0.000000
      0.010772      -0.000274       0.000000
      0.015925      -0.000218       0.000000
      0.015633      -0.000185       0.000000
      0.010543      -0.000230       0.000000
      0.015925      -0.000218       0.000000
      0.020887      -0.000157       0.000000
      0.020563      -0.000131       0.000000
      0.015633      -0.000185       0.000000
      0.022395      -0.000240       0.000000
      0.027180      -0.000188       0.000000
      0.026593      -0.000156       0.000000
      0.021800      -0.000207       0.000000
      0.027180      -0.000188       0.000000
      0.031783      -0.000153       0.000000
      0.031205      -0.000120       0.000000
      0.026593      -0.000156       0.000000
      0.021800      -0.000207       0.000000
      0.026593      -0.000156       0.000000
      0.026089      -0.000130       0.000000
      0.021298      -0.000181       0.000000
      0.026593      -0.000156       0.000000
      0.031205      -0.000120       0.000000
      0.030704      -0.000094       0.000000
      0.026089      -0.000130       0.000000
      0.031783      -0.000153       0.000000
      0.036228      -0.000129       0.000000
      0.035657      -0.000097       0.000000
      0.031205      -0.000120       0.000000
      0.036228      -0.000129       0.000000
      0.040530      -0.000115       0.000000
      0.039965      -0.000082       0.000000
      0.035657      -0.000097       0.000000
      0.031205      -0.000120       0.000000
      0.035657      -0.000097       0.000000
      0.035160      -0.000071       0.000000
      0.030704      -0.000094       0.000000
      0.035657      -0.000097       0.000000
      0.039965      -0.000082       0.000000
      0.039471      -0.000057       0.000000
      0.035160      -0.000071       0.000000
      0.021298      -0.000181       0.000000
      0.026089      -0.000130       0.000000
      0.025668      -0.000108       0.000000
      0.020887      -0.000157       0.000000
      0.026089      -0.000130       0.000000
      0.030704      -0.000094       0.000000
      0.030280      -0.000074       0.000000
      0.025668      -0.000108       0.000000
      0.020887      -0.000157       0.000000
      0.025668      -0.000108       0.000000
      0.025329      -0.000088       0.000000
      0.020563      -0.000131       0.000000
      0.025668      -0.000108       0.000000
      0.030280      -0.000074       0.000000
      0.029936      -0.000057       0.000000
      0.025329      -0.000088       0.000000
      0.030704      -0.000094       0.000000
      0.035160      -0.000071       0.000000
      0.034738      -0.000052       0.000000
      0.030280      -0.000074       0.000000
      0.035160      -0.000071       0.000000
      0.039471      -0.000057       0.000000
      0.039052      -0.000039       0.000000
      0.034738      -0.000052       0.000000
      0.030280      -0.000074       0.000000
      0.034738      -0.000052       0.000000
      0.034392      -0.000038       0.000000
      0.029936      -0.000057       0.000000
      0.034738      -0.000052       0.000000
      0.039052      -0.000039       0.000000
      0.038707      -0.000026       0.000000
      0.034392      -0.000038       0.000000
      0.000000       0.000000       0.000000
      0.005319      -0.000206       0.000000
      0.005236      -0.000153       0.000000
      0.000000       0.000000       0.000000
      0.005319      -0.000206       0.000000
      0.010543      -0.000230       0.000000
      0.010384      -0.000179       0.000000
      0.005236      -0.000153       0.000000
      0.000000       0.000000       0.000000
      0.005236      -0.000153       0.000000
      0.005182      -0.000102       0.000000
      0.000000       0.000000       0.000000
      0.005236      -0.000153       0.000000
      0.010384      -0.000179       0.000000
      0.010279      -0.000122       0.000000
      0.005182      -0.000102       0.000000
      0.010543      -0.000230       0.000000
      0.015633      -0.000185       0.000000
      0.015420      -0.000146       0.000000
      0.010384      -0.000179       0.000000
      0.015633      -0.000185       0.000000
      0.020563      -0.000131       0.000000
      0.020319      -0.000103       0.000000
      0.015420      -0.000146       0.000000
      0.010384      -0.000179       0.000000
      0.015420      -0.000146       0.000000
      0.015276      -0.000101       0.000000
      0.010279      -0.000122       0.000000
      0.015420      -0.000146       0.000000
      0.020319      -0.000103       0.000000
      0.020150      -0.000071       0.000000
      0.015276      -0.000101       0.000000
      0.000000       0.000000       0.000000
      0.005182      -0.000102       0.000000
      0.005152      -0.000051       0.000000
      0.000000       0.000000       0.000000
      0.005182      -0.000102       0.000000
      0.010279      -0.000122       0.000000
      0.010219      -0.000062       0.000000
      0.005152      -0.000051       0.000000
      0.000000       0.000000       0.000000
      0.005152      -0.000051       0.000000
      0.005142       0.000000       0.000000
      0.000000       0.000000       0.000000
      0.005152      -0.000051       0.000000
      0.010219      -0.000062       0.000000
      0.010200       0.000000       0.000000
      0.005142       0.000000       0.000000
      0.010279      -0.000122       0.000000
      0.015276      -0.000101       0.000000
      0.015192      -0.000051       0.000000
      0.010219      -0.000062       0.000000
      0.015276      -0.000101       0.000000
      0.020150      -0.000071       0.000000
      0.020050      -0.000036       0.000000
      0.015192      -0.000051       0.000000
      0.010219      -0.000062       0.000000
      0.015192      -0.000051       0.000000
      0.015165      -0.000000       0.000000
      0.010200       0.000000       0.000000
      0.015192      -0.000051       0.000000
      0.020050      -0.000036       0.000000
      0.020017      -0.000000       0.000000
      0.015165      -0.000000       0.000000
      0.020563      -0.000131       0.000000
      0.025329      -0.000088       0.000000
      0.025069      -0.000067       0.000000
      0.020319      -0.000103       0.000000
      0.025329      -0.000088       0.000000
      0.029936      -0.000057       0.000000
      0.029670      -0.000042       0.000000
      0.025069      -0.000067       0.000000
      0.020319      -0.000103       0.000000
      0.025069      -0.000067       0.000000
      0.024886      -0.000046       0.000000
      0.020150      -0.000071       0.000000
      0.025069      -0.000067       0.000000
      0.029670      -0.000042       0.000000
      0.029480      -0.000028       0.000000
      0.024886      -0.000046       0.000000
      0.029936      -0.000057       0.000000
      0.034392      -0.000038       0.000000
      0.034124      -0.000026       0.000000
      0.029670      -0.000042       0.000000
      0.034392      -0.000038       0.000000
      0.038707      -0.000026       0.000000
      0.038439      -0.000016       0.000000
      0.034124      -0.000026       0.000000
      0.029670      -0.000042       0.000000
      0.034124      -0.000026       0.000000
      0.033933      -0.000016       0.000000
      0.029480      -0.000028       0.000000
      0.034124      -0.000026       0.000000
      0.038439      -0.000016       0.000000
      0.038247      -0.000009       0.000000
      0.033933      -0.000016       0.000000
      0.020150      -0.000071       0.000000
      0.024886      -0.000046       0.000000
      0.024778      -0.000023       0.000000
      0.020050      -0.000036       0.000000
      0.024886      -0.000046       0.000000
      0.029480      -0.000028       0.000000
      0.029368      -0.000014       0.000000
      0.024778      -0.000023       0.000000
      0.020050      -0.000036       0.000000
      0.024778      -0.000023       0.000000
      0.024742      -0.000000       0.000000
      0.020017      -0.000000       0.000000
      0.024778      -0.000023       0.000000
      0.029368      -0.000014       0.000000
      0.029330       0.000000       0.000000
      0.024742      -0.000000       0.000000
      0.029480      -0.000028       0.000000
      0.033933      -0.000016       0.000000
      0.033818      -0.000008       0.000000
      0.029368      -0.000014       0.000000
      0.033933      -0.000016       0.000000
      0.038247      -0.000009       0.000000
      0.038132      -0.000004       0.000000
      0.033818      -0.000008       0.000000
      0.029368      -0.000014       0.000000
      0.033818      -0.000008       0.000000
      0.033780       0.000000       0.000000
      0.029330       0.000000       0.000000
      0.033818      -0.000008       0.000000
      0.038132      -0.000004       0.000000
      0.038094      -0.000000       0.000000
      0.033780       0.000000       0.000000
      0.068460       0.000000       0.000000
      0.081461      -0.000000       0.000000
      0.082051       0.000013       0.000000
      0.069055       0.000012       0.000000
      0.081461      -0.000000       0.000000
      0.093356       0.000000       0.000000
      0.093944       0.000014       0.000000
      0.082051       0.000013       0.000000
      0.069055       0.000012       0.000000
      0.082051       0.000013       0.000000
      0.083799       0.000097       0.000000
      0.070816       0.000097       0.000000
      0.082051       0.000013       0.000000
      0.093944       0.000014       0.000000
      0.095683       0.000099       0.000000
      0.083799       0.000097       0.000000
      0.093356       0.000000       0.000000
      0.104323      -0.000000       0.000000
      0.104912       0.000015       0.000000
      0.093944       0.000014       0.000000
      0.104323      -0.000000       0.000000
      0.114496      -0.000000       0.000000
      0.115092       0.000004       0.000000
      0.104912       0.000015       0.000000
      0.093944       0.000014       0.000000
      0.104912       0.000015       0.000000
      0.106653       0.000100       0.000000
      0.095683       0.000099       0.000000
      0.104912       0.000015       0.000000
      0.115092       0.000004       0.000000
      0.116853       0.000086       0.000000
      0.106653       0.000100       0.000000
      0.114496      -0.000000       0.000000
      0.123994      -0.000000       0.000000
      0.124590      -0.000051       0.000000
      0.115092       0.000004       0.000000
      0.123994      -0.000000       0.000000
      0.132947       0.000000       0.000000
      0.133496      -0.000210       0.000000
      0.124590      -0.000051       0.000000
      0.115092       0.000004       0.000000
      0.124590      -0.000051       0.000000
      0.126396       0.000015       0.000000
      0.116853       0.000086       0.000000
      0.124590      -0.000051       0.000000
      0.133496      -0.000210       0.000000
      0.135325      -0.000199       0.000000
      0.126396       0.000015       0.000000
      0.132947       0.000000       0.000000
      0.141543      -0.000000       0.000000
      0.141906      -0.000518       0.000000
      0.133496      -0.000210       0.000000
      0.141543      -0.000000       0.000000
      0.150000      -0.000000       0.000000
      0.150000      -0.000764       0.000000
      0.141906      -0.000518       0.000000
      0.133496      -0.000210       0.000000
      0.141906      -0.000518       0.000000
      0.143501      -0.000662       0.000000