# vtk DataFile Version 2.0
time_10.vtk
ASCII
DATASET UNSTRUCTURED_GRID
POINTS   768 float
      1.666667      -0.583333       0.000000
      2.083333      -0.635417       0.000000
      2.083333      -0.317708       0.000000
      1.666667      -0.291667       0.000000
      2.083333      -0.635417       0.000000
      2.500000      -0.687500       0.000000
      2.500000      -0.343750       0.000000
      2.083333      -0.317708       0.000000
      1.666667      -0.291667       0.000000
      2.083333      -0.317708       0.000000
      2.083333       0.000000       0.000000
      1.666667       0.000000       0.000000
      2.083333      -0.317708       0.000000
      2.500000      -0.343750       0.000000
      2.500000       0.000000       0.000000
      2.083333       0.000000       0.000000
      2.500000      -0.687500       0.000000
      2.916667      -0.739583       0.000000
      2.916667      -0.369792       0.000000
      2.500000      -0.343750       0.000000
      2.916667      -0.739583       0.000000
      3.333333      -0.791667       0.000000
      3.333333      -0.395833       0.000000
      2.916667      -0.369792       0.000000
      2.500000      -0.343750       0.000000
      2.916667      -0.369792       0.000000
      2.916667       0.000000       0.000000
      2.500000       0.000000       0.000000
      2.916667      -0.369792       0.000000
      3.333333      -0.395833       0.000000
      3.333333       0.000000       0.000000
      2.916667       0.000000       0.000000
      3.333333      -0.791667       0.000000
      3.750000      -0.843750       0.000000
      3.750000      -0.421875       0.000000
      3.333333      -0.395833       0.000000
      3.750000      -0.843750       0.000000
      4.166667      -0.895833       0.000000
      4.166667      -0.447917       0.000000
      3.750000      -0.421875       0.000000
      3.333333      -0.395833       0.000000
      3.750000      -0.421875       0.000000
      3.750000       0.000000       0.000000
      3.333333       0.000000       0.000000
      3.750000      -0.421875       0.000000
      4.166667      -0.447917       0.000000
      4.166667       0.000000       0.000000
      3.750000       0.000000       0.000000
      4.166667      -0.895833       0.000000
      4.583333      -0.947917       0.000000
      4.583333      -0.473958       0.000000
      4.166667      -0.447917       0.000000
      4.583333      -0.947917       0.000000
      5.000000      -1.000000       0.000000
      5.000000      -0.500000       0.000000
      4.583333      -0.473958       0.000000
      4.166667      -0.447917       0.000000
      4.583333      -0.473958       0.000000
      4.583333       0.000000       0.000000
      4.166667       0.000000       0.000000
      4.583333      -0.473958       0.000000
      5.000000      -0.500000       0.000000
      5.000000       0.000000       0.000000
      4.583333       0.000000       0.000000
      0.833333      -0.479167       0.000000
      1.041667      -0.505208       0.000000
      1.041667      -0.378906       0.000000
      0.833333      -0.359375       0.000000
      1.041667      -0.505208       0.000000
      1.250000      -0.531250       0.000000
      1.250000      -0.398437       0.000000
      1.041667      -0.378906       0.000000
      0.833333      -0.359375       0.000000
      1.041667      -0.378906       0.000000
      1.041667      -0.252604       0.000000
      0.833333      -0.239583       0.000000
      1.041667      -0.378906       0.000000
      1.250000      -0.398437       0.000000
      1.250000      -0.265625       0.000000
      1.041667      -0.252604       0.000000
      1.250000      -0.531250       0.000000
      1.458333      -0.557292       0.000000
      1.458333      -0.417969       0.000000
      1.250000      -0.398437       0.000000
      1.458333      -0.557292       0.000000
      1.666667      -0.583333       0.000000
      1.666667      -0.437500       0.000000
      1.458333      -0.417969       0.000000
      1.250000      -0.398437       0.000000
      1.458333      -0.417969       0.000000
      1.458333      -0.278646       0.000000
      1.250000      -0.265625       0.000000
      1.458333      -0.417969       0.000000
      1.666667      -0.437500       0.000000
      1.666667      -0.291667       0.000000
      1.458333      -0.278646       0.000000
      0.833333      -0.239583       0.000000
      1.041667      -0.252604       0.000000
      1.041667      -0.126302       0.000000
      0.833333      -0.119792       0.000000
      1.041667      -0.252604       0.000000
      1.250000      -0.265625       0.000000
      1.250000      -0.132812       0.000000
      1.041667      -0.126302       0.000000
      0.833333      -0.119792       0.000000
      1.041667      -0.126302       0.000000
      1.041667       0.000000       0.000000
      0.833333       0.000000       0.000000
      1.041667      -0.126302       0.000000
      1.250000      -0.132812       0.000000
      1.250000       0.000000       0.000000
      1.041667       0.000000       0.000000
      1.250000      -0.265625       0.000000
      1.458333      -0.278646       0.000000
      1.458333      -0.139323       0.000000
      1.250000      -0.132812       0.000000
      1.458333      -0.278646       0.000000
      1.666667      -0.291667       0.000000
      1.666667      -0.145833       0.000000
      1.458333      -0.139323       0.000000
      1.250000      -0.132812       0.000000
      1.458333      -0.139323       0.000000
      1.458333       0.000000       0.000000
      1.250000       0.000000       0.000000
      1.458333      -0.139323       0.000000
      1.666667      -0.145833       0.000000
      1.666667       0.000000       0.000000
      1.458333       0.000000       0.000000
      0.000000      -0.375000       0.000000
      0.104167      -0.388021       0.000000
      0.104167      -0.339518       0.000000
      0.000000      -0.328125       0.000000
      0.104167      -0.388021       0.000000
      0.208333      -0.401042       0.000000
      0.208333      -0.350911       0.000000
      0.104167      -0.339518       0.000000
      0.000000      -0.328125       0.000000
      0.104167      -0.339518       0.000000
      0.104167      -0.291016       0.000000
      0.000000      -0.281250       0.000000
      0.104167      -0.339518       0.000000
      0.208333      -0.350911       0.000000
      0.208333      -0.300781       0.000000
      0.104167      -0.291016       0.000000
      0.208333      -0.401042       0.000000
      0.312500      -0.414062       0.000000
      0.312500      -0.362305       0.000000
      0.208333      -0.350911       0.000000
      0.312500      -0.414062       0.000000
      0.416667      -0.427083       0.000000
      0.416667      -0.373698       0.000000
      0.312500      -0.362305       0.000000
      0.208333      -0.350911       0.000000
      0.312500      -0.362305       0.000000
      0.312500      -0.310547       0.000000
      0.208333      -0.300781       0.000000
      0.312500      -0.362305       0.000000
      0.416667      -0.373698       0.000000
      0.416667      -0.320312       0.000000
      0.312500      -0.310547       0.000000
      0.000000      -0.281250       0.000000
      0.104167      -0.291016       0.000000
      0.104167      -0.242513       0.000000
      0.000000      -0.234375       0.000000
      0.104167      -0.291016       0.000000
      0.208333      -0.300781       0.000000
      0.208333      -0.250651       0.000000
      0.104167      -0.242513       0.000000
      0.000000      -0.234375       0.000000
      0.104167      -0.242513       0.000000
      0.104167      -0.194010       0.000000
      0.000000      -0.187500       0.000000
      0.104167      -0.242513       0.000000
      0.208333      -0.250651       0.000000
      0.208333      -0.200521       0.000000
      0.104167      -0.194010       0.000000
      0.208333      -0.300781       0.000000
      0.312500      -0.310547       0.000000
      0.312500      -0.258789       0.000000
      0.208333      -0.250651       0.000000
      0.312500      -0.310547       0.000000
      0.416667      -0.320312       0.000000
      0.416667      -0.266927       0.000000
      0.312500      -0.258789       0.000000
      0.208333      -0.250651       0.000000
      0.312500      -0.258789       0.000000
      0.312500      -0.207031       0.000000
      0.208333      -0.200521       0.000000
      0.312500      -0.258789       0.000000
      0.416667      -0.266927       0.000000
      0.416667      -0.213542       0.000000
      0.312500      -0.207031       0.000000
      0.416667      -0.427083       0.000000
      0.520833      -0.440104       0.000000
      0.520833      -0.385091       0.000000
      0.416667      -0.373698       0.000000
      0.520833      -0.440104       0.000000
      0.625000      -0.453125       0.000000
      0.625000      -0.396484       0.000000
      0.520833      -0.385091       0.000000
      0.416667      -0.373698       0.000000
      0.520833      -0.385091       0.000000
      0.520833      -0.330078       0.000000
      0.416667      -0.320312       0.000000
      0.520833      -0.385091       0.000000
      0.625000      -0.396484       0.000000
      0.625000      -0.339844       0.000000
      0.520833      -0.330078       0.000000
      0.625000      -0.453125       0.000000
      0.729167      -0.466146       0.000000
      0.729167      -0.407878       0.000000
      0.625000      -0.396484       0.000000
      0.729167      -0.466146       0.000000
      0.833333      -0.479167       0.000000
      0.833333      -0.419271       0.000000
      0.729167      -0.407878       0.000000
      0.625000      -0.396484       0.000000
      0.729167      -0.407878       0.000000
      0.729167      -0.349609       0.000000
      0.625000      -0.339844       0.000000
[...]
POINT_DATA   768
VECTORS U float 
      0.096518      -0.000128       0.000000
      0.113662      -0.000128       0.000000
      0.111360      -0.000017       0.000000
      0.094183      -0.000016       0.000000
      0.113662      -0.000128       0.000000
      0.129275      -0.000130       0.000000
      0.126994      -0.000019       0.000000
      0.111360      -0.000017       0.000000
      0.094183      -0.000016       0.000000
      0.111360      -0.000017       0.000000
      0.110582       0.000000       0.000000
      0.093393       0.000000       0.000000
      0.111360      -0.000017       0.000000
      0.126994      -0.000019       0.000000
      0.126222       0.000000       0.000000
      0.110582       0.000000       0.000000
      0.129275      -0.000130       0.000000
      0.143628      -0.000131       0.000000
      0.141354      -0.000020       0.000000
      0.126994      -0.000019       0.000000
      0.143628      -0.000131       0.000000
      0.156937      -0.000113       0.000000
      0.154642      -0.000006       0.000000
      0.141354      -0.000020       0.000000
      0.126994      -0.000019       0.000000
      0.141354      -0.000020       0.000000
      0.140584       0.000000       0.000000
      0.126222       0.000000       0.000000
      0.141354      -0.000020       0.000000
      0.154642      -0.000006       0.000000
      0.153865       0.000000       0.000000
      0.140584       0.000000       0.000000
      0.156937      -0.000113       0.000000
      0.169362      -0.000022       0.000000
      0.167010       0.000065       0.000000
      0.154642      -0.000006       0.000000
      0.169362      -0.000022       0.000000
      0.180967       0.000257       0.000000
      0.178586       0.000273       0.000000
      0.167010       0.000065       0.000000
      0.154642      -0.000006       0.000000
      0.167010       0.000065       0.000000
      0.166233       0.000000       0.000000
      0.153865       0.000000       0.000000
      0.167010       0.000065       0.000000
      0.178586       0.000273       0.000000
      0.177870       0.000000       0.000000
      0.166233       0.000000       0.000000
      0.180967       0.000257       0.000000
      0.191577       0.000861       0.000000
      0.189503       0.000674       0.000000
      0.178586       0.000273       0.000000
      0.191577       0.000861       0.000000
      0.200000       0.001727       0.000000
      0.200000       0.000995       0.000000
      0.189503       0.000674       0.000000
      0.178586       0.000273       0.000000
      0.189503       0.000674       0.000000
      0.189029       0.000000       0.000000
      0.177870       0.000000       0.000000
      0.189503       0.000674       0.000000
      0.200000       0.000995       0.000000
      0.200000       0.000000       0.000000
      0.189029       0.000000       0.000000
      0.055990      -0.000155       0.000000
      0.067076      -0.000137       0.000000
      0.065671      -0.000060       0.000000
      0.054554      -0.000077       0.000000
      0.067076      -0.000137       0.000000
      0.077471      -0.000131       0.000000
      0.076086      -0.000055       0.000000
      0.065671      -0.000060       0.000000
      0.054554      -0.000077       0.000000
      0.065671      -0.000060       0.000000
      0.064654      -0.000020       0.000000
      0.053517      -0.000034       0.000000
      0.065671      -0.000060       0.000000
      0.076086      -0.000055       0.000000
      0.075085      -0.000016       0.000000
      0.064654      -0.000020       0.000000
      0.077471      -0.000131       0.000000
      0.087261      -0.000129       0.000000
      0.085892      -0.000054       0.000000
      0.076086      -0.000055       0.000000
      0.087261      -0.000129       0.000000
      0.096518      -0.000128       0.000000
      0.095162      -0.000054       0.000000
      0.085892      -0.000054       0.000000
      0.076086      -0.000055       0.000000
      0.085892      -0.000054       0.000000
      0.084903      -0.000015       0.000000
      0.075085      -0.000016       0.000000
      0.085892      -0.000054       0.000000
      0.095162      -0.000054       0.000000
      0.094183      -0.000016       0.000000
      0.084903      -0.000015       0.000000
      0.053517      -0.000034       0.000000
      0.064654      -0.000020       0.000000
      0.064038      -0.000004       0.000000
      0.052891      -0.000012       0.000000
      0.064654      -0.000020       0.000000
      0.075085      -0.000016       0.000000
      0.074480      -0.000002       0.000000
      0.064038      -0.000004       0.000000
      0.052891      -0.000012       0.000000
      0.064038      -0.000004       0.000000
      0.063832       0.000000       0.000000
      0.052682       0.000000       0.000000
      0.064038      -0.000004       0.000000
      0.074480      -0.000002       0.000000
      0.074277       0.000000       0.000000
      0.063832       0.000000       0.000000
      0.075085      -0.000016       0.000000
      0.084903      -0.000015       0.000000
      0.084306      -0.000001       0.000000
      0.074480      -0.000002       0.000000
      0.084903      -0.000015       0.000000
      0.094183      -0.000016       0.000000
      0.093591      -0.000002       0.000000
      0.084306      -0.000001       0.000000
      0.074480      -0.000002       0.000000
      0.084306      -0.000001       0.000000
      0.084106       0.000000       0.000000
      0.074277       0.000000       0.000000
      0.084306      -0.000001       0.000000
      0.093591      -0.000002       0.000000
      0.093393       0.000000       0.000000
      0.084106       0.000000       0.000000
      0.000000       0.000000       0.000000
      0.009038      -0.000518       0.000000
      0.008325      -0.000479       0.000000
      0.000000       0.000000       0.000000
      0.009038      -0.000518       0.000000
      0.016957      -0.000517       0.000000
      0.016139      -0.000473       0.000000
      0.008325      -0.000479       0.000000
      0.000000       0.000000       0.000000
      0.008325      -0.000479       0.000000
      0.007895      -0.000428       0.000000
      0.000000       0.000000       0.000000
      0.008325      -0.000479       0.000000
      0.016139      -0.000473       0.000000
      0.015523      -0.000433       0.000000
      0.007895      -0.000428       0.000000
      0.016957      -0.000517       0.000000
      0.024293      -0.000426       0.000000
      0.023460      -0.000380       0.000000
      0.016139      -0.000473       0.000000
      0.024293      -0.000426       0.000000
      0.031209      -0.000332       0.000000
      0.030386      -0.000286       0.000000
      0.023460      -0.000380       0.000000
      0.016139      -0.000473       0.000000
      0.023460      -0.000380       0.000000
      0.022781      -0.000343       0.000000
      0.015523      -0.000433       0.000000
      0.023460      -0.000380       0.000000
      0.030386      -0.000286       0.000000
      0.029691      -0.000250       0.000000
      0.022781      -0.000343       0.000000
      0.000000       0.000000       0.000000
      0.007895      -0.000428       0.000000
      0.007627      -0.000361       0.000000
      0.000000       0.000000       0.000000
      0.007895      -0.000428       0.000000
      0.015523      -0.000433       0.000000
      0.015074      -0.000384       0.000000
      0.007627      -0.000361       0.000000
      0.000000       0.000000       0.000000
      0.007627      -0.000361       0.000000
      0.007451      -0.000289       0.000000
      0.000000       0.000000       0.000000
      0.007627      -0.000361       0.000000
      0.015074      -0.000384       0.000000
      0.014752      -0.000322       0.000000
      0.007451      -0.000289       0.000000
      0.015523      -0.000433       0.000000
      0.022781      -0.000343       0.000000
      0.022246      -0.000304       0.000000
      0.015074      -0.000384       0.000000
      0.022781      -0.000343       0.000000
      0.029691      -0.000250       0.000000
      0.029120      -0.000217       0.000000
      0.022246      -0.000304       0.000000
      0.015074      -0.000384       0.000000
      0.022246      -0.000304       0.000000
      0.021838      -0.000258       0.000000
      0.014752      -0.000322       0.000000
      0.022246      -0.000304       0.000000
      0.029120      -0.000217       0.000000
      0.028669      -0.000181       0.000000
      0.021838      -0.000258       0.000000
      0.031209      -0.000332       0.000000
      0.037792      -0.000259       0.000000
      0.036985      -0.000213       0.000000
      0.030386      -0.000286       0.000000
      0.037792      -0.000259       0.000000
      0.044095      -0.000208       0.000000
      0.043304      -0.000163       0.000000
      0.036985      -0.000213       0.000000
      0.030386      -0.000286       0.000000
      0.036985      -0.000213       0.000000
      0.036291      -0.000178       0.000000
      0.029691      -0.000250       0.000000
      0.036985      -0.000213       0.000000
      0.043304      -0.000163       0.000000
      0.042617      -0.000128       0.000000
      0.036291      -0.000178       0.000000
      0.044095      -0.000208       0.000000
      0.050153      -0.000175       0.000000
      0.049375      -0.000131       0.000000
      0.043304      -0.000163       0.000000
      0.050153      -0.000175       0.000000
      0.055990      -0.000155       0.000000
      0.055224      -0.000111       0.000000
      0.049375      -0.000131       0.000000
      0.043304      -0.000163       0.000000
      0.049375      -0.000131       0.000000
      0.048697      -0.000096       0.000000
      0.042617      -0.000128       0.000000
      0.049375      -0.000131       0.000000
      0.055224      -0.000111       0.000000
      0.054554      -0.000077       0.000000
      0.048697      -0.000096       0.000000
      0.029691      -0.000250       0.000000
      0.036291      -0.000178       0.000000
      0.035710      -0.000148       0.000000
      0.029120      -0.000217       0.000000
      0.036291      -0.000178       0.000000
      0.042617      -0.000128       0.000000
      0.042036      -0.000100       0.000000
      0.035710      -0.000148       0.000000
      0.029120      -0.000217       0.000000
      0.035710      -0.000148       0.000000
      0.035241      -0.000120       0.000000
      0.028669      -0.000181       0.000000
      0.035710      -0.000148       0.000000
      0.042036      -0.000100       0.000000
      0.041563      -0.000077       0.000000
      0.035241      -0.000120       0.000000
      0.042617      -0.000128       0.000000
      0.048697      -0.000096       0.000000
      0.048121      -0.000070       0.000000
      0.042036      -0.000100       0.000000
      0.048697      -0.000096       0.000000
      0.054554      -0.000077       0.000000
      0.053985      -0.000052       0.000000
      0.048121      -0.000070       0.000000
      0.042036      -0.000100       0.000000
      0.048121      -0.000070       0.000000
      0.047650      -0.000050       0.000000
      0.041563      -0.000077       0.000000
      0.048121      -0.000070       0.000000
      0.053985      -0.000052       0.000000
      0.053517      -0.000034       0.000000
      0.047650      -0.000050       0.000000
      0.000000       0.000000       0.000000
      0.007451      -0.000289       0.000000
      0.007333      -0.000215       0.000000
      0.000000       0.000000       0.000000
      0.007451      -0.000289       0.000000
      0.014752      -0.000322       0.000000
      0.014527      -0.000250       0.000000
      0.007333      -0.000215       0.000000
      0.000000       0.000000       0.000000
      0.007333      -0.000215       0.000000
      0.007256      -0.000143       0.000000
      0.000000       0.000000       0.000000
      0.007333      -0.000215       0.000000
      0.014527      -0.000250       0.000000
      0.014379      -0.000170       0.000000
      0.007256      -0.000143       0.000000
      0.014752      -0.000322       0.000000
      0.021838      -0.000258       0.000000
      0.021539      -0.000203       0.000000
      0.014527      -0.000250       0.000000
      0.021838      -0.000258       0.000000
      0.028669      -0.000181       0.000000
      0.028330      -0.000142       0.000000
      0.021539      -0.000203       0.000000
      0.014527      -0.000250       0.000000
      0.021539      -0.000203       0.000000
      0.021337      -0.000140       0.000000
      0.014379      -0.000170       0.000000
      0.021539      -0.000203       0.000000
      0.028330      -0.000142       0.000000
      0.028094      -0.000098       0.000000
      0.021337      -0.000140       0.000000
      0.000000       0.000000       0.000000
      0.007256      -0.000143       0.000000
      0.007213      -0.000071       0.000000
      0.000000       0.000000       0.000000
      0.007256      -0.000143       0.000000
      0.014379      -0.000170       0.000000
      0.014295      -0.000086       0.000000
      0.007213      -0.000071       0.000000
      0.000000       0.000000       0.000000
      0.007213      -0.000071       0.000000
      0.007199       0.000000       0.000000
      0.000000       0.000000       0.000000
      0.007213      -0.000071       0.000000
      0.014295      -0.000086       0.000000
      0.014267       0.000000       0.000000
      0.007199       0.000000       0.000000
      0.014379      -0.000170       0.000000
      0.021337      -0.000140       0.000000
      0.021219      -0.000071       0.000000
      0.014295      -0.000086       0.000000
      0.021337      -0.000140       0.000000
      0.028094      -0.000098       0.000000
      0.027955      -0.000050       0.000000
      0.021219      -0.000071       0.000000
      0.014295      -0.000086       0.000000
      0.021219      -0.000071       0.000000
      0.021181       0.000000       0.000000
      0.014267       0.000000       0.000000
      0.021219      -0.000071       0.000000
      0.027955      -0.000050       0.000000
      0.027909       0.000000       0.000000
      0.021181       0.000000       0.000000
      0.028669      -0.000181       0.000000
      0.035241      -0.000120       0.000000
      0.034882      -0.000092       0.000000
      0.028330      -0.000142       0.000000
      0.035241      -0.000120       0.000000
      0.041563      -0.000077       0.000000
      0.041197      -0.000057       0.000000
      0.034882      -0.000092       0.000000
      0.028330      -0.000142       0.000000
      0.034882      -0.000092       0.000000
      0.034629      -0.000063       0.000000
      0.028094      -0.000098       0.000000
      0.034882      -0.000092       0.000000
      0.041197      -0.000057       0.000000
      0.040937      -0.000038       0.000000
      0.034629      -0.000063       0.000000
      0.041563      -0.000077       0.000000
      0.047650      -0.000050       0.000000
      0.047283      -0.000035       0.000000
      0.041197      -0.000057       0.000000
      0.047650      -0.000050       0.000000
      0.053517      -0.000034       0.000000
      0.053152      -0.000021       0.000000
      0.047283      -0.000035       0.000000
      0.041197      -0.000057       0.000000
      0.047283      -0.000035       0.000000
      0.047021      -0.000022       0.000000
      0.040937      -0.000038       0.000000
      0.047283      -0.000035       0.000000
      0.053152      -0.000021       0.000000
      0.052891      -0.000012       0.000000
      0.047021      -0.000022       0.000000
      0.028094      -0.000098       0.000000
      0.034629      -0.000063       0.000000
      0.034479      -0.000032       0.000000
      0.027955      -0.000050       0.000000
      0.034629      -0.000063       0.000000
      0.040937      -0.000038       0.000000
      0.040781      -0.000019       0.000000
      0.034479      -0.000032       0.000000
      0.027955      -0.000050       0.000000
      0.034479      -0.000032       0.000000
      0.034429       0.000000       0.000000
      0.027909       0.000000       0.000000
      0.034479      -0.000032       0.000000
      0.040781      -0.000019       0.000000
      0.040730       0.000000       0.000000
      0.034429       0.000000       0.000000
      0.040937      -0.000038       0.000000
      0.047021      -0.000022       0.000000
      0.046864      -0.000011       0.000000
      0.040781      -0.000019       0.000000
      0.047021      -0.000022       0.000000
      0.052891      -0.000012       0.000000
      0.052734      -0.000005       0.000000
      0.046864      -0.000011       0.000000
      0.040781      -0.000019       0.000000
      0.046864      -0.000011       0.000000
      0.046811       0.000000       0.000000
      0.040730       0.000000       0.000000
      0.046864      -0.000011       0.000000
      0.052734      -0.000005       0.000000
      0.052682       0.000000       0.000000
      0.046811       0.000000       0.000000
      0.093393       0.000000       0.000000
      0.110582       0.000000       0.000000
      0.111360       0.000017       0.000000
      0.094183       0.000016       0.000000
      0.110582       0.000000       0.000000
      0.126222       0.000000       0.000000
      0.126994       0.000019       0.000000
      0.111360       0.000017       0.000000
      0.094183       0.000016       0.000000
      0.111360       0.000017       0.000000
      0.113662       0.000128       0.000000
      0.096518       0.000128       0.000000
      0.111360       0.000017       0.000000
      0.126994       0.000019       0.000000
      0.129275       0.000130       0.000000
      0.113662       0.000128       0.000000
      0.126222       0.000000       0.000000
      0.140584       0.000000       0.000000
      0.141354       0.000020       0.000000
      0.126994       0.000019       0.000000
      0.140584       0.000000       0.000000
      0.153865       0.000000       0.000000
      0.154642       0.000006       0.000000
      0.141354       0.000020       0.000000
      0.126994       0.000019       0.000000
      0.141354       0.000020       0.000000
      0.143628       0.000131       0.000000
      0.129275       0.000130       0.000000
      0.141354       0.000020       0.000000
      0.154642       0.000006       0.000000
      0.156937       0.000113       0.000000
      0.143628       0.000131       0.000000
      0.153865       0.000000       0.000000
      0.166233       0.000000       0.000000
      0.167010      -0.000065       0.000000
      0.154642       0.000006       0.000000
      0.166233       0.000000       0.000000
      0.177870       0.000000       0.000000
      0.178586      -0.000273       0.000000
      0.167010      -0.000065       0.000000
      0.154642       0.000006       0.000000
      0.167010      -0.000065       0.000000
      0.169362       0.000022       0.000000
      0.156937       0.000113       0.000000
      0.167010      -0.000065       0.000000
      0.178586      -0.000273       0.000000
      0.180967      -0.000257       0.000000
      0.169362       0.000022       0.000000
      0.177870       0.000000       0.000000
      0.189029       0.000000       0.000000
      0.189503      -0.000674       0.000000
      0.178586      -0.000273       0.000000
      0.189029       0.000000       0.000000
      0.200000       0.000000       0.000000
      0.200000      -0.000995       0.000000
      0.189503      -0.000674       0.000000
      0.178586      -0.000273       0.000000
      0.189503      -0.000674       0.000000
      0.191577      -0.000861       0.000000