# vtk DataFile Version 2.0
time_10.vtk
ASCII
DATASET UNSTRUCTURED_GRID
POINTS  1344 float
      1.666667      -0.583333       0.000000
      2.083333      -0.635417       0.000000
      2.083333      -0.317708       0.000000
      1.666667      -0.291667       0.000000
      2.083333      -0.635417       0.000000
      2.500000      -0.687500       0.000000
      2.500000      -0.343750       0.000000
      2.083333      -0.317708       0.000000
      1.666667      -0.291667       0.000000
      2.083333      -0.317708       0.000000
      2.083333       0.000000       0.000000
      1.666667       0.000000       0.000000
      2.083333      -0.317708       0.000000
      2.500000      -0.343750       0.000000
      2.500000       0.000000       0.000000
      2.083333       0.000000       0.000000
      2.500000      -0.687500       0.000000
      2.916667      -0.739583       0.000000
      2.916667      -0.369792       0.000000
      2.500000      -0.343750       0.000000
      2.916667      -0.739583       0.000000
      3.333333      -0.791667       0.000000
      3.333333      -0.395833       0.000000
      2.916667      -0.369792       0.000000
      2.500000      -0.343750       0.000000
      2.916667      -0.369792       0.000000
      2.916667       0.000000       0.000000
      2.500000       0.000000       0.000000
      2.916667      -0.369792       0.000000
      3.333333      -0.395833       0.000000
      3.333333       0.000000       0.000000
      2.916667       0.000000       0.000000
      3.333333      -0.791667       0.000000
      3.750000      -0.843750       0.000000
      3.750000      -0.421875       0.000000
      3.333333      -0.395833       0.000000
      3.750000      -0.843750       0.000000
      4.166667      -0.895833       0.000000
      4.166667      -0.447917       0.000000
      3.750000      -0.421875       0.000000
      3.333333      -0.395833       0.000000
      3.750000      -0.421875       0.000000
      3.750000       0.000000       0.000000
      3.333333       0.000000       0.000000
      3.750000      -0.421875       0.000000
      4.166667      -0.447917       0.000000
      4.166667       0.000000       0.000000
      3.750000       0.000000       0.000000
      4.166667      -0.895833       0.000000
      4.583333      -0.947917       0.000000
      4.583333      -0.473958       0.000000
      4.166667      -0.447917       0.000000
      4.583333      -0.947917       0.000000
      5.000000      -1.000000       0.000000
      5.000000      -0.500000       0.000000
      4.583333      -0.473958       0.000000
      4.166667      -0.447917       0.000000
      4.583333      -0.473958       0.000000
      4.583333       0.000000       0.000000
      4.166667       0.000000       0.000000
      4.583333      -0.473958       0.000000
      5.000000      -0.500000       0.000000
      5.000000       0.000000       0.000000
      4.583333       0.000000       0.000000
      0.833333      -0.479167       0.000000
      1.041667      -0.505208       0.000000
      1.041667      -0.378906       0.000000
      0.833333      -0.359375       0.000000
      1.041667      -0.505208       0.000000
      1.250000      -0.531250       0.000000
      1.250000      -0.398437       0.000000
      1.041667      -0.378906       0.000000
      0.833333      -0.359375       0.000000
      1.041667      -0.378906       0.000000
      1.041667      -0.252604       0.000000
      0.833333      -0.239583       0.000000
      1.041667      -0.378906       0.000000
      1.250000      -0.398437       0.000000
      1.250000      -0.265625       0.000000
      1.041667      -0.252604       0.000000
      1.250000      -0.531250       0.000000
      1.458333      -0.557292       0.000000
      1.458333      -0.417969       0.000000
      1.250000      -0.398437       0.000000
      1.458333      -0.557292       0.000000
      1.666667      -0.583333       0.000000
      1.666667      -0.437500       0.000000
      1.458333      -0.417969       0.000000
      1.250000      -0.398437       0.000000
      1.458333      -0.417969       0.000000
      1.458333      -0.278646       0.000000
      1.250000      -0.265625       0.000000
      1.458333      -0.417969       0.000000
      1.666667      -0.437500       0.000000
      1.666667      -0.291667       0.000000
      1.458333      -0.278646       0.000000
      0.833333      -0.239583       0.000000
      1.041667      -0.252604       0.000000
      1.041667      -0.126302       0.000000
      0.833333      -0.119792       0.000000
      1.041667      -0.252604       0.000000
      1.250000      -0.265625       0.000000
      1.250000      -0.132812       0.000000
      1.041667      -0.126302       0.000000
      0.833333      -0.119792       0.000000
      1.041667      -0.126302       0.000000
      1.041667       0.000000       0.000000
      0.833333       0.000000       0.000000
      1.041667      -0.126302       0.000000
      1.250000      -0.132812       0.000000
      1.250000       0.000000       0.000000
      1.041667       0.000000       0.000000
      1.250000      -0.265625       0.000000
      1.458333      -0.278646       0.000000
      1.458333      -0.139323       0.000000
      1.250000      -0.132812       0.000000
      1.458333      -0.278646       0.000000
      1.666667      -0.291667       0.000000
      1.666667      -0.145833       0.000000
      1.458333      -0.139323       0.000000
      1.250000      -0.132812       0.000000
      1.458333      -0.139323       0.000000
      1.458333       0.000000       0.000000
      1.250000       0.000000       0.000000
      1.458333      -0.139323       0.000000
      1.666667      -0.145833       0.000000
      1.666667       0.000000       0.000000
      1.458333       0.000000       0.000000
      0.312500      -0.414062       0.000000
      0.416667      -0.427083       0.000000
      0.416667      -0.373698       0.000000
      0.312500      -0.362305       0.000000
      0.312500      -0.362305       0.000000
      0.416667      -0.373698       0.000000
      0.416667      -0.320312       0.000000
      0.312500      -0.310547       0.000000
      0.312500      -0.310547       0.000000
      0.416667      -0.320312       0.000000
      0.416667      -0.266927       0.000000
      0.312500      -0.258789       0.000000
      0.312500      -0.258789       0.000000
      0.416667      -0.266927       0.000000
      0.416667      -0.213542       0.000000
      0.312500      -0.207031       0.000000
      0.416667      -0.427083       0.000000
      0.520833      -0.440104       0.000000
      0.520833      -0.385091       0.000000
      0.416667      -0.373698       0.000000
      0.520833      -0.440104       0.000000
      0.625000      -0.453125       0.000000
      0.625000      -0.396484       0.000000
      0.520833      -0.385091       0.000000
      0.416667      -0.373698       0.000000
      0.520833      -0.385091       0.000000
      0.520833      -0.330078       0.000000
      0.416667      -0.320312       0.000000
      0.520833      -0.385091       0.000000
      0.625000      -0.396484       0.000000
      0.625000      -0.339844       0.000000
      0.520833      -0.330078       0.000000
      0.625000      -0.453125       0.000000
      0.729167      -0.466146       0.000000
      0.729167      -0.407878       0.000000
      0.625000      -0.396484       0.000000
      0.729167      -0.466146       0.000000
      0.833333      -0.479167       0.000000
      0.833333      -0.419271       0.000000
      0.729167      -0.407878       0.000000
      0.625000      -0.396484       0.000000
      0.729167      -0.407878       0.000000
      0.729167      -0.349609       0.000000
      0.625000      -0.339844       0.000000
      0.729167      -0.407878       0.000000
      0.833333      -0.419271       0.000000
      0.833333      -0.359375       0.000000
      0.729167      -0.349609       0.000000
      0.416667      -0.320312       0.000000
      0.520833      -0.330078       0.000000
      0.520833      -0.275065       0.000000
      0.416667      -0.266927       0.000000
      0.520833      -0.330078       0.000000
      0.625000      -0.339844       0.000000
      0.625000      -0.283203       0.000000
      0.520833      -0.275065       0.000000
      0.416667      -0.266927       0.000000
      0.520833      -0.275065       0.000000
      0.520833      -0.220052       0.000000
      0.416667      -0.213542       0.000000
      0.520833      -0.275065       0.000000
      0.625000      -0.283203       0.000000
      0.625000      -0.226562       0.000000
      0.520833      -0.220052       0.000000
      0.625000      -0.339844       0.000000
      0.729167      -0.349609       0.000000
      0.729167      -0.291341       0.000000
      0.625000      -0.283203       0.000000
      0.729167      -0.349609       0.000000
      0.833333      -0.359375       0.000000
      0.833333      -0.299479       0.000000
      0.729167      -0.291341       0.000000
      0.625000      -0.283203       0.000000
      0.729167      -0.291341       0.000000
      0.729167      -0.233073       0.000000
      0.625000      -0.226562       0.000000
      0.729167      -0.291341       0.000000
      0.833333      -0.299479       0.000000
      0.833333      -0.239583       0.000000
      0.729167      -0.233073       0.000000
      0.312500      -0.207031       0.000000
      0.416667      -0.213542       0.000000
      0.416667      -0.160156       0.000000
      0.312500      -0.155273       0.000000
      0.312500      -0.155273       0.000000
      0.416667      -0.160156       0.000000
      0.416667      -0.106771       0.000000
      0.312500      -0.103516       0.000000
      0.312500      -0.103516       0.000000
      0.416667      -0.106771       0.000000
      0.416667      -0.053385       0.000000
      0.312500      -0.051758       0.000000
[...]
POINT_DATA  1344
VECTORS U float 
      0.311002      -0.000001       0.000000
      0.311164      -0.000001       0.000000
      0.311142      -0.000000       0.000000
      0.310980      -0.000000       0.000000
      0.311164      -0.000001       0.000000
      0.311312      -0.000001       0.000000
      0.311291      -0.000000       0.000000
      0.311142      -0.000000       0.000000
      0.310980      -0.000000       0.000000
      0.311142      -0.000000       0.000000
      0.311135      -0.000000       0.000000
      0.310973      -0.000000       0.000000
      0.311142      -0.000000       0.000000
      0.311291      -0.000000       0.000000
      0.311283      -0.000000       0.000000
      0.311135      -0.000000       0.000000
      0.311312      -0.000001       0.000000
      0.311450      -0.000001       0.000000
      0.311428      -0.000000       0.000000
      0.311291      -0.000000       0.000000
      0.311450      -0.000001       0.000000
      0.311579      -0.000001       0.000000
      0.311557      -0.000000       0.000000
      0.311428      -0.000000       0.000000
      0.311291      -0.000000       0.000000
      0.311428      -0.000000       0.000000
      0.311421      -0.000000       0.000000
      0.311283      -0.000000       0.000000
      0.311428      -0.000000       0.000000
      0.311557      -0.000000       0.000000
      0.311549      -0.000000       0.000000
      0.311421      -0.000000       0.000000
      0.311579      -0.000001       0.000000
      0.311700      -0.000000       0.000000
      0.311677       0.000001       0.000000
      0.311557      -0.000000       0.000000
      0.311700      -0.000000       0.000000
      0.311813       0.000003       0.000000
      0.311790       0.000003       0.000000
      0.311677       0.000001       0.000000
      0.311557      -0.000000       0.000000
      0.311677       0.000001       0.000000
      0.311670      -0.000000       0.000000
      0.311549      -0.000000       0.000000
      0.311677       0.000001       0.000000
      0.311790       0.000003       0.000000
      0.311783      -0.000000       0.000000
      0.311670      -0.000000       0.000000
      0.311813       0.000003       0.000000
      0.311917       0.000008       0.000000
      0.311897       0.000007       0.000000
      0.311790       0.000003       0.000000
      0.311917       0.000008       0.000000
      0.312000       0.000017       0.000000
      0.312000       0.000010       0.000000
      0.311897       0.000007       0.000000
      0.311790       0.000003       0.000000
      0.311897       0.000007       0.000000
      0.311892      -0.000000       0.000000
      0.311783      -0.000000       0.000000
      0.311897       0.000007       0.000000
      0.312000       0.000010       0.000000
      0.312000      -0.000000       0.000000
      0.311892      -0.000000       0.000000
      0.310626      -0.000000       0.000000
      0.310729      -0.000000       0.000000
      0.310716       0.000000       0.000000
      0.310612       0.000000       0.000000
      0.310729      -0.000000       0.000000
      0.310825      -0.000001       0.000000
      0.310812      -0.000000       0.000000
      0.310716       0.000000       0.000000
      0.310612       0.000000       0.000000
      0.310716       0.000000       0.000000
      0.310706       0.000001       0.000000
      0.310601       0.000001       0.000000
      0.310716       0.000000       0.000000
      0.310812      -0.000000       0.000000
      0.310803       0.000000       0.000000
      0.310706       0.000001       0.000000
      0.310825      -0.000001       0.000000
      0.310916      -0.000001       0.000000
      0.310903      -0.000000       0.000000
      0.310812      -0.000000       0.000000
      0.310916      -0.000001       0.000000
      0.311002      -0.000001       0.000000
      0.310989      -0.000000       0.000000
      0.310903      -0.000000       0.000000
      0.310812      -0.000000       0.000000
      0.310903      -0.000000       0.000000
      0.310894       0.000000       0.000000
      0.310803       0.000000       0.000000
      0.310903      -0.000000       0.000000
      0.310989      -0.000000       0.000000
      0.310980      -0.000000       0.000000
      0.310894       0.000000       0.000000
      0.310601       0.000001       0.000000
      0.310706       0.000001       0.000000
      0.310700       0.000000       0.000000
      0.310594       0.000001       0.000000
      0.310706       0.000001       0.000000
      0.310803       0.000000       0.000000
      0.310797       0.000000       0.000000
      0.310700       0.000000       0.000000
      0.310594       0.000001       0.000000
      0.310700       0.000000       0.000000
      0.310698      -0.000000       0.000000
      0.310591      -0.000000       0.000000
      0.310700       0.000000       0.000000
      0.310797       0.000000       0.000000
      0.310795      -0.000000       0.000000
      0.310698      -0.000000       0.000000
      0.310803       0.000000       0.000000
      0.310894       0.000000       0.000000
      0.310888       0.000000       0.000000
      0.310797       0.000000       0.000000
      0.310894       0.000000       0.000000
      0.310980      -0.000000       0.000000
      0.310975       0.000000       0.000000
      0.310888       0.000000       0.000000
      0.310797       0.000000       0.000000
      0.310888       0.000000       0.000000
      0.310886      -0.000000       0.000000
      0.310795      -0.000000       0.000000
      0.310888       0.000000       0.000000
      0.310975       0.000000       0.000000
      0.310973      -0.000000       0.000000
      0.310886      -0.000000       0.000000
      0.310295      -0.000021       0.000000
      0.310381      -0.000010       0.000000
      0.310368      -0.000009       0.000000
      0.310275      -0.000021       0.000000
      0.310275      -0.000021       0.000000
      0.310368      -0.000009       0.000000
      0.310354      -0.000009       0.000000
      0.310256      -0.000020       0.000000
      0.310256      -0.000020       0.000000
      0.310354      -0.000009       0.000000
      0.310342      -0.000008       0.000000
      0.310240      -0.000018       0.000000
      0.310240      -0.000018       0.000000
      0.310342      -0.000008       0.000000
      0.310332      -0.000007       0.000000
      0.310227      -0.000016       0.000000
      0.310381      -0.000010       0.000000
      0.310452      -0.000004       0.000000
      0.310441      -0.000004       0.000000
      0.310368      -0.000009       0.000000
      0.310452      -0.000004       0.000000
      0.310514      -0.000002       0.000000
      0.310505      -0.000001       0.000000
      0.310441      -0.000004       0.000000
      0.310368      -0.000009       0.000000
      0.310441      -0.000004       0.000000
      0.310431      -0.000003       0.000000
      0.310354      -0.000009       0.000000
      0.310441      -0.000004       0.000000
      0.310505      -0.000001       0.000000
      0.310497      -0.000001       0.000000
      0.310431      -0.000003       0.000000
      0.310514      -0.000002       0.000000
      0.310572      -0.000001       0.000000
      0.310564      -0.000000       0.000000
      0.310505      -0.000001       0.000000
      0.310572      -0.000001       0.000000
      0.310626      -0.000000       0.000000
      0.310619       0.000000       0.000000
      0.310564      -0.000000       0.000000
      0.310505      -0.000001       0.000000
      0.310564      -0.000000       0.000000
      0.310557       0.000000       0.000000
      0.310497      -0.000001       0.000000
      0.310564      -0.000000       0.000000
      0.310619       0.000000       0.000000
      0.310612       0.000000       0.000000
      0.310557       0.000000       0.000000
      0.310354      -0.000009       0.000000
      0.310431      -0.000003       0.000000
      0.310422      -0.000003       0.000000
      0.310342      -0.000008       0.000000
      0.310431      -0.000003       0.000000
      0.310497      -0.000001       0.000000
      0.310489      -0.000000       0.000000
      0.310422      -0.000003       0.000000
      0.310342      -0.000008       0.000000
      0.310422      -0.000003       0.000000
      0.310413      -0.000002       0.000000
      0.310332      -0.000007       0.000000
      0.310422      -0.000003       0.000000
      0.310489      -0.000000       0.000000
      0.310482      -0.000000       0.000000
      0.310413      -0.000002       0.000000
      0.310497      -0.000001       0.000000
      0.310557       0.000000       0.000000
      0.310550       0.000000       0.000000
      0.310489      -0.000000       0.000000
      0.310557       0.000000       0.000000
      0.310612       0.000000       0.000000
      0.310606       0.000001       0.000000
      0.310550       0.000000       0.000000
      0.310489      -0.000000       0.000000
      0.310550       0.000000       0.000000
      0.310544       0.000001       0.000000
      0.310482      -0.000000       0.000000
      0.310550       0.000000       0.000000
      0.310606       0.000001       0.000000
      0.310601       0.000001       0.000000
      0.310544       0.000001       0.000000
      0.310227      -0.000016       0.000000
      0.310332      -0.000007       0.000000
      0.310324      -0.000006       0.000000
      0.310218      -0.000013       0.000000
      0.310218      -0.000013       0.000000
      0.310324      -0.000006       0.000000
      0.310318      -0.000004       0.000000
      0.310211      -0.000009       0.000000
      0.310211      -0.000009       0.000000
      0.310318      -0.000004       0.000000
      0.310315      -0.000002       0.000000
      0.310208      -0.000005       0.000000
      0.310208      -0.000005       0.000000
      0.310315      -0.000002       0.000000
      0.310314      -0.000000       0.000000
      0.310207      -0.000000       0.000000
      0.310332      -0.000007       0.000000
      0.310413      -0.000002       0.000000
      0.310407      -0.000002       0.000000
      0.310324      -0.000006       0.000000
      0.310413      -0.000002       0.000000
      0.310482      -0.000000       0.000000
      0.310477      -0.000000       0.000000
      0.310407      -0.000002       0.000000
      0.310324      -0.000006       0.000000
      0.310407      -0.000002       0.000000
      0.310402      -0.000001       0.000000
      0.310318      -0.000004       0.000000
      0.310407      -0.000002       0.000000
      0.310477      -0.000000       0.000000
      0.310473      -0.000000       0.000000
      0.310402      -0.000001       0.000000
      0.310482      -0.000000       0.000000
      0.310544       0.000001       0.000000
      0.310539       0.000001       0.000000
      0.310477      -0.000000       0.000000
      0.310544       0.000001       0.000000
      0.310601       0.000001       0.000000
      0.310597       0.000001       0.000000
      0.310539       0.000001       0.000000
      0.310477      -0.000000       0.000000
      0.310539       0.000001       0.000000
      0.310536       0.000000       0.000000
      0.310473      -0.000000       0.000000
      0.310539       0.000001       0.000000
      0.310597       0.000001       0.000000
      0.310594       0.000001       0.000000
      0.310536       0.000000       0.000000
      0.310318      -0.000004       0.000000
      0.310402      -0.000001       0.000000
      0.310399      -0.000001       0.000000
      0.310315      -0.000002       0.000000
      0.310402      -0.000001       0.000000
      0.310473      -0.000000       0.000000
      0.310470      -0.000000       0.000000
      0.310399      -0.000001       0.000000
      0.310315      -0.000002       0.000000
      0.310399      -0.000001       0.000000
      0.310398      -0.000000       0.000000
      0.310314      -0.000000       0.000000
      0.310399      -0.000001       0.000000
      0.310470      -0.000000       0.000000
      0.310469      -0.000000       0.000000
      0.310398      -0.000000       0.000000
      0.310473      -0.000000       0.000000
      0.310536       0.000000       0.000000
      0.310534       0.000000       0.000000
      0.310470      -0.000000       0.000000
      0.310536       0.000000       0.000000
      0.310594       0.000001       0.000000
      0.310592       0.000000       0.000000
      0.310534       0.000000       0.000000
      0.310470      -0.000000       0.000000
      0.310534       0.000000       0.000000
      0.310533      -0.000000       0.000000
      0.310469      -0.000000       0.000000
      0.310534       0.000000       0.000000
      0.310592       0.000000       0.000000
      0.310591      -0.000000       0.000000
      0.310533      -0.000000       0.000000
      0.000000       0.000000       0.000000
      0.306968      -0.000110       0.000000
      0.307086      -0.000236       0.000000
      0.000000       0.000000       0.000000
      0.306968      -0.000110       0.000000
      0.309680      -0.000088       0.000000
      0.309676      -0.000112       0.000000
      0.307086      -0.000236       0.000000
      0.000000       0.000000       0.000000
      0.307086      -0.000236       0.000000
      0.307000      -0.000223       0.000000
      0.000000       0.000000       0.000000
      0.307086      -0.000236       0.000000
      0.309676      -0.000112       0.000000
      0.309632      -0.000114       0.000000
      0.307000      -0.000223       0.000000
      0.309680      -0.000088       0.000000
      0.310044      -0.000063       0.000000
      0.310023      -0.000070       0.000000
      0.309676      -0.000112       0.000000
      0.310044      -0.000063       0.000000
      0.310168      -0.000045       0.000000
      0.310150      -0.000046       0.000000
      0.310023      -0.000070       0.000000
      0.309676      -0.000112       0.000000
      0.310023      -0.000070       0.000000
      0.309997      -0.000070       0.000000
      0.309632      -0.000114       0.000000
      0.310023      -0.000070       0.000000
      0.310150      -0.000046       0.000000
      0.310133      -0.000046       0.000000
      0.309997      -0.000070       0.000000
      0.000000       0.000000       0.000000
      0.307000      -0.000223       0.000000
      0.306972      -0.000183       0.000000
      0.000000       0.000000       0.000000
      0.307000      -0.000223       0.000000
      0.309632      -0.000114       0.000000
      0.309600      -0.000109       0.000000
      0.306972      -0.000183       0.000000
      0.000000       0.000000       0.000000
      0.306972      -0.000183       0.000000
      0.306956      -0.000150       0.000000
      0.000000       0.000000       0.000000
      0.306972      -0.000183       0.000000
      0.309600      -0.000109       0.000000
      0.309579      -0.000102       0.000000
      0.306956      -0.000150       0.000000
      0.309632      -0.000114       0.000000
      0.309997      -0.000070       0.000000
      0.309974      -0.000069       0.000000
      0.309600      -0.000109       0.000000
      0.309997      -0.000070       0.000000
      0.310133      -0.000046       0.000000
      0.310116      -0.000045       0.000000
      0.309974      -0.000069       0.000000
      0.309600      -0.000109       0.000000
      0.309974      -0.000069       0.000000
      0.309956      -0.000066       0.000000
      0.309579      -0.000102       0.000000
      0.309974      -0.000069       0.000000
      0.310116      -0.000045       0.000000
      0.310102      -0.000044       0.000000
      0.309956      -0.000066       0.000000
      0.310168      -0.000045       0.000000
      0.310241      -0.000031       0.000000
      0.310227      -0.000031       0.000000
      0.310150      -0.000046       0.000000
      0.310241      -0.000031       0.000000
      0.310295      -0.000021       0.000000
      0.310285      -0.000021       0.000000
      0.310227      -0.000031       0.000000
      0.310150      -0.000046       0.000000
      0.310227      -0.000031       0.000000
      0.310214      -0.000031       0.000000
      0.310133      -0.000046       0.000000
      0.310227      -0.000031       0.000000
      0.310285      -0.000021       0.000000
      0.310275      -0.000021       0.000000
      0.310214      -0.000031       0.000000
      0.310133      -0.000046       0.000000
      0.310214      -0.000031       0.000000
      0.310202      -0.000030       0.000000
      0.310116      -0.000045       0.000000
      0.310214      -0.000031       0.000000
      0.310275      -0.000021       0.000000
      0.310265      -0.000020       0.000000
      0.310202      -0.000030       0.000000
      0.310116      -0.000045       0.000000
      0.310202      -0.000030       0.000000
      0.310191      -0.000030       0.000000
      0.310102      -0.000044       0.000000
      0.310202      -0.000030       0.000000
      0.310265      -0.000020       0.000000
      0.310256      -0.000020       0.000000
      0.310191      -0.000030       0.000000
      0.000000       0.000000       0.000000
      0.306956      -0.000150       0.000000
      0.306946      -0.000125       0.000000
      0.000000       0.000000       0.000000
      0.306956      -0.000150       0.000000
      0.309579      -0.000102       0.000000
      0.309566      -0.000092       0.000000
      0.306946      -0.000125       0.000000
      0.000000       0.000000       0.000000
      0.306946      -0.000125       0.000000
      0.306938      -0.000106       0.000000
      0.000000       0.000000       0.000000
      0.306946      -0.000125       0.000000
      0.309566      -0.000092       0.000000
      0.309556      -0.000082       0.000000
      0.306938      -0.000106       0.000000
      0.309579      -0.000102       0.000000
      0.309956      -0.000066       0.000000
      0.309942      -0.000063       0.000000
      0.309566      -0.000092       0.000000
      0.309956      -0.000066       0.000000
      0.310102      -0.000044       0.000000
      0.310090      -0.000042       0.000000
      0.309942      -0.000063       0.000000
      0.309566      -0.000092       0.000000
      0.309942      -0.000063       0.000000
      0.309932      -0.000058       0.000000
      0.309556      -0.000082       0.000000
      0.309942      -0.000063       0.000000
      0.310090      -0.000042       0.000000
      0.310080      -0.000040       0.000000
      0.309932      -0.000058       0.000000
      0.000000       0.000000       0.000000
      0.306938      -0.000106       0.000000
      0.306932      -0.000090       0.000000
      0.000000       0.000000       0.000000
      0.306938      -0.000106       0.000000
      0.309556      -0.000082       0.000000
      0.309549      -0.000072       0.000000
      0.306932      -0.000090       0.000000
      0.000000       0.000000       0.000000
      0.306932      -0.000090       0.000000
      0.306926      -0.000077       0.000000
      0.000000       0.000000       0.000000
      0.306932      -0.000090       0.000000
      0.309549      -0.000072       0.000000
      0.309543      -0.000063       0.000000
      0.306926      -0.000077       0.000000
      0.309556      -0.000082       0.000000
      0.309932      -0.000058       0.000000
      0.309924      -0.000053       0.000000
      0.309549      -0.000072       0.000000
      0.309932      -0.000058       0.000000
      0.310080      -0.000040       0.000000
      0.310072      -0.000037       0.000000
      0.309924      -0.000053       0.000000
      0.309549      -0.000072       0.000000
      0.309924      -0.000053       0.000000
      0.309917      -0.000048       0.000000