# vtk DataFile Version 2.0
time_10.vtk
ASCII
DATASET UNSTRUCTURED_GRID
POINTS   576 float
      0.458579       0.641421       0.000000
      0.497369       0.671659       0.000000
      0.438243       0.730363       0.000000
      0.382149       0.701184       0.000000
      0.497369       0.671659       0.000000
      0.545805       0.692517       0.000000
      0.506084       0.750000       0.000000
      0.438243       0.730363       0.000000
      0.382149       0.701184       0.000000
      0.438243       0.730363       0.000000
      0.380813       0.787383       0.000000
      0.305719       0.760948       0.000000
      0.438243       0.730363       0.000000
      0.506084       0.750000       0.000000
      0.468251       0.804752       0.000000
      0.380813       0.787383       0.000000
      0.545805       0.692517       0.000000
      0.600000       0.700000       0.000000
      0.581017       0.756950       0.000000
      0.506084       0.750000       0.000000
      0.600000       0.700000       0.000000
      0.654195       0.692517       0.000000
      0.656527       0.750000       0.000000
      0.581017       0.756950       0.000000
      0.506084       0.750000       0.000000
      0.581017       0.756950       0.000000
      0.563060       0.810819       0.000000
      0.468251       0.804752       0.000000
      0.581017       0.756950       0.000000
      0.656527       0.750000       0.000000
      0.658747       0.804752       0.000000
      0.563060       0.810819       0.000000
      0.654195       0.692517       0.000000
      0.702631       0.671659       0.000000
      0.725999       0.730363       0.000000
      0.656527       0.750000       0.000000
      0.702631       0.671659       0.000000
      0.741421       0.641421       0.000000
      0.784518       0.701184       0.000000
      0.725999       0.730363       0.000000
      0.656527       0.750000       0.000000
      0.725999       0.730363       0.000000
      0.748697       0.787383       0.000000
      0.658747       0.804752       0.000000
      0.725999       0.730363       0.000000
      0.784518       0.701184       0.000000
      0.827614       0.760948       0.000000
      0.748697       0.787383       0.000000
      0.305719       0.760948       0.000000
      0.380813       0.787383       0.000000
      0.325006       0.842791       0.000000
      0.229289       0.820711       0.000000
      0.380813       0.787383       0.000000
      0.468251       0.804752       0.000000
      0.432173       0.856962       0.000000
      0.325006       0.842791       0.000000
      0.229289       0.820711       0.000000
      0.325006       0.842791       0.000000
      0.270755       0.896655       0.000000
      0.152860       0.880474       0.000000
      0.325006       0.842791       0.000000
      0.432173       0.856962       0.000000
      0.397732       0.906804       0.000000
      0.270755       0.896655       0.000000
      0.468251       0.804752       0.000000
      0.563060       0.810819       0.000000
      0.546050       0.861851       0.000000
      0.432173       0.856962       0.000000
      0.563060       0.810819       0.000000
      0.658747       0.804752       0.000000
      0.660865       0.856962       0.000000
      0.546050       0.861851       0.000000
      0.432173       0.856962       0.000000
      0.546050       0.861851       0.000000
      0.529912       0.910264       0.000000
      0.397732       0.906804       0.000000
      0.546050       0.861851       0.000000
      0.660865       0.856962       0.000000
      0.662887       0.906804       0.000000
      0.529912       0.910264       0.000000
      0.658747       0.804752       0.000000
      0.748697       0.787383       0.000000
      0.770753       0.842791       0.000000
      0.660865       0.856962       0.000000
      0.748697       0.787383       0.000000
      0.827614       0.760948       0.000000
      0.870711       0.820711       0.000000
      0.770753       0.842791       0.000000
      0.660865       0.856962       0.000000
      0.770753       0.842791       0.000000
      0.792195       0.896655       0.000000
      0.662887       0.906804       0.000000
      0.770753       0.842791       0.000000
      0.870711       0.820711       0.000000
      0.913807       0.880474       0.000000
      0.792195       0.896655       0.000000
      0.152860       0.880474       0.000000
      0.270755       0.896655       0.000000
      0.217995       0.949038       0.000000
      0.076430       0.940237       0.000000
      0.270755       0.896655       0.000000
      0.397732       0.906804       0.000000
      0.364819       0.954435       0.000000
      0.217995       0.949038       0.000000
      0.076430       0.940237       0.000000
      0.217995       0.949038       0.000000
      0.166667       1.000000       0.000000
      0.000000       1.000000       0.000000
      0.217995       0.949038       0.000000
      0.364819       0.954435       0.000000
      0.333333       1.000000       0.000000
      0.166667       1.000000       0.000000
      0.397732       0.906804       0.000000
      0.529912       0.910264       0.000000
      0.514582       0.956255       0.000000
      0.364819       0.954435       0.000000
      0.529912       0.910264       0.000000
      0.662887       0.906804       0.000000
      0.664819       0.954435       0.000000
      0.514582       0.956255       0.000000
      0.364819       0.954435       0.000000
      0.514582       0.956255       0.000000
      0.500000       1.000000       0.000000
      0.333333       1.000000       0.000000
      0.514582       0.956255       0.000000
      0.664819       0.954435       0.000000
      0.666667       1.000000       0.000000
      0.500000       1.000000       0.000000
      0.662887       0.906804       0.000000
      0.792195       0.896655       0.000000
      0.813047       0.949038       0.000000
      0.664819       0.954435       0.000000
      0.792195       0.896655       0.000000
      0.913807       0.880474       0.000000
      0.956904       0.940237       0.000000
      0.813047       0.949038       0.000000
      0.664819       0.954435       0.000000
      0.813047       0.949038       0.000000
      0.833333       1.000000       0.000000
      0.666667       1.000000       0.000000
      0.813047       0.949038       0.000000
      0.956904       0.940237       0.000000
      1.000000       1.000000       0.000000
      0.833333       1.000000       0.000000
      0.458579       0.358579       0.000000
      0.428341       0.397369       0.000000
      0.351758       0.356122       0.000000
      0.382149       0.298816       0.000000
      0.428341       0.397369       0.000000
      0.407483       0.445805       0.000000
      0.331305       0.424779       0.000000
      0.351758       0.356122       0.000000
      0.382149       0.298816       0.000000
      0.351758       0.356122       0.000000
      0.277372       0.316058       0.000000
      0.305719       0.239052       0.000000
      0.351758       0.356122       0.000000
      0.331305       0.424779       0.000000
      0.258747       0.404752       0.000000
      0.277372       0.316058       0.000000
      0.407483       0.445805       0.000000
      0.400000       0.500000       0.000000
      0.324066       0.500000       0.000000
      0.331305       0.424779       0.000000
      0.400000       0.500000       0.000000
      0.407483       0.554195       0.000000
      0.331305       0.575221       0.000000
      0.324066       0.500000       0.000000
      0.331305       0.424779       0.000000
      0.324066       0.500000       0.000000
      0.252241       0.500000       0.000000
      0.258747       0.404752       0.000000
      0.324066       0.500000       0.000000
      0.331305       0.575221       0.000000
      0.258747       0.595248       0.000000
      0.252241       0.500000       0.000000
      0.407483       0.554195       0.000000
      0.428341       0.602631       0.000000
      0.351758       0.643878       0.000000
      0.331305       0.575221       0.000000
      0.428341       0.602631       0.000000
      0.458579       0.641421       0.000000
      0.382149       0.701184       0.000000
      0.351758       0.643878       0.000000
      0.331305       0.575221       0.000000
      0.351758       0.643878       0.000000
      0.277372       0.683942       0.000000
      0.258747       0.595248       0.000000
      0.351758       0.643878       0.000000
      0.382149       0.701184       0.000000
      0.305719       0.760948       0.000000
      0.277372       0.683942       0.000000
      0.305719       0.239052       0.000000
      0.277372       0.316058       0.000000
      0.205089       0.277126       0.000000
      0.229289       0.179289       0.000000
      0.277372       0.316058       0.000000
      0.258747       0.404752       0.000000
      0.189557       0.385654       0.000000
      0.205089       0.277126       0.000000
      0.229289       0.179289       0.000000
      0.205089       0.277126       0.000000
      0.134820       0.239280       0.000000
      0.152860       0.119526       0.000000
      0.205089       0.277126       0.000000
      0.189557       0.385654       0.000000
      0.123505       0.367423       0.000000
      0.134820       0.239280       0.000000
      0.258747       0.404752       0.000000
      0.252241       0.500000       0.000000
      0.184198       0.500000       0.000000
      0.189557       0.385654       0.000000
      0.252241       0.500000       0.000000
      0.258747       0.595248       0.000000
      0.189557       0.614346       0.000000
      0.184198       0.500000       0.000000
      0.189557       0.385654       0.000000
      0.184198       0.500000       0.000000
      0.119648       0.500000       0.000000
      0.123505       0.367423       0.000000
[...]
POINT_DATA   576
VECTORS U float 
      0.000391       0.005081       0.000000
      0.000202       0.005443       0.000000
      0.000034       0.005171       0.000000
      0.000258       0.004713       0.000000
      0.000202       0.005443       0.000000
      0.000003       0.005684       0.000000
     -0.000114       0.005579       0.000000
      0.000034       0.005171       0.000000
      0.000258       0.004713       0.000000
      0.000034       0.005171       0.000000
      0.000058       0.005145       0.000000
      0.000325       0.004759       0.000000
      0.000034       0.005171       0.000000
     -0.000114       0.005579       0.000000
     -0.000127       0.005535       0.000000
      0.000058       0.005145       0.000000
      0.000003       0.005684       0.000000
     -0.000204       0.005782       0.000000
     -0.000192       0.005807       0.000000
     -0.000114       0.005579       0.000000
     -0.000204       0.005782       0.000000
     -0.000429       0.005731       0.000000
     -0.000266       0.005768       0.000000
     -0.000192       0.005807       0.000000
     -0.000114       0.005579       0.000000
     -0.000192       0.005807       0.000000
     -0.000190       0.005804       0.000000
     -0.000127       0.005535       0.000000
     -0.000192       0.005807       0.000000
     -0.000266       0.005768       0.000000
     -0.000201       0.005794       0.000000
     -0.000190       0.005804       0.000000
     -0.000429       0.005731       0.000000
     -0.000683       0.005532       0.000000
     -0.000404       0.005465       0.000000
     -0.000266       0.005768       0.000000
     -0.000683       0.005532       0.000000
     -0.000961       0.005199       0.000000
     -0.000646       0.004999       0.000000
     -0.000404       0.005465       0.000000
     -0.000266       0.005768       0.000000
     -0.000404       0.005465       0.000000
     -0.000291       0.005488       0.000000
     -0.000201       0.005794       0.000000
     -0.000404       0.005465       0.000000
     -0.000646       0.004999       0.000000
     -0.000518       0.005027       0.000000
     -0.000291       0.005488       0.000000
      0.000325       0.004759       0.000000
      0.000058       0.005145       0.000000
      0.000121       0.005255       0.000000
      0.000425       0.004963       0.000000
      0.000058       0.005145       0.000000
     -0.000127       0.005535       0.000000
     -0.000107       0.005570       0.000000
      0.000121       0.005255       0.000000
      0.000425       0.004963       0.000000
      0.000121       0.005255       0.000000
      0.000199       0.005445       0.000000
      0.000542       0.005241       0.000000
      0.000121       0.005255       0.000000
     -0.000107       0.005570       0.000000
     -0.000077       0.005663       0.000000
      0.000199       0.005445       0.000000
     -0.000127       0.005535       0.000000
     -0.000190       0.005804       0.000000
     -0.000184       0.005819       0.000000
     -0.000107       0.005570       0.000000
     -0.000190       0.005804       0.000000
     -0.000201       0.005794       0.000000
     -0.000167       0.005829       0.000000
     -0.000184       0.005819       0.000000
     -0.000107       0.005570       0.000000
     -0.000184       0.005819       0.000000
     -0.000178       0.005855       0.000000
     -0.000077       0.005663       0.000000
     -0.000184       0.005819       0.000000
     -0.000167       0.005829       0.000000
     -0.000146       0.005873       0.000000
     -0.000178       0.005855       0.000000
     -0.000201       0.005794       0.000000
     -0.000291       0.005488       0.000000
     -0.000231       0.005559       0.000000
     -0.000167       0.005829       0.000000
     -0.000291       0.005488       0.000000
     -0.000518       0.005027       0.000000
     -0.000448       0.005146       0.000000
     -0.000231       0.005559       0.000000
     -0.000167       0.005829       0.000000
     -0.000231       0.005559       0.000000
     -0.000198       0.005664       0.000000
     -0.000146       0.005873       0.000000
     -0.000231       0.005559       0.000000
     -0.000448       0.005146       0.000000
     -0.000428       0.005337       0.000000
     -0.000198       0.005664       0.000000
      0.000542       0.005241       0.000000
      0.000199       0.005445       0.000000
      0.000294       0.005689       0.000000
      0.000694       0.005573       0.000000
      0.000199       0.005445       0.000000
     -0.000077       0.005663       0.000000
     -0.000037       0.005800       0.000000
      0.000294       0.005689       0.000000
      0.000694       0.005573       0.000000
      0.000294       0.005689       0.000000
      0.000417       0.005972       0.000000
      0.000904       0.005972       0.000000
      0.000294       0.005689       0.000000
     -0.000037       0.005800       0.000000
      0.000014       0.005972       0.000000
      0.000417       0.005972       0.000000
     -0.000077       0.005663       0.000000
     -0.000178       0.005855       0.000000
     -0.000173       0.005906       0.000000
     -0.000037       0.005800       0.000000
     -0.000178       0.005855       0.000000
     -0.000146       0.005873       0.000000
     -0.000135       0.005921       0.000000
     -0.000173       0.005906       0.000000
     -0.000037       0.005800       0.000000
     -0.000173       0.005906       0.000000
     -0.000170       0.005972       0.000000
      0.000014       0.005972       0.000000
     -0.000173       0.005906       0.000000
     -0.000135       0.005921       0.000000
     -0.000131       0.005972       0.000000
     -0.000170       0.005972       0.000000
     -0.000146       0.005873       0.000000
     -0.000198       0.005664       0.000000
     -0.000189       0.005802       0.000000
     -0.000135       0.005921       0.000000
     -0.000198       0.005664       0.000000
     -0.000428       0.005337       0.000000
     -0.000465       0.005613       0.000000
     -0.000189       0.005802       0.000000
     -0.000135       0.005921       0.000000
     -0.000189       0.005802       0.000000
     -0.000203       0.005972       0.000000
     -0.000131       0.005972       0.000000
     -0.000189       0.005802       0.000000
     -0.000465       0.005613       0.000000
     -0.000560       0.005972       0.000000
     -0.000203       0.005972       0.000000
      0.000341       0.000768       0.000000
      0.000520       0.001243       0.000000
      0.000506       0.001636       0.000000
      0.000206       0.001121       0.000000
      0.000520       0.001243       0.000000
      0.000660       0.001927       0.000000
      0.000841       0.002250       0.000000
      0.000506       0.001636       0.000000
      0.000206       0.001121       0.000000
      0.000506       0.001636       0.000000
      0.000577       0.001639       0.000000
      0.000246       0.001072       0.000000
      0.000506       0.001636       0.000000
      0.000841       0.002250       0.000000
      0.000949       0.002290       0.000000
      0.000577       0.001639       0.000000
      0.000660       0.001927       0.000000
      0.000700       0.002903       0.000000
      0.001019       0.002917       0.000000
      0.000841       0.002250       0.000000
      0.000700       0.002903       0.000000
      0.000687       0.003888       0.000000
      0.000875       0.003580       0.000000
      0.001019       0.002917       0.000000
      0.000841       0.002250       0.000000
      0.001019       0.002917       0.000000
      0.001142       0.002926       0.000000
      0.000949       0.002290       0.000000
      0.001019       0.002917       0.000000
      0.000875       0.003580       0.000000
      0.000985       0.003555       0.000000
      0.001142       0.002926       0.000000
      0.000687       0.003888       0.000000
      0.000567       0.004587       0.000000
      0.000558       0.004190       0.000000
      0.000875       0.003580       0.000000
      0.000567       0.004587       0.000000
      0.000391       0.005081       0.000000
      0.000258       0.004713       0.000000
      0.000558       0.004190       0.000000
      0.000875       0.003580       0.000000
      0.000558       0.004190       0.000000
      0.000641       0.004192       0.000000
      0.000985       0.003555       0.000000
      0.000558       0.004190       0.000000
      0.000258       0.004713       0.000000
      0.000325       0.004759       0.000000
      0.000641       0.004192       0.000000
      0.000246       0.001072       0.000000
      0.000577       0.001639       0.000000
      0.000658       0.001531       0.000000
      0.000290       0.000876       0.000000
      0.000577       0.001639       0.000000
      0.000949       0.002290       0.000000
      0.001056       0.002253       0.000000
      0.000658       0.001531       0.000000
      0.000290       0.000876       0.000000
      0.000658       0.001531       0.000000
      0.000732       0.001405       0.000000
      0.000298       0.000623       0.000000
      0.000658       0.001531       0.000000
      0.001056       0.002253       0.000000
      0.001165       0.002210       0.000000
      0.000732       0.001405       0.000000
      0.000949       0.002290       0.000000
      0.001142       0.002926       0.000000
      0.001255       0.002937       0.000000
      0.001056       0.002253       0.000000
      0.001142       0.002926       0.000000
      0.000985       0.003555       0.000000
      0.001095       0.003613       0.000000
      0.001255       0.002937       0.000000
      0.001056       0.002253       0.000000
      0.001255       0.002937       0.000000
      0.001377       0.002950       0.000000
      0.001165       0.002210       0.000000
      0.001255       0.002937       0.000000
      0.001095       0.003613       0.000000
      0.001208       0.003685       0.000000
      0.001377       0.002950       0.000000
      0.000985       0.003555       0.000000
      0.000641       0.004192       0.000000
      0.000741       0.004317       0.000000
      0.001095       0.003613       0.000000
      0.000641       0.004192       0.000000
      0.000325       0.004759       0.000000
      0.000425       0.004963       0.000000
      0.000741       0.004317       0.000000
      0.001095       0.003613       0.000000
      0.000741       0.004317       0.000000
      0.000842       0.004474       0.000000
      0.001208       0.003685       0.000000
      0.000741       0.004317       0.000000
      0.000425       0.004963       0.000000
      0.000542       0.005241       0.000000
      0.000842       0.004474       0.000000
      0.000298       0.000623       0.000000
      0.000732       0.001405       0.000000
      0.000797       0.001312       0.000000
      0.000241       0.000342       0.000000
      0.000732       0.001405       0.000000
      0.001165       0.002210       0.000000
      0.001269       0.002196       0.000000
      0.000797       0.001312       0.000000
      0.000241       0.000342       0.000000
      0.000797       0.001312       0.000000
      0.000853       0.001268       0.000000
      0.000000       0.000000       0.000000
      0.000797       0.001312       0.000000
      0.001269       0.002196       0.000000
      0.001360       0.002231       0.000000
      0.000853       0.001268       0.000000
      0.001165       0.002210       0.000000
      0.001377       0.002950       0.000000
      0.001500       0.002963       0.000000
      0.001269       0.002196       0.000000
      0.001377       0.002950       0.000000
      0.001208       0.003685       0.000000
      0.001318       0.003735       0.000000
      0.001500       0.002963       0.000000
      0.001269       0.002196       0.000000
      0.001500       0.002963       0.000000
      0.001613       0.002974       0.000000
      0.001360       0.002231       0.000000
      0.001500       0.002963       0.000000
      0.001318       0.003735       0.000000
      0.001421       0.003732       0.000000
      0.001613       0.002974       0.000000
      0.001208       0.003685       0.000000
      0.000842       0.004474       0.000000
      0.000945       0.004625       0.000000
      0.001318       0.003735       0.000000
      0.000842       0.004474       0.000000
      0.000542       0.005241       0.000000
      0.000694       0.005573       0.000000
      0.000945       0.004625       0.000000
      0.001318       0.003735       0.000000
      0.000945       0.004625       0.000000
      0.001061       0.004758       0.000000
      0.001421       0.003732       0.000000
      0.000945       0.004625       0.000000
      0.000694       0.005573       0.000000
      0.000904       0.005972       0.000000
      0.001061       0.004758       0.000000
     -0.000903       0.000718       0.000000
     -0.000620       0.000386       0.000000
     -0.000331       0.000458       0.000000
     -0.000572       0.000927       0.000000
     -0.000620       0.000386       0.000000
     -0.000375       0.000190       0.000000
     -0.000208       0.000161       0.000000
     -0.000331       0.000458       0.000000
     -0.000572       0.000927       0.000000
     -0.000331       0.000458       0.000000
     -0.000194       0.000443       0.000000
     -0.000419       0.000907       0.000000
     -0.000331       0.000458       0.000000
     -0.000208       0.000161       0.000000
     -0.000125       0.000145       0.000000
     -0.000194       0.000443       0.000000
     -0.000375       0.000190       0.000000
     -0.000178       0.000135       0.000000
     -0.000158       0.000117       0.000000
     -0.000208       0.000161       0.000000
     -0.000178       0.000135       0.000000
     -0.000007       0.000218       0.000000
     -0.000112       0.000315       0.000000
     -0.000158       0.000117       0.000000
     -0.000208       0.000161       0.000000
     -0.000158       0.000117       0.000000
     -0.000146       0.000126       0.000000
     -0.000125       0.000145       0.000000
     -0.000158       0.000117       0.000000
     -0.000112       0.000315       0.000000
     -0.000128       0.000358       0.000000
     -0.000146       0.000126       0.000000
     -0.000007       0.000218       0.000000
      0.000164       0.000432       0.000000
      0.000003       0.000686       0.000000
     -0.000112       0.000315       0.000000
      0.000164       0.000432       0.000000
      0.000341       0.000768       0.000000
      0.000206       0.001121       0.000000
      0.000003       0.000686       0.000000
     -0.000112       0.000315       0.000000
      0.000003       0.000686       0.000000
      0.000009       0.000708       0.000000
     -0.000128       0.000358       0.000000
      0.000003       0.000686       0.000000
      0.000206       0.001121       0.000000
      0.000246       0.001072       0.000000
      0.000009       0.000708       0.000000
     -0.000419       0.000907       0.000000
     -0.000194       0.000443       0.000000
     -0.000103       0.000378       0.000000
     -0.000315       0.000794       0.000000
     -0.000194       0.000443       0.000000
     -0.000125       0.000145       0.000000
     -0.000068       0.000122       0.000000
     -0.000103       0.000378       0.000000
     -0.000315       0.000794       0.000000
     -0.000103       0.000378       0.000000
     -0.000038       0.000276       0.000000
     -0.000247       0.000607       0.000000
     -0.000103       0.000378       0.000000
     -0.000068       0.000122       0.000000
     -0.000028       0.000090       0.000000
     -0.000038       0.000276       0.000000
     -0.000125       0.000145       0.000000
     -0.000146       0.000126       0.000000
     -0.000127       0.000121       0.000000
     -0.000068       0.000122       0.000000
     -0.000146       0.000126       0.000000
     -0.000128       0.000358       0.000000
     -0.000114       0.000327       0.000000
     -0.000127       0.000121       0.000000
     -0.000068       0.000122       0.000000
     -0.000127       0.000121       0.000000
     -0.000101       0.000097       0.000000
     -0.000028       0.000090       0.000000
     -0.000127       0.000121       0.000000
     -0.000114       0.000327       0.000000
     -0.000087       0.000245       0.000000
     -0.000101       0.000097       0.000000
     -0.000128       0.000358       0.000000
      0.000009       0.000708       0.000000
      0.000037       0.000599       0.000000
     -0.000114       0.000327       0.000000
      0.000009       0.000708       0.000000
      0.000246       0.001072       0.000000
      0.000290       0.000876       0.000000
      0.000037       0.000599       0.000000
     -0.000114       0.000327       0.000000
      0.000037       0.000599       0.000000
      0.000056       0.000421       0.000000
     -0.000087       0.000245       0.000000
      0.000037       0.000599       0.000000
      0.000290       0.000876       0.000000
      0.000298       0.000623       0.000000
      0.000056       0.000421       0.000000
     -0.000247       0.000607       0.000000
     -0.000038       0.000276       0.000000
     -0.000001       0.000146       0.000000
     -0.000191       0.000340       0.000000
     -0.000038       0.000276       0.000000
     -0.000028       0.000090       0.000000
     -0.000004       0.000050       0.000000
     -0.000001       0.000146       0.000000
     -0.000191       0.000340       0.000000
     -0.000001       0.000146       0.000000
      0.000000       0.000000       0.000000
      0.000000       0.000000       0.000000
     -0.000001       0.000146       0.000000
     -0.000004       0.000050       0.000000
      0.000000       0.000000       0.000000
      0.000000       0.000000       0.000000
     -0.000028       0.000090       0.000000
     -0.000101       0.000097       0.000000
     -0.000061       0.000056       0.000000
     -0.000004       0.000050       0.000000
     -0.000101       0.000097       0.000000
     -0.000087       0.000245       0.000000
     -0.000048       0.000130       0.000000
     -0.000061       0.000056       0.000000
     -0.000004       0.000050       0.000000
     -0.000061       0.000056       0.000000
      0.000000       0.000000       0.000000
      0.000000       0.000000       0.000000
     -0.000061       0.000056       0.000000
     -0.000048       0.000130       0.000000
      0.000000       0.000000       0.000000
      0.000000       0.000000       0.000000
     -0.000087       0.000245       0.000000
      0.000056       0.000421       0.000000
      0.000048       0.000213       0.000000
     -0.000048       0.000130       0.000000
      0.000056       0.000421       0.000000
      0.000298       0.000623       0.000000
      0.000241       0.000342       0.000000
      0.000048       0.000213       0.000000
     -0.000048       0.000130       0.000000
      0.000048       0.000213       0.000000
      0.000000       0.000000       0.000000
      0.000000       0.000000       0.000000
      0.000048       0.000213       0.000000
      0.000241       0.000342       0.000000
      0.000000       0.000000       0.000000
      0.000000       0.000000       0.000000
     -0.000903       0.000718       0.000000
     -0.001213       0.001201       0.000000
     -0.000999       0.001438       0.000000
     -0.000572       0.000927       0.000000
     -0.001213       0.001201       0.000000
     -0.001486       0.001907       0.000000
     -0.001523       0.002094       0.000000
     -0.000999       0.001438       0.000000
     -0.000572       0.000927       0.000000
     -0.000999       0.001438       0.000000
     -0.000870       0.001466       0.000000