# vtk DataFile Version 2.0
time_10.vtk
ASCII
DATASET UNSTRUCTURED_GRID
POINTS   576 float
      0.458579       0.641421       0.000000
      0.497369       0.671659       0.000000
      0.438243       0.730363       0.000000
      0.382149       0.701184       0.000000
      0.497369       0.671659       0.000000
      0.545805       0.692517       0.000000
      0.506084       0.750000       0.000000
      0.438243       0.730363       0.000000
      0.382149       0.701184       0.000000
      0.438243       0.730363       0.000000
      0.380813       0.787383       0.000000
      0.305719       0.760948       0.000000
      0.438243       0.730363       0.000000
      0.506084       0.750000       0.000000
      0.468251       0.804752       0.000000
      0.380813       0.787383       0.000000
      0.545805       0.692517       0.000000
      0.600000       0.700000       0.000000
      0.581017       0.756950       0.000000
      0.506084       0.750000       0.000000
      0.600000       0.700000       0.000000
      0.654195       0.692517       0.000000
      0.656527       0.750000       0.000000
      0.581017       0.756950       0.000000
      0.506084       0.750000       0.000000
      0.581017       0.756950       0.000000
      0.563060       0.810819       0.000000
      0.468251       0.804752       0.000000
      0.581017       0.756950       0.000000
      0.656527       0.750000       0.000000
      0.658747       0.804752       0.000000
      0.563060       0.810819       0.000000
      0.654195       0.692517       0.000000
      0.702631       0.671659       0.000000
      0.725999       0.730363       0.000000
      0.656527       0.750000       0.000000
      0.702631       0.671659       0.000000
      0.741421       0.641421       0.000000
      0.784518       0.701184       0.000000
      0.725999       0.730363       0.000000
      0.656527       0.750000       0.000000
      0.725999       0.730363       0.000000
      0.748697       0.787383       0.000000
      0.658747       0.804752       0.000000
      0.725999       0.730363       0.000000
      0.784518       0.701184       0.000000
      0.827614       0.760948       0.000000
      0.748697       0.787383       0.000000
      0.305719       0.760948       0.000000
      0.380813       0.787383       0.000000
      0.325006       0.842791       0.000000
      0.229289       0.820711       0.000000
      0.380813       0.787383       0.000000
      0.468251       0.804752       0.000000
      0.432173       0.856962       0.000000
      0.325006       0.842791       0.000000
      0.229289       0.820711       0.000000
      0.325006       0.842791       0.000000
      0.270755       0.896655       0.000000
      0.152860       0.880474       0.000000
      0.325006       0.842791       0.000000
      0.432173       0.856962       0.000000
      0.397732       0.906804       0.000000
      0.270755       0.896655       0.000000
      0.468251       0.804752       0.000000
      0.563060       0.810819       0.000000
      0.546050       0.861851       0.000000
      0.432173       0.856962       0.000000
      0.563060       0.810819       0.000000
      0.658747       0.804752       0.000000
      0.660865       0.856962       0.000000
      0.546050       0.861851       0.000000
      0.432173       0.856962       0.000000
      0.546050       0.861851       0.000000
      0.529912       0.910264       0.000000
      0.397732       0.906804       0.000000
      0.546050       0.861851       0.000000
      0.660865       0.856962       0.000000
      0.662887       0.906804       0.000000
      0.529912       0.910264       0.000000
      0.658747       0.804752       0.000000
      0.748697       0.787383       0.000000
      0.770753       0.842791       0.000000
      0.660865       0.856962       0.000000
      0.748697       0.787383       0.000000
      0.827614       0.760948       0.000000
      0.870711       0.820711       0.000000
      0.770753       0.842791       0.000000
      0.660865       0.856962       0.000000
      0.770753       0.842791       0.000000
      0.792195       0.896655       0.000000
      0.662887       0.906804       0.000000
      0.770753       0.842791       0.000000
      0.870711       0.820711       0.000000
      0.913807       0.880474       0.000000
      0.792195       0.896655       0.000000
      0.152860       0.880474       0.000000
      0.270755       0.896655       0.000000
      0.217995       0.949038       0.000000
      0.076430       0.940237       0.000000
      0.270755       0.896655       0.000000
      0.397732       0.906804       0.000000
      0.364819       0.954435       0.000000
      0.217995       0.949038       0.000000
      0.076430       0.940237       0.000000
      0.217995       0.949038       0.000000
      0.166667       1.000000       0.000000
      0.000000       1.000000       0.000000
      0.217995       0.949038       0.000000
      0.364819       0.954435       0.000000
      0.333333       1.000000       0.000000
      0.166667       1.000000       0.000000
      0.397732       0.906804       0.000000
      0.529912       0.910264       0.000000
      0.514582       0.956255       0.000000
      0.364819       0.954435       0.000000
      0.529912       0.910264       0.000000
      0.662887       0.906804       0.000000
      0.664819       0.954435       0.000000
      0.514582       0.956255       0.000000
      0.364819       0.954435       0.000000
      0.514582       0.956255       0.000000
      0.500000       1.000000       0.000000
      0.333333       1.000000       0.000000
      0.514582       0.956255       0.000000
      0.664819       0.954435       0.000000
      0.666667       1.000000       0.000000
      0.500000       1.000000       0.000000
      0.662887       0.906804       0.000000
      0.792195       0.896655       0.000000
      0.813047       0.949038       0.000000
      0.664819       0.954435       0.000000
      0.792195       0.896655       0.000000
      0.913807       0.880474       0.000000
      0.956904       0.940237       0.000000
      0.813047       0.949038       0.000000
      0.664819       0.954435       0.000000
      0.813047       0.949038       0.000000
      0.833333       1.000000       0.000000
      0.666667       1.000000       0.000000
      0.813047       0.949038       0.000000
      0.956904       0.940237       0.000000
      1.000000       1.000000       0.000000
      0.833333       1.000000       0.000000
      0.458579       0.358579       0.000000
      0.428341       0.397369       0.000000
      0.351758       0.356122       0.000000
      0.382149       0.298816       0.000000
      0.428341       0.397369       0.000000
      0.407483       0.445805       0.000000
      0.331305       0.424779       0.000000
      0.351758       0.356122       0.000000
      0.382149       0.298816       0.000000
      0.351758       0.356122       0.000000
      0.277372       0.316058       0.000000
      0.305719       0.239052       0.000000
      0.351758       0.356122       0.000000
      0.331305       0.424779       0.000000
      0.258747       0.404752       0.000000
      0.277372       0.316058       0.000000
      0.407483       0.445805       0.000000
      0.400000       0.500000       0.000000
      0.324066       0.500000       0.000000
      0.331305       0.424779       0.000000
      0.400000       0.500000       0.000000
      0.407483       0.554195       0.000000
      0.331305       0.575221       0.000000
      0.324066       0.500000       0.000000
      0.331305       0.424779       0.000000
      0.324066       0.500000       0.000000
      0.252241       0.500000       0.000000
      0.258747       0.404752       0.000000
      0.324066       0.500000       0.000000
      0.331305       0.575221       0.000000
      0.258747       0.595248       0.000000
      0.252241       0.500000       0.000000
      0.407483       0.554195       0.000000
      0.428341       0.602631       0.000000
      0.351758       0.643878       0.000000
      0.331305       0.575221       0.000000
      0.428341       0.602631       0.000000
      0.458579       0.641421       0.000000
      0.382149       0.701184       0.000000
      0.351758       0.643878       0.000000
      0.331305       0.575221       0.000000
      0.351758       0.643878       0.000000
      0.277372       0.683942       0.000000
      0.258747       0.595248       0.000000
      0.351758       0.643878       0.000000
      0.382149       0.701184       0.000000
      0.305719       0.760948       0.000000
      0.277372       0.683942       0.000000
      0.305719       0.239052       0.000000
      0.277372       0.316058       0.000000
      0.205089       0.277126       0.000000
      0.229289       0.179289       0.000000
      0.277372       0.316058       0.000000
      0.258747       0.404752       0.000000
      0.189557       0.385654       0.000000
      0.205089       0.277126       0.000000
      0.229289       0.179289       0.000000
      0.205089       0.277126       0.000000
      0.134820       0.239280       0.000000
      0.152860       0.119526       0.000000
      0.205089       0.277126       0.000000
      0.189557       0.385654       0.000000
      0.123505       0.367423       0.000000
      0.134820       0.239280       0.000000
      0.258747       0.404752       0.000000
      0.252241       0.500000       0.000000
      0.184198       0.500000       0.000000
      0.189557       0.385654       0.000000
      0.252241       0.500000       0.000000
      0.258747       0.595248       0.000000
      0.189557       0.614346       0.000000
      0.184198       0.500000       0.000000
      0.189557       0.385654       0.000000
      0.184198       0.500000       0.000000
      0.119648       0.500000       0.000000
      0.123505       0.367423       0.000000
[...]
POINT_DATA   576
VECTORS U float 
      0.000355       0.004622       0.000000
      0.000184       0.004960       0.000000
      0.000030       0.004709       0.000000
      0.000237       0.004286       0.000000
      0.000184       0.004960       0.000000
      0.000001       0.005186       0.000000
     -0.000107       0.005088       0.000000
      0.000030       0.004709       0.000000
      0.000237       0.004286       0.000000
      0.000030       0.004709       0.000000
      0.000056       0.004689       0.000000
      0.000302       0.004338       0.000000
      0.000030       0.004709       0.000000
     -0.000107       0.005088       0.000000
     -0.000117       0.005049       0.000000
      0.000056       0.004689       0.000000
      0.000001       0.005186       0.000000
     -0.000190       0.005278       0.000000
     -0.000178       0.005301       0.000000
     -0.000107       0.005088       0.000000
     -0.000190       0.005278       0.000000
     -0.000397       0.005230       0.000000
     -0.000247       0.005264       0.000000
     -0.000178       0.005301       0.000000
     -0.000107       0.005088       0.000000
     -0.000178       0.005301       0.000000
     -0.000177       0.005300       0.000000
     -0.000117       0.005049       0.000000
     -0.000178       0.005301       0.000000
     -0.000247       0.005264       0.000000
     -0.000188       0.005290       0.000000
     -0.000177       0.005300       0.000000
     -0.000397       0.005230       0.000000
     -0.000631       0.005042       0.000000
     -0.000374       0.004981       0.000000
     -0.000247       0.005264       0.000000
     -0.000631       0.005042       0.000000
     -0.000884       0.004729       0.000000
     -0.000598       0.004547       0.000000
     -0.000374       0.004981       0.000000
     -0.000247       0.005264       0.000000
     -0.000374       0.004981       0.000000
     -0.000272       0.005004       0.000000
     -0.000188       0.005290       0.000000
     -0.000374       0.004981       0.000000
     -0.000598       0.004547       0.000000
     -0.000484       0.004580       0.000000
     -0.000272       0.005004       0.000000
      0.000302       0.004338       0.000000
      0.000056       0.004689       0.000000
      0.000117       0.004795       0.000000
      0.000396       0.004531       0.000000
      0.000056       0.004689       0.000000
     -0.000117       0.005049       0.000000
     -0.000097       0.005084       0.000000
      0.000117       0.004795       0.000000
      0.000396       0.004531       0.000000
      0.000117       0.004795       0.000000
      0.000191       0.004974       0.000000
      0.000506       0.004792       0.000000
      0.000117       0.004795       0.000000
     -0.000097       0.005084       0.000000
     -0.000067       0.005172       0.000000
      0.000191       0.004974       0.000000
     -0.000117       0.005049       0.000000
     -0.000177       0.005300       0.000000
     -0.000171       0.005315       0.000000
     -0.000097       0.005084       0.000000
     -0.000177       0.005300       0.000000
     -0.000188       0.005290       0.000000
     -0.000157       0.005324       0.000000
     -0.000171       0.005315       0.000000
     -0.000097       0.005084       0.000000
     -0.000171       0.005315       0.000000
     -0.000164       0.005349       0.000000
     -0.000067       0.005172       0.000000
     -0.000171       0.005315       0.000000
     -0.000157       0.005324       0.000000
     -0.000138       0.005366       0.000000
     -0.000164       0.005349       0.000000
     -0.000188       0.005290       0.000000
     -0.000272       0.005004       0.000000
     -0.000218       0.005073       0.000000
     -0.000157       0.005324       0.000000
     -0.000272       0.005004       0.000000
     -0.000484       0.004580       0.000000
     -0.000422       0.004694       0.000000
     -0.000218       0.005073       0.000000
     -0.000157       0.005324       0.000000
     -0.000218       0.005073       0.000000
     -0.000190       0.005173       0.000000
     -0.000138       0.005366       0.000000
     -0.000218       0.005073       0.000000
     -0.000422       0.004694       0.000000
     -0.000404       0.004875       0.000000
     -0.000190       0.005173       0.000000
      0.000506       0.004792       0.000000
      0.000191       0.004974       0.000000
      0.000280       0.005201       0.000000
      0.000647       0.005098       0.000000
      0.000191       0.004974       0.000000
     -0.000067       0.005172       0.000000
     -0.000029       0.005301       0.000000
      0.000280       0.005201       0.000000
      0.000647       0.005098       0.000000
      0.000280       0.005201       0.000000
      0.000394       0.005462       0.000000
      0.000838       0.005462       0.000000
      0.000280       0.005201       0.000000
     -0.000029       0.005301       0.000000
      0.000020       0.005462       0.000000
      0.000394       0.005462       0.000000
     -0.000067       0.005172       0.000000
     -0.000164       0.005349       0.000000
     -0.000159       0.005399       0.000000
     -0.000029       0.005301       0.000000
     -0.000164       0.005349       0.000000
     -0.000138       0.005366       0.000000
     -0.000128       0.005413       0.000000
     -0.000159       0.005399       0.000000
     -0.000029       0.005301       0.000000
     -0.000159       0.005399       0.000000
     -0.000155       0.005462       0.000000
      0.000020       0.005462       0.000000
     -0.000159       0.005399       0.000000
     -0.000128       0.005413       0.000000
     -0.000125       0.005462       0.000000
     -0.000155       0.005462       0.000000
     -0.000138       0.005366       0.000000
     -0.000190       0.005173       0.000000
     -0.000182       0.005303       0.000000
     -0.000128       0.005413       0.000000
     -0.000190       0.005173       0.000000
     -0.000404       0.004875       0.000000
     -0.000439       0.005131       0.000000
     -0.000182       0.005303       0.000000
     -0.000128       0.005413       0.000000
     -0.000182       0.005303       0.000000
     -0.000195       0.005462       0.000000
     -0.000125       0.005462       0.000000
     -0.000182       0.005303       0.000000
     -0.000439       0.005131       0.000000
     -0.000526       0.005462       0.000000
     -0.000195       0.005462       0.000000
      0.000308       0.000725       0.000000
      0.000469       0.001169       0.000000
      0.000461       0.001521       0.000000
      0.000188       0.001048       0.000000
      0.000469       0.001169       0.000000
      0.000595       0.001803       0.000000
      0.000760       0.002076       0.000000
      0.000461       0.001521       0.000000
      0.000188       0.001048       0.000000
      0.000461       0.001521       0.000000
      0.000527       0.001513       0.000000
      0.000227       0.000996       0.000000
      0.000461       0.001521       0.000000
      0.000760       0.002076       0.000000
      0.000858       0.002101       0.000000
      0.000527       0.001513       0.000000
      0.000595       0.001803       0.000000
      0.000638       0.002655       0.000000
      0.000914       0.002667       0.000000
      0.000760       0.002076       0.000000
      0.000638       0.002655       0.000000
      0.000619       0.003514       0.000000
      0.000792       0.003255       0.000000
      0.000914       0.002667       0.000000
      0.000760       0.002076       0.000000
      0.000914       0.002667       0.000000
      0.001027       0.002676       0.000000
      0.000858       0.002101       0.000000
      0.000914       0.002667       0.000000
      0.000792       0.003255       0.000000
      0.000892       0.003245       0.000000
      0.001027       0.002676       0.000000
      0.000619       0.003514       0.000000
      0.000512       0.004160       0.000000
      0.000510       0.003807       0.000000
      0.000792       0.003255       0.000000
      0.000512       0.004160       0.000000
      0.000355       0.004622       0.000000
      0.000237       0.004286       0.000000
      0.000510       0.003807       0.000000
      0.000792       0.003255       0.000000
      0.000510       0.003807       0.000000
      0.000587       0.003821       0.000000
      0.000892       0.003245       0.000000
      0.000510       0.003807       0.000000
      0.000237       0.004286       0.000000
      0.000302       0.004338       0.000000
      0.000587       0.003821       0.000000
      0.000227       0.000996       0.000000
      0.000527       0.001513       0.000000
      0.000601       0.001407       0.000000
      0.000268       0.000810       0.000000
      0.000527       0.001513       0.000000
      0.000858       0.002101       0.000000
      0.000956       0.002063       0.000000
      0.000601       0.001407       0.000000
      0.000268       0.000810       0.000000
      0.000601       0.001407       0.000000
      0.000669       0.001287       0.000000
      0.000276       0.000574       0.000000
      0.000601       0.001407       0.000000
      0.000956       0.002063       0.000000
      0.001056       0.002021       0.000000
      0.000669       0.001287       0.000000
      0.000858       0.002101       0.000000
      0.001027       0.002676       0.000000
      0.001132       0.002687       0.000000
      0.000956       0.002063       0.000000
      0.001027       0.002676       0.000000
      0.000892       0.003245       0.000000
      0.000993       0.003304       0.000000
      0.001132       0.002687       0.000000
      0.000956       0.002063       0.000000
      0.001132       0.002687       0.000000
      0.001245       0.002699       0.000000
      0.001056       0.002021       0.000000
      0.001132       0.002687       0.000000
      0.000993       0.003304       0.000000
      0.001097       0.003373       0.000000
      0.001245       0.002699       0.000000
      0.000892       0.003245       0.000000
      0.000587       0.003821       0.000000
      0.000680       0.003943       0.000000
      0.000993       0.003304       0.000000
      0.000587       0.003821       0.000000
      0.000302       0.004338       0.000000
      0.000396       0.004531       0.000000
      0.000680       0.003943       0.000000
      0.000993       0.003304       0.000000
      0.000680       0.003943       0.000000
      0.000774       0.004093       0.000000
      0.001097       0.003373       0.000000
      0.000680       0.003943       0.000000
      0.000396       0.004531       0.000000
      0.000506       0.004792       0.000000
      0.000774       0.004093       0.000000
      0.000276       0.000574       0.000000
      0.000669       0.001287       0.000000
      0.000729       0.001198       0.000000
      0.000224       0.000315       0.000000
      0.000669       0.001287       0.000000
      0.001056       0.002021       0.000000
      0.001152       0.002005       0.000000
      0.000729       0.001198       0.000000
      0.000224       0.000315       0.000000
      0.000729       0.001198       0.000000
      0.000781       0.001155       0.000000
      0.000000       0.000000       0.000000
      0.000729       0.001198       0.000000
      0.001152       0.002005       0.000000
      0.001237       0.002034       0.000000
      0.000781       0.001155       0.000000
      0.001056       0.002021       0.000000
      0.001245       0.002699       0.000000
      0.001359       0.002712       0.000000
      0.001152       0.002005       0.000000
      0.001245       0.002699       0.000000
      0.001097       0.003373       0.000000
      0.001200       0.003422       0.000000
      0.001359       0.002712       0.000000
      0.001152       0.002005       0.000000
      0.001359       0.002712       0.000000
      0.001463       0.002722       0.000000
      0.001237       0.002034       0.000000
      0.001359       0.002712       0.000000
      0.001200       0.003422       0.000000
      0.001296       0.003424       0.000000
      0.001463       0.002722       0.000000
      0.001097       0.003373       0.000000
      0.000774       0.004093       0.000000
      0.000870       0.004236       0.000000
      0.001200       0.003422       0.000000
      0.000774       0.004093       0.000000
      0.000506       0.004792       0.000000
      0.000647       0.005098       0.000000
      0.000870       0.004236       0.000000
      0.001200       0.003422       0.000000
      0.000870       0.004236       0.000000
      0.000978       0.004361       0.000000
      0.001296       0.003424       0.000000
      0.000870       0.004236       0.000000
      0.000647       0.005098       0.000000
      0.000838       0.005462       0.000000
      0.000978       0.004361       0.000000
     -0.000830       0.000681       0.000000
     -0.000572       0.000368       0.000000
     -0.000307       0.000435       0.000000
     -0.000529       0.000870       0.000000
     -0.000572       0.000368       0.000000
     -0.000348       0.000183       0.000000
     -0.000193       0.000156       0.000000
     -0.000307       0.000435       0.000000
     -0.000529       0.000870       0.000000
     -0.000307       0.000435       0.000000
     -0.000181       0.000418       0.000000
     -0.000391       0.000846       0.000000
     -0.000307       0.000435       0.000000
     -0.000193       0.000156       0.000000
     -0.000116       0.000140       0.000000
     -0.000181       0.000418       0.000000
     -0.000348       0.000183       0.000000
     -0.000166       0.000131       0.000000
     -0.000148       0.000114       0.000000
     -0.000193       0.000156       0.000000
     -0.000166       0.000131       0.000000
     -0.000009       0.000208       0.000000
     -0.000106       0.000299       0.000000
     -0.000148       0.000114       0.000000
     -0.000193       0.000156       0.000000
     -0.000148       0.000114       0.000000
     -0.000137       0.000122       0.000000
     -0.000116       0.000140       0.000000
     -0.000148       0.000114       0.000000
     -0.000106       0.000299       0.000000
     -0.000120       0.000338       0.000000
     -0.000137       0.000122       0.000000
     -0.000009       0.000208       0.000000
      0.000148       0.000410       0.000000
      0.000001       0.000646       0.000000
     -0.000106       0.000299       0.000000
      0.000148       0.000410       0.000000
      0.000308       0.000725       0.000000
      0.000188       0.001048       0.000000
      0.000001       0.000646       0.000000
     -0.000106       0.000299       0.000000
      0.000001       0.000646       0.000000
      0.000008       0.000663       0.000000
     -0.000120       0.000338       0.000000
      0.000001       0.000646       0.000000
      0.000188       0.001048       0.000000
      0.000227       0.000996       0.000000
      0.000008       0.000663       0.000000
     -0.000391       0.000846       0.000000
     -0.000181       0.000418       0.000000
     -0.000098       0.000355       0.000000
     -0.000297       0.000738       0.000000
     -0.000181       0.000418       0.000000
     -0.000116       0.000140       0.000000
     -0.000065       0.000117       0.000000
     -0.000098       0.000355       0.000000
     -0.000297       0.000738       0.000000
     -0.000098       0.000355       0.000000
     -0.000038       0.000258       0.000000
     -0.000234       0.000562       0.000000
     -0.000098       0.000355       0.000000
     -0.000065       0.000117       0.000000
     -0.000027       0.000086       0.000000
     -0.000038       0.000258       0.000000
     -0.000116       0.000140       0.000000
     -0.000137       0.000122       0.000000
     -0.000119       0.000116       0.000000
     -0.000065       0.000117       0.000000
     -0.000137       0.000122       0.000000
     -0.000120       0.000338       0.000000
     -0.000106       0.000308       0.000000
     -0.000119       0.000116       0.000000
     -0.000065       0.000117       0.000000
     -0.000119       0.000116       0.000000
     -0.000094       0.000092       0.000000
     -0.000027       0.000086       0.000000
     -0.000119       0.000116       0.000000
     -0.000106       0.000308       0.000000
     -0.000080       0.000230       0.000000
     -0.000094       0.000092       0.000000
     -0.000120       0.000338       0.000000
      0.000008       0.000663       0.000000
      0.000036       0.000558       0.000000
     -0.000106       0.000308       0.000000
      0.000008       0.000663       0.000000
      0.000227       0.000996       0.000000
      0.000268       0.000810       0.000000
      0.000036       0.000558       0.000000
     -0.000106       0.000308       0.000000
      0.000036       0.000558       0.000000
      0.000053       0.000392       0.000000
     -0.000080       0.000230       0.000000
      0.000036       0.000558       0.000000
      0.000268       0.000810       0.000000
      0.000276       0.000574       0.000000
      0.000053       0.000392       0.000000
     -0.000234       0.000562       0.000000
     -0.000038       0.000258       0.000000
     -0.000003       0.000137       0.000000
     -0.000179       0.000316       0.000000
     -0.000038       0.000258       0.000000
     -0.000027       0.000086       0.000000
     -0.000004       0.000048       0.000000
     -0.000003       0.000137       0.000000
     -0.000179       0.000316       0.000000
     -0.000003       0.000137       0.000000
      0.000000       0.000000       0.000000
      0.000000       0.000000       0.000000
     -0.000003       0.000137       0.000000
     -0.000004       0.000048       0.000000
      0.000000       0.000000       0.000000
      0.000000       0.000000       0.000000
     -0.000027       0.000086       0.000000
     -0.000094       0.000092       0.000000
     -0.000057       0.000053       0.000000
     -0.000004       0.000048       0.000000
     -0.000094       0.000092       0.000000
     -0.000080       0.000230       0.000000
     -0.000044       0.000122       0.000000
     -0.000057       0.000053       0.000000
     -0.000004       0.000048       0.000000
     -0.000057       0.000053       0.000000
      0.000000       0.000000       0.000000
      0.000000       0.000000       0.000000
     -0.000057       0.000053       0.000000
     -0.000044       0.000122       0.000000
      0.000000       0.000000       0.000000
      0.000000       0.000000       0.000000
     -0.000080       0.000230       0.000000
      0.000053       0.000392       0.000000
      0.000046       0.000198       0.000000
     -0.000044       0.000122       0.000000
      0.000053       0.000392       0.000000
      0.000276       0.000574       0.000000
      0.000224       0.000315       0.000000
      0.000046       0.000198       0.000000
     -0.000044       0.000122       0.000000
      0.000046       0.000198       0.000000
      0.000000       0.000000       0.000000
      0.000000       0.000000       0.000000
      0.000046       0.000198       0.000000
      0.000224       0.000315       0.000000
      0.000000       0.000000       0.000000
      0.000000       0.000000       0.000000
     -0.000830       0.000681       0.000000
     -0.001109       0.001135       0.000000
     -0.000919       0.001345       0.000000
     -0.000529       0.000870       0.000000
     -0.001109       0.001135       0.000000
     -0.001352       0.001792       0.000000
     -0.001390       0.001949       0.000000
     -0.000919       0.001345       0.000000
     -0.000529       0.000870       0.000000
     -0.000919       0.001345       0.000000
     -0.000804       0.001363       0.000000