# vtk DataFile Version 2.0
time_10.vtk
ASCII
DATASET UNSTRUCTURED_GRID
POINTS   792 float
      0.458579       0.641421       0.000000
      0.497369       0.671659       0.000000
      0.438243       0.730363       0.000000
      0.382149       0.701184       0.000000
      0.497369       0.671659       0.000000
      0.545805       0.692517       0.000000
      0.506084       0.750000       0.000000
      0.438243       0.730363       0.000000
      0.382149       0.701184       0.000000
      0.438243       0.730363       0.000000
      0.380813       0.787383       0.000000
      0.305719       0.760948       0.000000
      0.438243       0.730363       0.000000
      0.506084       0.750000       0.000000
      0.468251       0.804752       0.000000
      0.380813       0.787383       0.000000
      0.545805       0.692517       0.000000
      0.600000       0.700000       0.000000
      0.581017       0.756950       0.000000
      0.506084       0.750000       0.000000
      0.600000       0.700000       0.000000
      0.654195       0.692517       0.000000
      0.656527       0.750000       0.000000
      0.581017       0.756950       0.000000
      0.506084       0.750000       0.000000
      0.581017       0.756950       0.000000
      0.563060       0.810819       0.000000
      0.468251       0.804752       0.000000
      0.581017       0.756950       0.000000
      0.656527       0.750000       0.000000
      0.658747       0.804752       0.000000
      0.563060       0.810819       0.000000
      0.654195       0.692517       0.000000
      0.702631       0.671659       0.000000
      0.725999       0.730363       0.000000
      0.656527       0.750000       0.000000
      0.702631       0.671659       0.000000
      0.741421       0.641421       0.000000
      0.784518       0.701184       0.000000
      0.725999       0.730363       0.000000
      0.656527       0.750000       0.000000
      0.725999       0.730363       0.000000
      0.748697       0.787383       0.000000
      0.658747       0.804752       0.000000
      0.725999       0.730363       0.000000
      0.784518       0.701184       0.000000
      0.827614       0.760948       0.000000
      0.748697       0.787383       0.000000
      0.305719       0.760948       0.000000
      0.380813       0.787383       0.000000
      0.325006       0.842791       0.000000
      0.229289       0.820711       0.000000
      0.380813       0.787383       0.000000
      0.468251       0.804752       0.000000
      0.432173       0.856962       0.000000
      0.325006       0.842791       0.000000
      0.229289       0.820711       0.000000
      0.325006       0.842791       0.000000
      0.270755       0.896655       0.000000
      0.152860       0.880474       0.000000
      0.325006       0.842791       0.000000
      0.432173       0.856962       0.000000
      0.397732       0.906804       0.000000
      0.270755       0.896655       0.000000
      0.468251       0.804752       0.000000
      0.563060       0.810819       0.000000
      0.546050       0.861851       0.000000
      0.432173       0.856962       0.000000
      0.563060       0.810819       0.000000
      0.658747       0.804752       0.000000
      0.660865       0.856962       0.000000
      0.546050       0.861851       0.000000
      0.432173       0.856962       0.000000
      0.546050       0.861851       0.000000
      0.529912       0.910264       0.000000
      0.397732       0.906804       0.000000
      0.546050       0.861851       0.000000
      0.660865       0.856962       0.000000
      0.662887       0.906804       0.000000
      0.529912       0.910264       0.000000
      0.658747       0.804752       0.000000
      0.748697       0.787383       0.000000
      0.770753       0.842791       0.000000
      0.660865       0.856962       0.000000
      0.748697       0.787383       0.000000
      0.827614       0.760948       0.000000
      0.870711       0.820711       0.000000
      0.770753       0.842791       0.000000
      0.660865       0.856962       0.000000
      0.770753       0.842791       0.000000
      0.792195       0.896655       0.000000
      0.662887       0.906804       0.000000
      0.770753       0.842791       0.000000
      0.870711       0.820711       0.000000
      0.913807       0.880474       0.000000
      0.792195       0.896655       0.000000
      0.152860       0.880474       0.000000
      0.270755       0.896655       0.000000
      0.217995       0.949038       0.000000
      0.076430       0.940237       0.000000
      0.270755       0.896655       0.000000
      0.397732       0.906804       0.000000
      0.364819       0.954435       0.000000
      0.217995       0.949038       0.000000
      0.076430       0.940237       0.000000
      0.217995       0.949038       0.000000
      0.166667       1.000000       0.000000
      0.000000       1.000000       0.000000
      0.217995       0.949038       0.000000
      0.364819       0.954435       0.000000
      0.333333       1.000000       0.000000
      0.166667       1.000000       0.000000
      0.397732       0.906804       0.000000
      0.529912       0.910264       0.000000
      0.514582       0.956255       0.000000
      0.364819       0.954435       0.000000
      0.529912       0.910264       0.000000
      0.662887       0.906804       0.000000
      0.664819       0.954435       0.000000
      0.514582       0.956255       0.000000
      0.364819       0.954435       0.000000
      0.514582       0.956255       0.000000
      0.500000       1.000000       0.000000
      0.333333       1.000000       0.000000
      0.514582       0.956255       0.000000
      0.664819       0.954435       0.000000
      0.666667       1.000000       0.000000
      0.500000       1.000000       0.000000
      0.662887       0.906804       0.000000
      0.792195       0.896655       0.000000
      0.813047       0.949038       0.000000
      0.664819       0.954435       0.000000
      0.792195       0.896655       0.000000
      0.913807       0.880474       0.000000
      0.956904       0.940237       0.000000
      0.813047       0.949038       0.000000
      0.664819       0.954435       0.000000
      0.813047       0.949038       0.000000
      0.833333       1.000000       0.000000
      0.666667       1.000000       0.000000
      0.813047       0.949038       0.000000
      0.956904       0.940237       0.000000
      1.000000       1.000000       0.000000
      0.833333       1.000000       0.000000
      0.458579       0.358579       0.000000
      0.428341       0.397369       0.000000
      0.351758       0.356122       0.000000
      0.382149       0.298816       0.000000
      0.428341       0.397369       0.000000
      0.407483       0.445805       0.000000
      0.331305       0.424779       0.000000
      0.351758       0.356122       0.000000
      0.382149       0.298816       0.000000
      0.351758       0.356122       0.000000
      0.277372       0.316058       0.000000
      0.305719       0.239052       0.000000
      0.351758       0.356122       0.000000
      0.331305       0.424779       0.000000
      0.258747       0.404752       0.000000
      0.277372       0.316058       0.000000
      0.407483       0.445805       0.000000
      0.400000       0.500000       0.000000
      0.324066       0.500000       0.000000
      0.331305       0.424779       0.000000
      0.400000       0.500000       0.000000
      0.407483       0.554195       0.000000
      0.331305       0.575221       0.000000
      0.324066       0.500000       0.000000
      0.331305       0.424779       0.000000
      0.324066       0.500000       0.000000
      0.252241       0.500000       0.000000
      0.258747       0.404752       0.000000
      0.324066       0.500000       0.000000
      0.331305       0.575221       0.000000
      0.258747       0.595248       0.000000
      0.252241       0.500000       0.000000
      0.407483       0.554195       0.000000
      0.428341       0.602631       0.000000
      0.351758       0.643878       0.000000
      0.331305       0.575221       0.000000
      0.428341       0.602631       0.000000
      0.458579       0.641421       0.000000
      0.382149       0.701184       0.000000
      0.351758       0.643878       0.000000
      0.331305       0.575221       0.000000
      0.351758       0.643878       0.000000
      0.277372       0.683942       0.000000
      0.258747       0.595248       0.000000
      0.351758       0.643878       0.000000
      0.382149       0.701184       0.000000
      0.305719       0.760948       0.000000
      0.277372       0.683942       0.000000
      0.305719       0.239052       0.000000
      0.277372       0.316058       0.000000
      0.205089       0.277126       0.000000
      0.229289       0.179289       0.000000
      0.277372       0.316058       0.000000
      0.258747       0.404752       0.000000
      0.189557       0.385654       0.000000
      0.205089       0.277126       0.000000
      0.229289       0.179289       0.000000
      0.205089       0.277126       0.000000
      0.134820       0.239280       0.000000
      0.152860       0.119526       0.000000
      0.205089       0.277126       0.000000
      0.189557       0.385654       0.000000
      0.123505       0.367423       0.000000
      0.134820       0.239280       0.000000
      0.258747       0.404752       0.000000
      0.252241       0.500000       0.000000
      0.184198       0.500000       0.000000
      0.189557       0.385654       0.000000
      0.252241       0.500000       0.000000
      0.258747       0.595248       0.000000
      0.189557       0.614346       0.000000
      0.184198       0.500000       0.000000
      0.189557       0.385654       0.000000
      0.184198       0.500000       0.000000
      0.119648       0.500000       0.000000
      0.123505       0.367423       0.000000
[...]
POINT_DATA   792
VECTORS U float 
      0.000431       0.005592       0.000000
      0.000222       0.005973       0.000000
      0.000038       0.005682       0.000000
      0.000278       0.005189       0.000000
      0.000222       0.005973       0.000000
      0.000005       0.006228       0.000000
     -0.000120       0.006116       0.000000
      0.000038       0.005682       0.000000
      0.000278       0.005189       0.000000
      0.000038       0.005682       0.000000
      0.000059       0.005647       0.000000
      0.000346       0.005224       0.000000
      0.000038       0.005682       0.000000
     -0.000120       0.006116       0.000000
     -0.000138       0.006067       0.000000
      0.000059       0.005647       0.000000
      0.000005       0.006228       0.000000
     -0.000217       0.006332       0.000000
     -0.000204       0.006359       0.000000
     -0.000120       0.006116       0.000000
     -0.000217       0.006332       0.000000
     -0.000459       0.006281       0.000000
     -0.000285       0.006319       0.000000
     -0.000204       0.006359       0.000000
     -0.000120       0.006116       0.000000
     -0.000204       0.006359       0.000000
     -0.000203       0.006354       0.000000
     -0.000138       0.006067       0.000000
     -0.000204       0.006359       0.000000
     -0.000285       0.006319       0.000000
     -0.000214       0.006345       0.000000
     -0.000203       0.006354       0.000000
     -0.000459       0.006281       0.000000
     -0.000736       0.006073       0.000000
     -0.000433       0.006001       0.000000
     -0.000285       0.006319       0.000000
     -0.000736       0.006073       0.000000
     -0.001042       0.005726       0.000000
     -0.000692       0.005505       0.000000
     -0.000433       0.006001       0.000000
     -0.000285       0.006319       0.000000
     -0.000433       0.006001       0.000000
     -0.000307       0.006020       0.000000
     -0.000214       0.006345       0.000000
     -0.000433       0.006001       0.000000
     -0.000692       0.005505       0.000000
     -0.000546       0.005524       0.000000
     -0.000307       0.006020       0.000000
      0.000346       0.005224       0.000000
      0.000059       0.005647       0.000000
      0.000122       0.005759       0.000000
      0.000450       0.005433       0.000000
      0.000059       0.005647       0.000000
     -0.000138       0.006067       0.000000
     -0.000120       0.006101       0.000000
      0.000122       0.005759       0.000000
      0.000450       0.005433       0.000000
      0.000122       0.005759       0.000000
      0.000201       0.005958       0.000000
      0.000573       0.005727       0.000000
      0.000122       0.005759       0.000000
     -0.000120       0.006101       0.000000
     -0.000090       0.006196       0.000000
      0.000201       0.005958       0.000000
     -0.000138       0.006067       0.000000
     -0.000203       0.006354       0.000000
     -0.000198       0.006368       0.000000
     -0.000120       0.006101       0.000000
     -0.000203       0.006354       0.000000
     -0.000214       0.006345       0.000000
     -0.000176       0.006379       0.000000
     -0.000198       0.006368       0.000000
     -0.000120       0.006101       0.000000
     -0.000198       0.006368       0.000000
     -0.000193       0.006403       0.000000
     -0.000090       0.006196       0.000000
     -0.000198       0.006368       0.000000
     -0.000176       0.006379       0.000000
     -0.000153       0.006422       0.000000
     -0.000193       0.006403       0.000000
     -0.000214       0.006345       0.000000
     -0.000307       0.006020       0.000000
     -0.000239       0.006090       0.000000
     -0.000176       0.006379       0.000000
     -0.000307       0.006020       0.000000
     -0.000546       0.005524       0.000000
     -0.000467       0.005641       0.000000
     -0.000239       0.006090       0.000000
     -0.000176       0.006379       0.000000
     -0.000239       0.006090       0.000000
     -0.000202       0.006199       0.000000
     -0.000153       0.006422       0.000000
     -0.000239       0.006090       0.000000
     -0.000467       0.005641       0.000000
     -0.000444       0.005842       0.000000
     -0.000202       0.006199       0.000000
      0.000573       0.005727       0.000000
      0.000201       0.005958       0.000000
      0.000302       0.006217       0.000000
      0.000736       0.006084       0.000000
      0.000201       0.005958       0.000000
     -0.000090       0.006196       0.000000
     -0.000050       0.006340       0.000000
      0.000302       0.006217       0.000000
      0.000736       0.006084       0.000000
      0.000302       0.006217       0.000000
      0.000433       0.006522       0.000000
      0.000966       0.006522       0.000000
      0.000302       0.006217       0.000000
     -0.000050       0.006340       0.000000
      0.000003       0.006522       0.000000
      0.000433       0.006522       0.000000
     -0.000090       0.006196       0.000000
     -0.000193       0.006403       0.000000
     -0.000188       0.006455       0.000000
     -0.000050       0.006340       0.000000
     -0.000193       0.006403       0.000000
     -0.000153       0.006422       0.000000
     -0.000141       0.006471       0.000000
     -0.000188       0.006455       0.000000
     -0.000050       0.006340       0.000000
     -0.000188       0.006455       0.000000
     -0.000186       0.006522       0.000000
      0.000003       0.006522       0.000000
     -0.000188       0.006455       0.000000
     -0.000141       0.006471       0.000000
     -0.000136       0.006522       0.000000
     -0.000186       0.006522       0.000000
     -0.000153       0.006422       0.000000
     -0.000202       0.006199       0.000000
     -0.000191       0.006343       0.000000
     -0.000141       0.006471       0.000000
     -0.000202       0.006199       0.000000
     -0.000444       0.005842       0.000000
     -0.000484       0.006137       0.000000
     -0.000191       0.006343       0.000000
     -0.000141       0.006471       0.000000
     -0.000191       0.006343       0.000000
     -0.000205       0.006522       0.000000
     -0.000136       0.006522       0.000000
     -0.000191       0.006343       0.000000
     -0.000484       0.006137       0.000000
     -0.000586       0.006522       0.000000
     -0.000205       0.006522       0.000000
      0.000378       0.000802       0.000000
      0.000579       0.001301       0.000000
      0.000553       0.001743       0.000000
      0.000226       0.001187       0.000000
      0.000579       0.001301       0.000000
      0.000738       0.002024       0.000000
      0.000930       0.002421       0.000000
      0.000553       0.001743       0.000000
      0.000226       0.001187       0.000000
      0.000553       0.001743       0.000000
      0.000630       0.001766       0.000000
      0.000266       0.001146       0.000000
      0.000553       0.001743       0.000000
      0.000930       0.002421       0.000000
      0.001051       0.002489       0.000000
      0.000630       0.001766       0.000000
      0.000738       0.002024       0.000000
      0.000761       0.003170       0.000000
      0.001148       0.003186       0.000000
      0.000930       0.002421       0.000000
      0.000761       0.003170       0.000000
      0.000767       0.004332       0.000000
      0.000967       0.003948       0.000000
      0.001148       0.003186       0.000000
      0.000930       0.002421       0.000000
      0.001148       0.003186       0.000000
      0.001278       0.003196       0.000000
      0.001051       0.002489       0.000000
      0.001148       0.003186       0.000000
      0.000967       0.003948       0.000000
      0.001089       0.003895       0.000000
      0.001278       0.003196       0.000000
      0.000767       0.004332       0.000000
      0.000629       0.005072       0.000000
      0.000608       0.004623       0.000000
      0.000967       0.003948       0.000000
      0.000629       0.005072       0.000000
      0.000431       0.005592       0.000000
      0.000278       0.005189       0.000000
      0.000608       0.004623       0.000000
      0.000967       0.003948       0.000000
      0.000608       0.004623       0.000000
      0.000696       0.004603       0.000000
      0.001089       0.003895       0.000000
      0.000608       0.004623       0.000000
      0.000278       0.005189       0.000000
      0.000346       0.005224       0.000000
      0.000696       0.004603       0.000000
      0.000266       0.001146       0.000000
      0.000630       0.001766       0.000000
      0.000719       0.001659       0.000000
      0.000311       0.000943       0.000000
      0.000630       0.001766       0.000000
      0.001051       0.002489       0.000000
      0.001169       0.002457       0.000000
      0.000719       0.001659       0.000000
      0.000311       0.000943       0.000000
      0.000719       0.001659       0.000000
      0.000799       0.001531       0.000000
      0.000319       0.000674       0.000000
      0.000719       0.001659       0.000000
      0.001169       0.002457       0.000000
      0.001287       0.002415       0.000000
      0.000799       0.001531       0.000000
      0.001051       0.002489       0.000000
      0.001278       0.003196       0.000000
      0.001398       0.003207       0.000000
      0.001169       0.002457       0.000000
      0.001278       0.003196       0.000000
      0.001089       0.003895       0.000000
      0.001209       0.003949       0.000000
      0.001398       0.003207       0.000000
      0.001169       0.002457       0.000000
      0.001398       0.003207       0.000000
      0.001528       0.003220       0.000000
      0.001287       0.002415       0.000000
      0.001398       0.003207       0.000000
      0.001209       0.003949       0.000000
      0.001331       0.004021       0.000000
      0.001528       0.003220       0.000000
      0.001089       0.003895       0.000000
      0.000696       0.004603       0.000000
      0.000804       0.004726       0.000000
      0.001209       0.003949       0.000000
      0.000696       0.004603       0.000000
      0.000346       0.005224       0.000000
      0.000450       0.005433       0.000000
      0.000804       0.004726       0.000000
      0.001209       0.003949       0.000000
      0.000804       0.004726       0.000000
      0.000912       0.004887       0.000000
      0.001331       0.004021       0.000000
      0.000804       0.004726       0.000000
      0.000450       0.005433       0.000000
      0.000573       0.005727       0.000000
      0.000912       0.004887       0.000000
      0.000319       0.000674       0.000000
      0.000799       0.001531       0.000000
      0.000868       0.001435       0.000000
      0.000259       0.000372       0.000000
      0.000799       0.001531       0.000000
      0.001287       0.002415       0.000000
      0.001399       0.002402       0.000000
      0.000868       0.001435       0.000000
      0.000259       0.000372       0.000000
      0.000868       0.001435       0.000000
      0.000929       0.001391       0.000000
      0.000000       0.000000       0.000000
      0.000868       0.001435       0.000000
      0.001399       0.002402       0.000000
      0.001496       0.002446       0.000000
      0.000929       0.001391       0.000000
      0.001287       0.002415       0.000000
      0.001528       0.003220       0.000000
      0.001660       0.003233       0.000000
      0.001399       0.002402       0.000000
      0.001528       0.003220       0.000000
      0.001331       0.004021       0.000000
      0.001449       0.004068       0.000000
      0.001660       0.003233       0.000000
      0.001399       0.002402       0.000000
      0.001660       0.003233       0.000000
      0.001781       0.003244       0.000000
      0.001496       0.002446       0.000000
      0.001660       0.003233       0.000000
      0.001449       0.004068       0.000000
      0.001559       0.004059       0.000000
      0.001781       0.003244       0.000000
      0.001331       0.004021       0.000000
      0.000912       0.004887       0.000000
      0.001021       0.005043       0.000000
      0.001449       0.004068       0.000000
      0.000912       0.004887       0.000000
      0.000573       0.005727       0.000000
      0.000736       0.006084       0.000000
      0.001021       0.005043       0.000000
      0.001449       0.004068       0.000000
      0.001021       0.005043       0.000000
      0.001146       0.005182       0.000000
      0.001559       0.004059       0.000000
      0.001021       0.005043       0.000000
      0.000736       0.006084       0.000000
      0.000966       0.006522       0.000000
      0.001146       0.005182       0.000000
     -0.000979       0.000740       0.000000
     -0.000668       0.000395       0.000000
     -0.000355       0.000472       0.000000
     -0.000614       0.000969       0.000000
     -0.000668       0.000395       0.000000
     -0.000402       0.000191       0.000000
     -0.000223       0.000161       0.000000
     -0.000355       0.000472       0.000000
     -0.000614       0.000969       0.000000
     -0.000355       0.000472       0.000000
     -0.000204       0.000461       0.000000
     -0.000442       0.000959       0.000000
     -0.000355       0.000472       0.000000
     -0.000223       0.000161       0.000000
     -0.000132       0.000145       0.000000
     -0.000204       0.000461       0.000000
     -0.000402       0.000191       0.000000
     -0.000188       0.000136       0.000000
     -0.000167       0.000115       0.000000
     -0.000223       0.000161       0.000000
     -0.000188       0.000136       0.000000
     -0.000003       0.000223       0.000000
     -0.000116       0.000325       0.000000
     -0.000167       0.000115       0.000000
     -0.000223       0.000161       0.000000
     -0.000167       0.000115       0.000000
     -0.000154       0.000126       0.000000
     -0.000132       0.000145       0.000000
     -0.000167       0.000115       0.000000
     -0.000116       0.000325       0.000000
     -0.000136       0.000373       0.000000
     -0.000154       0.000126       0.000000
     -0.000003       0.000223       0.000000
      0.000183       0.000449       0.000000
      0.000008       0.000720       0.000000
     -0.000116       0.000325       0.000000
      0.000183       0.000449       0.000000
      0.000378       0.000802       0.000000
      0.000226       0.001187       0.000000
      0.000008       0.000720       0.000000
     -0.000116       0.000325       0.000000
      0.000008       0.000720       0.000000
      0.000010       0.000749       0.000000
     -0.000136       0.000373       0.000000
      0.000008       0.000720       0.000000
      0.000226       0.001187       0.000000
      0.000266       0.001146       0.000000
      0.000010       0.000749       0.000000
     -0.000442       0.000959       0.000000
     -0.000204       0.000461       0.000000
     -0.000105       0.000395       0.000000
     -0.000328       0.000846       0.000000
     -0.000204       0.000461       0.000000
     -0.000132       0.000145       0.000000
     -0.000071       0.000123       0.000000
     -0.000105       0.000395       0.000000
     -0.000328       0.000846       0.000000
     -0.000105       0.000395       0.000000
     -0.000036       0.000290       0.000000
     -0.000257       0.000649       0.000000
     -0.000105       0.000395       0.000000
     -0.000071       0.000123       0.000000
     -0.000028       0.000092       0.000000
     -0.000036       0.000290       0.000000
     -0.000132       0.000145       0.000000
     -0.000154       0.000126       0.000000
     -0.000135       0.000123       0.000000
     -0.000071       0.000123       0.000000
     -0.000154       0.000126       0.000000
     -0.000136       0.000373       0.000000
     -0.000122       0.000344       0.000000
     -0.000135       0.000123       0.000000
     -0.000071       0.000123       0.000000
     -0.000135       0.000123       0.000000
     -0.000107       0.000100       0.000000
     -0.000028       0.000092       0.000000
     -0.000135       0.000123       0.000000
     -0.000122       0.000344       0.000000
     -0.000094       0.000258       0.000000
     -0.000107       0.000100       0.000000
     -0.000136       0.000373       0.000000
      0.000010       0.000749       0.000000
      0.000038       0.000637       0.000000
     -0.000122       0.000344       0.000000
      0.000010       0.000749       0.000000
      0.000266       0.001146       0.000000
      0.000311       0.000943       0.000000
      0.000038       0.000637       0.000000
     -0.000122       0.000344       0.000000
      0.000038       0.000637       0.000000
      0.000057       0.000450       0.000000
     -0.000094       0.000258       0.000000
      0.000038       0.000637       0.000000
      0.000311       0.000943       0.000000
      0.000319       0.000674       0.000000
      0.000057       0.000450       0.000000
     -0.000257       0.000649       0.000000
     -0.000036       0.000290       0.000000
      0.000002       0.000154       0.000000
     -0.000200       0.000363       0.000000
     -0.000036       0.000290       0.000000
     -0.000028       0.000092       0.000000
     -0.000003       0.000051       0.000000
      0.000002       0.000154       0.000000
     -0.000200       0.000363       0.000000
      0.000002       0.000154       0.000000
      0.000000       0.000000       0.000000
      0.000000       0.000000       0.000000
      0.000002       0.000154       0.000000
     -0.000003       0.000051       0.000000
      0.000000       0.000000       0.000000
      0.000000       0.000000       0.000000
     -0.000028       0.000092       0.000000
     -0.000107       0.000100       0.000000
     -0.000066       0.000058       0.000000
     -0.000003       0.000051       0.000000
     -0.000107       0.000100       0.000000
     -0.000094       0.000258       0.000000
     -0.000053       0.000137       0.000000
     -0.000066       0.000058       0.000000
     -0.000003       0.000051       0.000000
     -0.000066       0.000058       0.000000
      0.000000       0.000000       0.000000
      0.000000       0.000000       0.000000
     -0.000066       0.000058       0.000000
     -0.000053       0.000137       0.000000
      0.000000       0.000000       0.000000
      0.000000       0.000000       0.000000
     -0.000094       0.000258       0.000000
      0.000057       0.000450       0.000000
      0.000050       0.000228       0.000000
     -0.000053       0.000137       0.000000
      0.000057       0.000450       0.000000
      0.000319       0.000674       0.000000
      0.000259       0.000372       0.000000
      0.000050       0.000228       0.000000
     -0.000053       0.000137       0.000000
      0.000050       0.000228       0.000000
      0.000000       0.000000       0.000000
      0.000000       0.000000       0.000000
      0.000050       0.000228       0.000000
      0.000259       0.000372       0.000000
      0.000000       0.000000       0.000000
      0.000000       0.000000       0.000000
     -0.000979       0.000740       0.000000
     -0.001326       0.001243       0.000000
     -0.001080       0.001511       0.000000
     -0.000614       0.000969       0.000000
     -0.000614       0.000969       0.000000
     -0.001080       0.001511       0.000000
     -0.000932       0.001558       0.000000
     -0.000442       0.000959       0.000000
     -0.001080       0.001511       0.000000
     -0.001666       0.002210       0.000000
     -0.001649       0.002325       0.000000