# vtk DataFile Version 2.0
time_10.vtk
ASCII
DATASET UNSTRUCTURED_GRID
POINTS   576 float
      0.458579       0.641421       0.000000
      0.497369       0.671659       0.000000
      0.438243       0.730363       0.000000
      0.382149       0.701184       0.000000
      0.497369       0.671659       0.000000
      0.545805       0.692517       0.000000
      0.506084       0.750000       0.000000
      0.438243       0.730363       0.000000
      0.382149       0.701184       0.000000
      0.438243       0.730363       0.000000
      0.380813       0.787383       0.000000
      0.305719       0.760948       0.000000
      0.438243       0.730363       0.000000
      0.506084       0.750000       0.000000
      0.468251       0.804752       0.000000
      0.380813       0.787383       0.000000
      0.545805       0.692517       0.000000
      0.600000       0.700000       0.000000
      0.581017       0.756950       0.000000
      0.506084       0.750000       0.000000
      0.600000       0.700000       0.000000
      0.654195       0.692517       0.000000
      0.656527       0.750000       0.000000
      0.581017       0.756950       0.000000
      0.506084       0.750000       0.000000
      0.581017       0.756950       0.000000
      0.563060       0.810819       0.000000
      0.468251       0.804752       0.000000
      0.581017       0.756950       0.000000
      0.656527       0.750000       0.000000
      0.658747       0.804752       0.000000
      0.563060       0.810819       0.000000
      0.654195       0.692517       0.000000
      0.702631       0.671659       0.000000
      0.725999       0.730363       0.000000
      0.656527       0.750000       0.000000
      0.702631       0.671659       0.000000
      0.741421       0.641421       0.000000
      0.784518       0.701184       0.000000
      0.725999       0.730363       0.000000
      0.656527       0.750000       0.000000
      0.725999       0.730363       0.000000
      0.748697       0.787383       0.000000
      0.658747       0.804752       0.000000
      0.725999       0.730363       0.000000
      0.784518       0.701184       0.000000
      0.827614       0.760948       0.000000
      0.748697       0.787383       0.000000
      0.305719       0.760948       0.000000
      0.380813       0.787383       0.000000
      0.325006       0.842791       0.000000
      0.229289       0.820711       0.000000
      0.380813       0.787383       0.000000
      0.468251       0.804752       0.000000
      0.432173       0.856962       0.000000
      0.325006       0.842791       0.000000
      0.229289       0.820711       0.000000
      0.325006       0.842791       0.000000
      0.270755       0.896655       0.000000
      0.152860       0.880474       0.000000
      0.325006       0.842791       0.000000
      0.432173       0.856962       0.000000
      0.397732       0.906804       0.000000
      0.270755       0.896655       0.000000
      0.468251       0.804752       0.000000
      0.563060       0.810819       0.000000
      0.546050       0.861851       0.000000
      0.432173       0.856962       0.000000
      0.563060       0.810819       0.000000
      0.658747       0.804752       0.000000
      0.660865       0.856962       0.000000
      0.546050       0.861851       0.000000
      0.432173       0.856962       0.000000
      0.546050       0.861851       0.000000
      0.529912       0.910264       0.000000
      0.397732       0.906804       0.000000
      0.546050       0.861851       0.000000
      0.660865       0.856962       0.000000
      0.662887       0.906804       0.000000
      0.529912       0.910264       0.000000
      0.658747       0.804752       0.000000
      0.748697       0.787383       0.000000
      0.770753       0.842791       0.000000
      0.660865       0.856962       0.000000
      0.748697       0.787383       0.000000
      0.827614       0.760948       0.000000
      0.870711       0.820711       0.000000
      0.770753       0.842791       0.000000
      0.660865       0.856962       0.000000
      0.770753       0.842791       0.000000
      0.792195       0.896655       0.000000
      0.662887       0.906804       0.000000
      0.770753       0.842791       0.000000
      0.870711       0.820711       0.000000
      0.913807       0.880474       0.000000
      0.792195       0.896655       0.000000
      0.152860       0.880474       0.000000
      0.270755       0.896655       0.000000
      0.217995       0.949038       0.000000
      0.076430       0.940237       0.000000
      0.270755       0.896655       0.000000
      0.397732       0.906804       0.000000
      0.364819       0.954435       0.000000
      0.217995       0.949038       0.000000
      0.076430       0.940237       0.000000
      0.217995       0.949038       0.000000
      0.166667       1.000000       0.000000
      0.000000       1.000000       0.000000
      0.217995       0.949038       0.000000
      0.364819       0.954435       0.000000
      0.333333       1.000000       0.000000
      0.166667       1.000000       0.000000
      0.397732       0.906804       0.000000
      0.529912       0.910264       0.000000
      0.514582       0.956255       0.000000
      0.364819       0.954435       0.000000
      0.529912       0.910264       0.000000
      0.662887       0.906804       0.000000
      0.664819       0.954435       0.000000
      0.514582       0.956255       0.000000
      0.364819       0.954435       0.000000
      0.514582       0.956255       0.000000
      0.500000       1.000000       0.000000
      0.333333       1.000000       0.000000
      0.514582       0.956255       0.000000
      0.664819       0.954435       0.000000
      0.666667       1.000000       0.000000
      0.500000       1.000000       0.000000
      0.662887       0.906804       0.000000
      0.792195       0.896655       0.000000
      0.813047       0.949038       0.000000
      0.664819       0.954435       0.000000
      0.792195       0.896655       0.000000
      0.913807       0.880474       0.000000
      0.956904       0.940237       0.000000
      0.813047       0.949038       0.000000
      0.664819       0.954435       0.000000
      0.813047       0.949038       0.000000
      0.833333       1.000000       0.000000
      0.666667       1.000000       0.000000
      0.813047       0.949038       0.000000
      0.956904       0.940237       0.000000
      1.000000       1.000000       0.000000
      0.833333       1.000000       0.000000
      0.458579       0.358579       0.000000
      0.428341       0.397369       0.000000
      0.351758       0.356122       0.000000
      0.382149       0.298816       0.000000
      0.428341       0.397369       0.000000
      0.407483       0.445805       0.000000
      0.331305       0.424779       0.000000
      0.351758       0.356122       0.000000
      0.382149       0.298816       0.000000
      0.351758       0.356122       0.000000
      0.277372       0.316058       0.000000
      0.305719       0.239052       0.000000
      0.351758       0.356122       0.000000
      0.331305       0.424779       0.000000
      0.258747       0.404752       0.000000
      0.277372       0.316058       0.000000
      0.407483       0.445805       0.000000
      0.400000       0.500000       0.000000
      0.324066       0.500000       0.000000
      0.331305       0.424779       0.000000
      0.400000       0.500000       0.000000
      0.407483       0.554195       0.000000
      0.331305       0.575221       0.000000
      0.324066       0.500000       0.000000
      0.331305       0.424779       0.000000
      0.324066       0.500000       0.000000
      0.252241       0.500000       0.000000
      0.258747       0.404752       0.000000
      0.324066       0.500000       0.000000
      0.331305       0.575221       0.000000
      0.258747       0.595248       0.000000
      0.252241       0.500000       0.000000
      0.407483       0.554195       0.000000
      0.428341       0.602631       0.000000
      0.351758       0.643878       0.000000
      0.331305       0.575221       0.000000
      0.428341       0.602631       0.000000
      0.458579       0.641421       0.000000
      0.382149       0.701184       0.000000
      0.351758       0.643878       0.000000
      0.331305       0.575221       0.000000
      0.351758       0.643878       0.000000
      0.277372       0.683942       0.000000
      0.258747       0.595248       0.000000
      0.351758       0.643878       0.000000
      0.382149       0.701184       0.000000
      0.305719       0.760948       0.000000
      0.277372       0.683942       0.000000
      0.305719       0.239052       0.000000
      0.277372       0.316058       0.000000
      0.205089       0.277126       0.000000
      0.229289       0.179289       0.000000
      0.277372       0.316058       0.000000
      0.258747       0.404752       0.000000
      0.189557       0.385654       0.000000
      0.205089       0.277126       0.000000
      0.229289       0.179289       0.000000
      0.205089       0.277126       0.000000
      0.134820       0.239280       0.000000
      0.152860       0.119526       0.000000
      0.205089       0.277126       0.000000
      0.189557       0.385654       0.000000
      0.123505       0.367423       0.000000
      0.134820       0.239280       0.000000
      0.258747       0.404752       0.000000
      0.252241       0.500000       0.000000
      0.184198       0.500000       0.000000
      0.189557       0.385654       0.000000
      0.252241       0.500000       0.000000
      0.258747       0.595248       0.000000
      0.189557       0.614346       0.000000
      0.184198       0.500000       0.000000
      0.189557       0.385654       0.000000
      0.184198       0.500000       0.000000
      0.119648       0.500000       0.000000
      0.123505       0.367423       0.000000
[...]
POINT_DATA   576
VECTORS U float 
      0.000376       0.004882       0.000000
      0.000194       0.005234       0.000000
      0.000032       0.004970       0.000000
      0.000249       0.004527       0.000000
      0.000194       0.005234       0.000000
      0.000002       0.005469       0.000000
     -0.000111       0.005366       0.000000
      0.000032       0.004970       0.000000
      0.000249       0.004527       0.000000
      0.000032       0.004970       0.000000
      0.000058       0.004947       0.000000
      0.000316       0.004577       0.000000
      0.000032       0.004970       0.000000
     -0.000111       0.005366       0.000000
     -0.000123       0.005325       0.000000
      0.000058       0.004947       0.000000
      0.000002       0.005469       0.000000
     -0.000198       0.005564       0.000000
     -0.000186       0.005588       0.000000
     -0.000111       0.005366       0.000000
     -0.000198       0.005564       0.000000
     -0.000416       0.005515       0.000000
     -0.000258       0.005550       0.000000
     -0.000186       0.005588       0.000000
     -0.000111       0.005366       0.000000
     -0.000186       0.005588       0.000000
     -0.000185       0.005586       0.000000
     -0.000123       0.005325       0.000000
     -0.000186       0.005588       0.000000
     -0.000258       0.005550       0.000000
     -0.000196       0.005576       0.000000
     -0.000185       0.005586       0.000000
     -0.000416       0.005515       0.000000
     -0.000661       0.005320       0.000000
     -0.000391       0.005255       0.000000
     -0.000258       0.005550       0.000000
     -0.000661       0.005320       0.000000
     -0.000928       0.004995       0.000000
     -0.000625       0.004803       0.000000
     -0.000391       0.005255       0.000000
     -0.000258       0.005550       0.000000
     -0.000391       0.005255       0.000000
     -0.000283       0.005279       0.000000
     -0.000196       0.005576       0.000000
     -0.000391       0.005255       0.000000
     -0.000625       0.004803       0.000000
     -0.000503       0.004833       0.000000
     -0.000283       0.005279       0.000000
      0.000316       0.004577       0.000000
      0.000058       0.004947       0.000000
      0.000120       0.005056       0.000000
      0.000413       0.004776       0.000000
      0.000058       0.004947       0.000000
     -0.000123       0.005325       0.000000
     -0.000103       0.005360       0.000000
      0.000120       0.005056       0.000000
      0.000413       0.004776       0.000000
      0.000120       0.005056       0.000000
      0.000196       0.005242       0.000000
      0.000527       0.005047       0.000000
      0.000120       0.005056       0.000000
     -0.000103       0.005360       0.000000
     -0.000072       0.005451       0.000000
      0.000196       0.005242       0.000000
     -0.000123       0.005325       0.000000
     -0.000185       0.005586       0.000000
     -0.000179       0.005601       0.000000
     -0.000103       0.005360       0.000000
     -0.000185       0.005586       0.000000
     -0.000196       0.005576       0.000000
     -0.000163       0.005611       0.000000
     -0.000179       0.005601       0.000000
     -0.000103       0.005360       0.000000
     -0.000179       0.005601       0.000000
     -0.000172       0.005636       0.000000
     -0.000072       0.005451       0.000000
     -0.000179       0.005601       0.000000
     -0.000163       0.005611       0.000000
     -0.000143       0.005654       0.000000
     -0.000172       0.005636       0.000000
     -0.000196       0.005576       0.000000
     -0.000283       0.005279       0.000000
     -0.000226       0.005349       0.000000
     -0.000163       0.005611       0.000000
     -0.000283       0.005279       0.000000
     -0.000503       0.004833       0.000000
     -0.000437       0.004950       0.000000
     -0.000226       0.005349       0.000000
     -0.000163       0.005611       0.000000
     -0.000226       0.005349       0.000000
     -0.000195       0.005452       0.000000
     -0.000143       0.005654       0.000000
     -0.000226       0.005349       0.000000
     -0.000437       0.004950       0.000000
     -0.000418       0.005137       0.000000
     -0.000195       0.005452       0.000000
      0.000527       0.005047       0.000000
      0.000196       0.005242       0.000000
      0.000289       0.005478       0.000000
      0.000674       0.005368       0.000000
      0.000196       0.005242       0.000000
     -0.000072       0.005451       0.000000
     -0.000033       0.005584       0.000000
      0.000289       0.005478       0.000000
      0.000674       0.005368       0.000000
      0.000289       0.005478       0.000000
      0.000407       0.005752       0.000000
      0.000876       0.005752       0.000000
      0.000289       0.005478       0.000000
     -0.000033       0.005584       0.000000
      0.000017       0.005752       0.000000
      0.000407       0.005752       0.000000
     -0.000072       0.005451       0.000000
     -0.000172       0.005636       0.000000
     -0.000167       0.005688       0.000000
     -0.000033       0.005584       0.000000
     -0.000172       0.005636       0.000000
     -0.000143       0.005654       0.000000
     -0.000132       0.005702       0.000000
     -0.000167       0.005688       0.000000
     -0.000033       0.005584       0.000000
     -0.000167       0.005688       0.000000
     -0.000164       0.005752       0.000000
      0.000017       0.005752       0.000000
     -0.000167       0.005688       0.000000
     -0.000132       0.005702       0.000000
     -0.000129       0.005752       0.000000
     -0.000164       0.005752       0.000000
     -0.000143       0.005654       0.000000
     -0.000195       0.005452       0.000000
     -0.000187       0.005587       0.000000
     -0.000132       0.005702       0.000000
     -0.000195       0.005452       0.000000
     -0.000418       0.005137       0.000000
     -0.000455       0.005405       0.000000
     -0.000187       0.005587       0.000000
     -0.000132       0.005702       0.000000
     -0.000187       0.005587       0.000000
     -0.000200       0.005752       0.000000
     -0.000129       0.005752       0.000000
     -0.000187       0.005587       0.000000
     -0.000455       0.005405       0.000000
     -0.000546       0.005752       0.000000
     -0.000200       0.005752       0.000000
      0.000327       0.000751       0.000000
      0.000498       0.001213       0.000000
      0.000487       0.001587       0.000000
      0.000199       0.001091       0.000000
      0.000498       0.001213       0.000000
      0.000631       0.001876       0.000000
      0.000805       0.002176       0.000000
      0.000487       0.001587       0.000000
      0.000199       0.001091       0.000000
      0.000487       0.001587       0.000000
      0.000555       0.001586       0.000000
      0.000238       0.001040       0.000000
      0.000487       0.001587       0.000000
      0.000805       0.002176       0.000000
      0.000909       0.002209       0.000000
      0.000555       0.001586       0.000000
      0.000631       0.001876       0.000000
      0.000673       0.002796       0.000000
      0.000973       0.002809       0.000000
      0.000805       0.002176       0.000000
      0.000673       0.002796       0.000000
      0.000657       0.003724       0.000000
      0.000839       0.003439       0.000000
      0.000973       0.002809       0.000000
      0.000805       0.002176       0.000000
      0.000973       0.002809       0.000000
      0.001092       0.002818       0.000000
      0.000909       0.002209       0.000000
      0.000973       0.002809       0.000000
      0.000839       0.003439       0.000000
      0.000945       0.003420       0.000000
      0.001092       0.002818       0.000000
      0.000657       0.003724       0.000000
      0.000543       0.004401       0.000000
      0.000538       0.004023       0.000000
      0.000839       0.003439       0.000000
      0.000543       0.004401       0.000000
      0.000376       0.004882       0.000000
      0.000249       0.004527       0.000000
      0.000538       0.004023       0.000000
      0.000839       0.003439       0.000000
      0.000538       0.004023       0.000000
      0.000618       0.004031       0.000000
      0.000945       0.003420       0.000000
      0.000538       0.004023       0.000000
      0.000249       0.004527       0.000000
      0.000316       0.004577       0.000000
      0.000618       0.004031       0.000000
      0.000238       0.001040       0.000000
      0.000555       0.001586       0.000000
      0.000633       0.001478       0.000000
      0.000280       0.000848       0.000000
      0.000555       0.001586       0.000000
      0.000909       0.002209       0.000000
      0.001013       0.002171       0.000000
      0.000633       0.001478       0.000000
      0.000280       0.000848       0.000000
      0.000633       0.001478       0.000000
      0.000705       0.001354       0.000000
      0.000289       0.000602       0.000000
      0.000633       0.001478       0.000000
      0.001013       0.002171       0.000000
      0.001118       0.002129       0.000000
      0.000705       0.001354       0.000000
      0.000909       0.002209       0.000000
      0.001092       0.002818       0.000000
      0.001201       0.002829       0.000000
      0.001013       0.002171       0.000000
      0.001092       0.002818       0.000000
      0.000945       0.003420       0.000000
      0.001051       0.003480       0.000000
      0.001201       0.002829       0.000000
      0.001013       0.002171       0.000000
      0.001201       0.002829       0.000000
      0.001319       0.002842       0.000000
      0.001118       0.002129       0.000000
      0.001201       0.002829       0.000000
      0.001051       0.003480       0.000000
      0.001160       0.003551       0.000000
      0.001319       0.002842       0.000000
      0.000945       0.003420       0.000000
      0.000618       0.004031       0.000000
      0.000715       0.004155       0.000000
      0.001051       0.003480       0.000000
      0.000618       0.004031       0.000000
      0.000316       0.004577       0.000000
      0.000413       0.004776       0.000000
      0.000715       0.004155       0.000000
      0.001051       0.003480       0.000000
      0.000715       0.004155       0.000000
      0.000813       0.004310       0.000000
      0.001160       0.003551       0.000000
      0.000715       0.004155       0.000000
      0.000413       0.004776       0.000000
      0.000527       0.005047       0.000000
      0.000813       0.004310       0.000000
      0.000289       0.000602       0.000000
      0.000705       0.001354       0.000000
      0.000768       0.001262       0.000000
      0.000234       0.000330       0.000000
      0.000705       0.001354       0.000000
      0.001118       0.002129       0.000000
      0.001218       0.002113       0.000000
      0.000768       0.001262       0.000000
      0.000234       0.000330       0.000000
      0.000768       0.001262       0.000000
      0.000822       0.001219       0.000000
      0.000000       0.000000       0.000000
      0.000768       0.001262       0.000000
      0.001218       0.002113       0.000000
      0.001307       0.002146       0.000000
      0.000822       0.001219       0.000000
      0.001118       0.002129       0.000000
      0.001319       0.002842       0.000000
      0.001439       0.002855       0.000000
      0.001218       0.002113       0.000000
      0.001319       0.002842       0.000000
      0.001160       0.003551       0.000000
      0.001267       0.003600       0.000000
      0.001439       0.002855       0.000000
      0.001218       0.002113       0.000000
      0.001439       0.002855       0.000000
      0.001548       0.002865       0.000000
      0.001307       0.002146       0.000000
      0.001439       0.002855       0.000000
      0.001267       0.003600       0.000000
      0.001367       0.003600       0.000000
      0.001548       0.002865       0.000000
      0.001160       0.003551       0.000000
      0.000813       0.004310       0.000000
      0.000913       0.004457       0.000000
      0.001267       0.003600       0.000000
      0.000813       0.004310       0.000000
      0.000527       0.005047       0.000000
      0.000674       0.005368       0.000000
      0.000913       0.004457       0.000000
      0.001267       0.003600       0.000000
      0.000913       0.004457       0.000000
      0.001026       0.004587       0.000000
      0.001367       0.003600       0.000000
      0.000913       0.004457       0.000000
      0.000674       0.005368       0.000000
      0.000876       0.005752       0.000000
      0.001026       0.004587       0.000000
     -0.000872       0.000703       0.000000
     -0.000600       0.000379       0.000000
     -0.000321       0.000449       0.000000
     -0.000554       0.000904       0.000000
     -0.000600       0.000379       0.000000
     -0.000364       0.000187       0.000000
     -0.000202       0.000160       0.000000
     -0.000321       0.000449       0.000000
     -0.000554       0.000904       0.000000
     -0.000321       0.000449       0.000000
     -0.000189       0.000433       0.000000
     -0.000408       0.000881       0.000000
     -0.000321       0.000449       0.000000
     -0.000202       0.000160       0.000000
     -0.000121       0.000143       0.000000
     -0.000189       0.000433       0.000000
     -0.000364       0.000187       0.000000
     -0.000173       0.000134       0.000000
     -0.000154       0.000116       0.000000
     -0.000202       0.000160       0.000000
     -0.000173       0.000134       0.000000
     -0.000008       0.000214       0.000000
     -0.000109       0.000309       0.000000
     -0.000154       0.000116       0.000000
     -0.000202       0.000160       0.000000
     -0.000154       0.000116       0.000000
     -0.000142       0.000124       0.000000
     -0.000121       0.000143       0.000000
     -0.000154       0.000116       0.000000
     -0.000109       0.000309       0.000000
     -0.000125       0.000350       0.000000
     -0.000142       0.000124       0.000000
     -0.000008       0.000214       0.000000
      0.000157       0.000423       0.000000
      0.000002       0.000670       0.000000
     -0.000109       0.000309       0.000000
      0.000157       0.000423       0.000000
      0.000327       0.000751       0.000000
      0.000199       0.001091       0.000000
      0.000002       0.000670       0.000000
     -0.000109       0.000309       0.000000
      0.000002       0.000670       0.000000
      0.000009       0.000689       0.000000
     -0.000125       0.000350       0.000000
      0.000002       0.000670       0.000000
      0.000199       0.001091       0.000000
      0.000238       0.001040       0.000000
      0.000009       0.000689       0.000000
     -0.000408       0.000881       0.000000
     -0.000189       0.000433       0.000000
     -0.000101       0.000368       0.000000
     -0.000308       0.000770       0.000000
     -0.000189       0.000433       0.000000
     -0.000121       0.000143       0.000000
     -0.000067       0.000120       0.000000
     -0.000101       0.000368       0.000000
     -0.000308       0.000770       0.000000
     -0.000101       0.000368       0.000000
     -0.000038       0.000268       0.000000
     -0.000242       0.000588       0.000000
     -0.000101       0.000368       0.000000
     -0.000067       0.000120       0.000000
     -0.000028       0.000088       0.000000
     -0.000038       0.000268       0.000000
     -0.000121       0.000143       0.000000
     -0.000142       0.000124       0.000000
     -0.000123       0.000119       0.000000
     -0.000067       0.000120       0.000000
     -0.000142       0.000124       0.000000
     -0.000125       0.000350       0.000000
     -0.000110       0.000320       0.000000
     -0.000123       0.000119       0.000000
     -0.000067       0.000120       0.000000
     -0.000123       0.000119       0.000000
     -0.000098       0.000095       0.000000
     -0.000028       0.000088       0.000000
     -0.000123       0.000119       0.000000
     -0.000110       0.000320       0.000000
     -0.000084       0.000239       0.000000
     -0.000098       0.000095       0.000000
     -0.000125       0.000350       0.000000
      0.000009       0.000689       0.000000
      0.000037       0.000582       0.000000
     -0.000110       0.000320       0.000000
      0.000009       0.000689       0.000000
      0.000238       0.001040       0.000000
      0.000280       0.000848       0.000000
      0.000037       0.000582       0.000000
     -0.000110       0.000320       0.000000
      0.000037       0.000582       0.000000
      0.000055       0.000409       0.000000
     -0.000084       0.000239       0.000000
      0.000037       0.000582       0.000000
      0.000280       0.000848       0.000000
      0.000289       0.000602       0.000000
      0.000055       0.000409       0.000000
     -0.000242       0.000588       0.000000
     -0.000038       0.000268       0.000000
     -0.000002       0.000142       0.000000
     -0.000186       0.000330       0.000000
     -0.000038       0.000268       0.000000
     -0.000028       0.000088       0.000000
     -0.000004       0.000049       0.000000
     -0.000002       0.000142       0.000000
     -0.000186       0.000330       0.000000
     -0.000002       0.000142       0.000000
      0.000000       0.000000       0.000000
      0.000000       0.000000       0.000000
     -0.000002       0.000142       0.000000
     -0.000004       0.000049       0.000000
      0.000000       0.000000       0.000000
      0.000000       0.000000       0.000000
     -0.000028       0.000088       0.000000
     -0.000098       0.000095       0.000000
     -0.000060       0.000055       0.000000
     -0.000004       0.000049       0.000000
     -0.000098       0.000095       0.000000
     -0.000084       0.000239       0.000000
     -0.000047       0.000127       0.000000
     -0.000060       0.000055       0.000000
     -0.000004       0.000049       0.000000
     -0.000060       0.000055       0.000000
      0.000000       0.000000       0.000000
      0.000000       0.000000       0.000000
     -0.000060       0.000055       0.000000
     -0.000047       0.000127       0.000000
      0.000000       0.000000       0.000000
      0.000000       0.000000       0.000000
     -0.000084       0.000239       0.000000
      0.000055       0.000409       0.000000
      0.000047       0.000206       0.000000
     -0.000047       0.000127       0.000000
      0.000055       0.000409       0.000000
      0.000289       0.000602       0.000000
      0.000234       0.000330       0.000000
      0.000047       0.000206       0.000000
     -0.000047       0.000127       0.000000
      0.000047       0.000206       0.000000
      0.000000       0.000000       0.000000
      0.000000       0.000000       0.000000
      0.000047       0.000206       0.000000
      0.000234       0.000330       0.000000
      0.000000       0.000000       0.000000
      0.000000       0.000000       0.000000
     -0.000872       0.000703       0.000000
     -0.001168       0.001175       0.000000
     -0.000965       0.001400       0.000000
     -0.000554       0.000904       0.000000
     -0.001168       0.001175       0.000000
     -0.001428       0.001861       0.000000
     -0.001466       0.002034       0.000000
     -0.000965       0.001400       0.000000
     -0.000554       0.000904       0.000000
     -0.000965       0.001400       0.000000
     -0.000842       0.001423       0.000000