# vtk DataFile Version 2.0
time_10.vtk
ASCII
DATASET UNSTRUCTURED_GRID
POINTS   648 float
      0.458579       0.641421       0.000000
      0.497369       0.671659       0.000000
      0.438243       0.730363       0.000000
      0.382149       0.701184       0.000000
      0.497369       0.671659       0.000000
      0.545805       0.692517       0.000000
      0.506084       0.750000       0.000000
      0.438243       0.730363       0.000000
      0.382149       0.701184       0.000000
      0.438243       0.730363       0.000000
      0.380813       0.787383       0.000000
      0.305719       0.760948       0.000000
      0.438243       0.730363       0.000000
      0.506084       0.750000       0.000000
      0.468251       0.804752       0.000000
      0.380813       0.787383       0.000000
      0.545805       0.692517       0.000000
      0.600000       0.700000       0.000000
      0.581017       0.756950       0.000000
      0.506084       0.750000       0.000000
      0.600000       0.700000       0.000000
      0.654195       0.692517       0.000000
      0.656527       0.750000       0.000000
      0.581017       0.756950       0.000000
      0.506084       0.750000       0.000000
      0.581017       0.756950       0.000000
      0.563060       0.810819       0.000000
      0.468251       0.804752       0.000000
      0.581017       0.756950       0.000000
      0.656527       0.750000       0.000000
      0.658747       0.804752       0.000000
      0.563060       0.810819       0.000000
      0.654195       0.692517       0.000000
      0.702631       0.671659       0.000000
      0.725999       0.730363       0.000000
      0.656527       0.750000       0.000000
      0.702631       0.671659       0.000000
      0.741421       0.641421       0.000000
      0.784518       0.701184       0.000000
      0.725999       0.730363       0.000000
      0.656527       0.750000       0.000000
      0.725999       0.730363       0.000000
      0.748697       0.787383       0.000000
      0.658747       0.804752       0.000000
      0.725999       0.730363       0.000000
      0.784518       0.701184       0.000000
      0.827614       0.760948       0.000000
      0.748697       0.787383       0.000000
      0.305719       0.760948       0.000000
      0.380813       0.787383       0.000000
      0.325006       0.842791       0.000000
      0.229289       0.820711       0.000000
      0.380813       0.787383       0.000000
      0.468251       0.804752       0.000000
      0.432173       0.856962       0.000000
      0.325006       0.842791       0.000000
      0.229289       0.820711       0.000000
      0.325006       0.842791       0.000000
      0.270755       0.896655       0.000000
      0.152860       0.880474       0.000000
      0.325006       0.842791       0.000000
      0.432173       0.856962       0.000000
      0.397732       0.906804       0.000000
      0.270755       0.896655       0.000000
      0.468251       0.804752       0.000000
      0.563060       0.810819       0.000000
      0.546050       0.861851       0.000000
      0.432173       0.856962       0.000000
      0.563060       0.810819       0.000000
      0.658747       0.804752       0.000000
      0.660865       0.856962       0.000000
      0.546050       0.861851       0.000000
      0.432173       0.856962       0.000000
      0.546050       0.861851       0.000000
      0.529912       0.910264       0.000000
      0.397732       0.906804       0.000000
      0.546050       0.861851       0.000000
      0.660865       0.856962       0.000000
      0.662887       0.906804       0.000000
      0.529912       0.910264       0.000000
      0.658747       0.804752       0.000000
      0.748697       0.787383       0.000000
      0.770753       0.842791       0.000000
      0.660865       0.856962       0.000000
      0.748697       0.787383       0.000000
      0.827614       0.760948       0.000000
      0.870711       0.820711       0.000000
      0.770753       0.842791       0.000000
      0.660865       0.856962       0.000000
      0.770753       0.842791       0.000000
      0.792195       0.896655       0.000000
      0.662887       0.906804       0.000000
      0.770753       0.842791       0.000000
      0.870711       0.820711       0.000000
      0.913807       0.880474       0.000000
      0.792195       0.896655       0.000000
      0.152860       0.880474       0.000000
      0.270755       0.896655       0.000000
      0.217995       0.949038       0.000000
      0.076430       0.940237       0.000000
      0.270755       0.896655       0.000000
      0.397732       0.906804       0.000000
      0.364819       0.954435       0.000000
      0.217995       0.949038       0.000000
      0.076430       0.940237       0.000000
      0.217995       0.949038       0.000000
      0.166667       1.000000       0.000000
      0.000000       1.000000       0.000000
      0.217995       0.949038       0.000000
      0.364819       0.954435       0.000000
      0.333333       1.000000       0.000000
      0.166667       1.000000       0.000000
      0.397732       0.906804       0.000000
      0.529912       0.910264       0.000000
      0.514582       0.956255       0.000000
      0.364819       0.954435       0.000000
      0.529912       0.910264       0.000000
      0.662887       0.906804       0.000000
      0.664819       0.954435       0.000000
      0.514582       0.956255       0.000000
      0.364819       0.954435       0.000000
      0.514582       0.956255       0.000000
      0.500000       1.000000       0.000000
      0.333333       1.000000       0.000000
      0.514582       0.956255       0.000000
      0.664819       0.954435       0.000000
      0.666667       1.000000       0.000000
      0.500000       1.000000       0.000000
      0.662887       0.906804       0.000000
      0.792195       0.896655       0.000000
      0.813047       0.949038       0.000000
      0.664819       0.954435       0.000000
      0.792195       0.896655       0.000000
      0.913807       0.880474       0.000000
      0.956904       0.940237       0.000000
      0.813047       0.949038       0.000000
      0.664819       0.954435       0.000000
      0.813047       0.949038       0.000000
      0.833333       1.000000       0.000000
      0.666667       1.000000       0.000000
      0.813047       0.949038       0.000000
      0.956904       0.940237       0.000000
      1.000000       1.000000       0.000000
      0.833333       1.000000       0.000000
      0.458579       0.358579       0.000000
      0.428341       0.397369       0.000000
      0.351758       0.356122       0.000000
      0.382149       0.298816       0.000000
      0.428341       0.397369       0.000000
      0.407483       0.445805       0.000000
      0.331305       0.424779       0.000000
      0.351758       0.356122       0.000000
      0.382149       0.298816       0.000000
      0.351758       0.356122       0.000000
      0.277372       0.316058       0.000000
      0.305719       0.239052       0.000000
      0.351758       0.356122       0.000000
      0.331305       0.424779       0.000000
      0.258747       0.404752       0.000000
      0.277372       0.316058       0.000000
      0.407483       0.445805       0.000000
      0.400000       0.500000       0.000000
      0.324066       0.500000       0.000000
      0.331305       0.424779       0.000000
      0.400000       0.500000       0.000000
      0.407483       0.554195       0.000000
      0.331305       0.575221       0.000000
      0.324066       0.500000       0.000000
      0.331305       0.424779       0.000000
      0.324066       0.500000       0.000000
      0.252241       0.500000       0.000000
      0.258747       0.404752       0.000000
      0.324066       0.500000       0.000000
      0.331305       0.575221       0.000000
      0.258747       0.595248       0.000000
      0.252241       0.500000       0.000000
      0.407483       0.554195       0.000000
      0.428341       0.602631       0.000000
      0.351758       0.643878       0.000000
      0.331305       0.575221       0.000000
      0.428341       0.602631       0.000000
      0.458579       0.641421       0.000000
      0.382149       0.701184       0.000000
      0.351758       0.643878       0.000000
      0.331305       0.575221       0.000000
      0.351758       0.643878       0.000000
      0.277372       0.683942       0.000000
      0.258747       0.595248       0.000000
      0.351758       0.643878       0.000000
      0.382149       0.701184       0.000000
      0.305719       0.760948       0.000000
      0.277372       0.683942       0.000000
      0.305719       0.239052       0.000000
      0.277372       0.316058       0.000000
      0.205089       0.277126       0.000000
      0.229289       0.179289       0.000000
      0.277372       0.316058       0.000000
      0.258747       0.404752       0.000000
      0.189557       0.385654       0.000000
      0.205089       0.277126       0.000000
      0.229289       0.179289       0.000000
      0.205089       0.277126       0.000000
      0.134820       0.239280       0.000000
      0.152860       0.119526       0.000000
      0.205089       0.277126       0.000000
      0.189557       0.385654       0.000000
      0.123505       0.367423       0.000000
      0.134820       0.239280       0.000000
      0.258747       0.404752       0.000000
      0.252241       0.500000       0.000000
      0.184198       0.500000       0.000000
      0.189557       0.385654       0.000000
      0.252241       0.500000       0.000000
      0.258747       0.595248       0.000000
      0.189557       0.614346       0.000000
      0.184198       0.500000       0.000000
      0.189557       0.385654       0.000000
      0.184198       0.500000       0.000000
      0.119648       0.500000       0.000000
      0.123505       0.367423       0.000000
[...]
POINT_DATA   648
VECTORS U float 
      0.000425       0.005517       0.000000
      0.000219       0.005895       0.000000
      0.000037       0.005606       0.000000
      0.000276       0.005118       0.000000
      0.000219       0.005895       0.000000
      0.000005       0.006148       0.000000
     -0.000119       0.006037       0.000000
      0.000037       0.005606       0.000000
      0.000276       0.005118       0.000000
      0.000037       0.005606       0.000000
      0.000059       0.005573       0.000000
      0.000344       0.005156       0.000000
      0.000037       0.005606       0.000000
     -0.000119       0.006037       0.000000
     -0.000136       0.005989       0.000000
      0.000059       0.005573       0.000000
      0.000005       0.006148       0.000000
     -0.000215       0.006251       0.000000
     -0.000202       0.006278       0.000000
     -0.000119       0.006037       0.000000
     -0.000215       0.006251       0.000000
     -0.000455       0.006200       0.000000
     -0.000282       0.006238       0.000000
     -0.000202       0.006278       0.000000
     -0.000119       0.006037       0.000000
     -0.000202       0.006278       0.000000
     -0.000201       0.006274       0.000000
     -0.000136       0.005989       0.000000
     -0.000202       0.006278       0.000000
     -0.000282       0.006238       0.000000
     -0.000212       0.006264       0.000000
     -0.000201       0.006274       0.000000
     -0.000455       0.006200       0.000000
     -0.000729       0.005993       0.000000
     -0.000429       0.005921       0.000000
     -0.000282       0.006238       0.000000
     -0.000729       0.005993       0.000000
     -0.001030       0.005646       0.000000
     -0.000686       0.005429       0.000000
     -0.000429       0.005921       0.000000
     -0.000282       0.006238       0.000000
     -0.000429       0.005921       0.000000
     -0.000305       0.005941       0.000000
     -0.000212       0.006264       0.000000
     -0.000429       0.005921       0.000000
     -0.000686       0.005429       0.000000
     -0.000543       0.005450       0.000000
     -0.000305       0.005941       0.000000
      0.000344       0.005156       0.000000
      0.000059       0.005573       0.000000
      0.000122       0.005685       0.000000
      0.000447       0.005364       0.000000
      0.000059       0.005573       0.000000
     -0.000136       0.005989       0.000000
     -0.000118       0.006023       0.000000
      0.000122       0.005685       0.000000
      0.000447       0.005364       0.000000
      0.000122       0.005685       0.000000
      0.000202       0.005883       0.000000
      0.000569       0.005656       0.000000
      0.000122       0.005685       0.000000
     -0.000118       0.006023       0.000000
     -0.000088       0.006118       0.000000
      0.000202       0.005883       0.000000
     -0.000136       0.005989       0.000000
     -0.000201       0.006274       0.000000
     -0.000196       0.006288       0.000000
     -0.000118       0.006023       0.000000
     -0.000201       0.006274       0.000000
     -0.000212       0.006264       0.000000
     -0.000175       0.006298       0.000000
     -0.000196       0.006288       0.000000
     -0.000118       0.006023       0.000000
     -0.000196       0.006288       0.000000
     -0.000190       0.006323       0.000000
     -0.000088       0.006118       0.000000
     -0.000196       0.006288       0.000000
     -0.000175       0.006298       0.000000
     -0.000152       0.006342       0.000000
     -0.000190       0.006323       0.000000
     -0.000212       0.006264       0.000000
     -0.000305       0.005941       0.000000
     -0.000238       0.006012       0.000000
     -0.000175       0.006298       0.000000
     -0.000305       0.005941       0.000000
     -0.000543       0.005450       0.000000
     -0.000465       0.005568       0.000000
     -0.000238       0.006012       0.000000
     -0.000175       0.006298       0.000000
     -0.000238       0.006012       0.000000
     -0.000202       0.006120       0.000000
     -0.000152       0.006342       0.000000
     -0.000238       0.006012       0.000000
     -0.000465       0.005568       0.000000
     -0.000443       0.005768       0.000000
     -0.000202       0.006120       0.000000
      0.000569       0.005656       0.000000
      0.000202       0.005883       0.000000
      0.000301       0.006140       0.000000
      0.000730       0.006009       0.000000
      0.000202       0.005883       0.000000
     -0.000088       0.006118       0.000000
     -0.000048       0.006261       0.000000
      0.000301       0.006140       0.000000
      0.000730       0.006009       0.000000
      0.000301       0.006140       0.000000
      0.000431       0.006442       0.000000
      0.000958       0.006442       0.000000
      0.000301       0.006140       0.000000
     -0.000048       0.006261       0.000000
      0.000005       0.006442       0.000000
      0.000431       0.006442       0.000000
     -0.000088       0.006118       0.000000
     -0.000190       0.006323       0.000000
     -0.000186       0.006375       0.000000
     -0.000048       0.006261       0.000000
     -0.000190       0.006323       0.000000
     -0.000152       0.006342       0.000000
     -0.000140       0.006391       0.000000
     -0.000186       0.006375       0.000000
     -0.000048       0.006261       0.000000
     -0.000186       0.006375       0.000000
     -0.000183       0.006442       0.000000
      0.000005       0.006442       0.000000
     -0.000186       0.006375       0.000000
     -0.000140       0.006391       0.000000
     -0.000136       0.006442       0.000000
     -0.000183       0.006442       0.000000
     -0.000152       0.006342       0.000000
     -0.000202       0.006120       0.000000
     -0.000192       0.006264       0.000000
     -0.000140       0.006391       0.000000
     -0.000202       0.006120       0.000000
     -0.000443       0.005768       0.000000
     -0.000483       0.006060       0.000000
     -0.000192       0.006264       0.000000
     -0.000140       0.006391       0.000000
     -0.000192       0.006264       0.000000
     -0.000206       0.006442       0.000000
     -0.000136       0.006442       0.000000
     -0.000192       0.006264       0.000000
     -0.000483       0.006060       0.000000
     -0.000583       0.006442       0.000000
     -0.000206       0.006442       0.000000
      0.000373       0.000798       0.000000
      0.000570       0.001294       0.000000
      0.000547       0.001729       0.000000
      0.000223       0.001178       0.000000
      0.000570       0.001294       0.000000
      0.000726       0.002014       0.000000
      0.000917       0.002398       0.000000
      0.000547       0.001729       0.000000
      0.000223       0.001178       0.000000
      0.000547       0.001729       0.000000
      0.000622       0.001749       0.000000
      0.000263       0.001136       0.000000
      0.000547       0.001729       0.000000
      0.000917       0.002398       0.000000
      0.001036       0.002461       0.000000
      0.000622       0.001749       0.000000
      0.000726       0.002014       0.000000
      0.000753       0.003131       0.000000
      0.001127       0.003147       0.000000
      0.000917       0.002398       0.000000
      0.000753       0.003131       0.000000
      0.000755       0.004263       0.000000
      0.000954       0.003893       0.000000
      0.001127       0.003147       0.000000
      0.000917       0.002398       0.000000
      0.001127       0.003147       0.000000
      0.001257       0.003157       0.000000
      0.001036       0.002461       0.000000
      0.001127       0.003147       0.000000
      0.000954       0.003893       0.000000
      0.001074       0.003845       0.000000
      0.001257       0.003157       0.000000
      0.000755       0.004263       0.000000
      0.000620       0.004999       0.000000
      0.000601       0.004559       0.000000
      0.000954       0.003893       0.000000
      0.000620       0.004999       0.000000
      0.000425       0.005517       0.000000
      0.000276       0.005118       0.000000
      0.000601       0.004559       0.000000
      0.000954       0.003893       0.000000
      0.000601       0.004559       0.000000
      0.000689       0.004543       0.000000
      0.001074       0.003845       0.000000
      0.000601       0.004559       0.000000
      0.000276       0.005118       0.000000
      0.000344       0.005156       0.000000
      0.000689       0.004543       0.000000
      0.000263       0.001136       0.000000
      0.000622       0.001749       0.000000
      0.000710       0.001641       0.000000
      0.000308       0.000933       0.000000
      0.000622       0.001749       0.000000
      0.001036       0.002461       0.000000
      0.001152       0.002427       0.000000
      0.000710       0.001641       0.000000
      0.000308       0.000933       0.000000
      0.000710       0.001641       0.000000
      0.000789       0.001513       0.000000
      0.000316       0.000667       0.000000
      0.000710       0.001641       0.000000
      0.001152       0.002427       0.000000
      0.001269       0.002385       0.000000
      0.000789       0.001513       0.000000
      0.001036       0.002461       0.000000
      0.001257       0.003157       0.000000
      0.001376       0.003168       0.000000
      0.001152       0.002427       0.000000
      0.001257       0.003157       0.000000
      0.001074       0.003845       0.000000
      0.001192       0.003900       0.000000
      0.001376       0.003168       0.000000
      0.001152       0.002427       0.000000
      0.001376       0.003168       0.000000
      0.001505       0.003181       0.000000
      0.001269       0.002385       0.000000
      0.001376       0.003168       0.000000
      0.001192       0.003900       0.000000
      0.001313       0.003972       0.000000
      0.001505       0.003181       0.000000
      0.001074       0.003845       0.000000
      0.000689       0.004543       0.000000
      0.000796       0.004666       0.000000
      0.001192       0.003900       0.000000
      0.000689       0.004543       0.000000
      0.000344       0.005156       0.000000
      0.000447       0.005364       0.000000
      0.000796       0.004666       0.000000
      0.001192       0.003900       0.000000
      0.000796       0.004666       0.000000
      0.000902       0.004827       0.000000
      0.001313       0.003972       0.000000
      0.000796       0.004666       0.000000
      0.000447       0.005364       0.000000
      0.000569       0.005656       0.000000
      0.000902       0.004827       0.000000
      0.000316       0.000667       0.000000
      0.000789       0.001513       0.000000
      0.000858       0.001417       0.000000
      0.000256       0.000367       0.000000
      0.000789       0.001513       0.000000
      0.001269       0.002385       0.000000
      0.001379       0.002372       0.000000
      0.000858       0.001417       0.000000
      0.000256       0.000367       0.000000
      0.000858       0.001417       0.000000
      0.000918       0.001373       0.000000
      0.000000       0.000000       0.000000
      0.000858       0.001417       0.000000
      0.001379       0.002372       0.000000
      0.001476       0.002414       0.000000
      0.000918       0.001373       0.000000
      0.001269       0.002385       0.000000
      0.001505       0.003181       0.000000
      0.001636       0.003194       0.000000
      0.001379       0.002372       0.000000
      0.001505       0.003181       0.000000
      0.001313       0.003972       0.000000
      0.001430       0.004020       0.000000
      0.001636       0.003194       0.000000
      0.001379       0.002372       0.000000
      0.001636       0.003194       0.000000
      0.001756       0.003205       0.000000
      0.001476       0.002414       0.000000
      0.001636       0.003194       0.000000
      0.001430       0.004020       0.000000
      0.001539       0.004012       0.000000
      0.001756       0.003205       0.000000
      0.001313       0.003972       0.000000
      0.000902       0.004827       0.000000
      0.001010       0.004982       0.000000
      0.001430       0.004020       0.000000
      0.000902       0.004827       0.000000
      0.000569       0.005656       0.000000
      0.000730       0.006009       0.000000
      0.001010       0.004982       0.000000
      0.001430       0.004020       0.000000
      0.001010       0.004982       0.000000
      0.001134       0.005121       0.000000
      0.001539       0.004012       0.000000
      0.001010       0.004982       0.000000
      0.000730       0.006009       0.000000
      0.000958       0.006442       0.000000
      0.001134       0.005121       0.000000
     -0.000968       0.000740       0.000000
     -0.000661       0.000395       0.000000
     -0.000352       0.000472       0.000000
     -0.000608       0.000966       0.000000
     -0.000661       0.000395       0.000000
     -0.000398       0.000191       0.000000
     -0.000221       0.000161       0.000000
     -0.000352       0.000472       0.000000
     -0.000608       0.000966       0.000000
     -0.000352       0.000472       0.000000
     -0.000203       0.000460       0.000000
     -0.000440       0.000953       0.000000
     -0.000352       0.000472       0.000000
     -0.000221       0.000161       0.000000
     -0.000131       0.000146       0.000000
     -0.000203       0.000460       0.000000
     -0.000398       0.000191       0.000000
     -0.000187       0.000136       0.000000
     -0.000166       0.000116       0.000000
     -0.000221       0.000161       0.000000
     -0.000187       0.000136       0.000000
     -0.000004       0.000222       0.000000
     -0.000115       0.000325       0.000000
     -0.000166       0.000116       0.000000
     -0.000221       0.000161       0.000000
     -0.000166       0.000116       0.000000
     -0.000153       0.000126       0.000000
     -0.000131       0.000146       0.000000
     -0.000166       0.000116       0.000000
     -0.000115       0.000325       0.000000
     -0.000135       0.000371       0.000000
     -0.000153       0.000126       0.000000
     -0.000004       0.000222       0.000000
      0.000180       0.000447       0.000000
      0.000007       0.000716       0.000000
     -0.000115       0.000325       0.000000
      0.000180       0.000447       0.000000
      0.000373       0.000798       0.000000
      0.000223       0.001178       0.000000
      0.000007       0.000716       0.000000
     -0.000115       0.000325       0.000000
      0.000007       0.000716       0.000000
      0.000010       0.000744       0.000000
     -0.000135       0.000371       0.000000
      0.000007       0.000716       0.000000
      0.000223       0.001178       0.000000
      0.000263       0.001136       0.000000
      0.000010       0.000744       0.000000
     -0.000440       0.000953       0.000000
     -0.000203       0.000460       0.000000
     -0.000105       0.000394       0.000000
     -0.000327       0.000840       0.000000
     -0.000203       0.000460       0.000000
     -0.000131       0.000146       0.000000
     -0.000071       0.000123       0.000000
     -0.000105       0.000394       0.000000
     -0.000327       0.000840       0.000000
     -0.000105       0.000394       0.000000
     -0.000037       0.000289       0.000000
     -0.000256       0.000643       0.000000
     -0.000105       0.000394       0.000000
     -0.000071       0.000123       0.000000
     -0.000028       0.000092       0.000000
     -0.000037       0.000289       0.000000
     -0.000131       0.000146       0.000000
     -0.000153       0.000126       0.000000
     -0.000134       0.000123       0.000000
     -0.000071       0.000123       0.000000
     -0.000153       0.000126       0.000000
     -0.000135       0.000371       0.000000
     -0.000121       0.000342       0.000000
     -0.000134       0.000123       0.000000
     -0.000071       0.000123       0.000000
     -0.000134       0.000123       0.000000
     -0.000106       0.000099       0.000000
     -0.000028       0.000092       0.000000
     -0.000134       0.000123       0.000000
     -0.000121       0.000342       0.000000
     -0.000093       0.000257       0.000000
     -0.000106       0.000099       0.000000
     -0.000135       0.000371       0.000000
      0.000010       0.000744       0.000000
      0.000038       0.000632       0.000000
     -0.000121       0.000342       0.000000
      0.000010       0.000744       0.000000
      0.000263       0.001136       0.000000
      0.000308       0.000933       0.000000
      0.000038       0.000632       0.000000
     -0.000121       0.000342       0.000000
      0.000038       0.000632       0.000000
      0.000057       0.000446       0.000000
     -0.000093       0.000257       0.000000
      0.000038       0.000632       0.000000
      0.000308       0.000933       0.000000
      0.000316       0.000667       0.000000
      0.000057       0.000446       0.000000
     -0.000256       0.000643       0.000000
     -0.000037       0.000289       0.000000
      0.000001       0.000153       0.000000
     -0.000199       0.000360       0.000000
     -0.000037       0.000289       0.000000
     -0.000028       0.000092       0.000000
     -0.000003       0.000051       0.000000
      0.000001       0.000153       0.000000
     -0.000199       0.000360       0.000000
      0.000001       0.000153       0.000000
      0.000000       0.000000       0.000000
      0.000000       0.000000       0.000000
      0.000001       0.000153       0.000000
     -0.000003       0.000051       0.000000
      0.000000       0.000000       0.000000
      0.000000       0.000000       0.000000
     -0.000028       0.000092       0.000000
     -0.000106       0.000099       0.000000
     -0.000065       0.000058       0.000000
     -0.000003       0.000051       0.000000
     -0.000106       0.000099       0.000000
     -0.000093       0.000257       0.000000
     -0.000052       0.000136       0.000000
     -0.000065       0.000058       0.000000
     -0.000003       0.000051       0.000000
     -0.000065       0.000058       0.000000
      0.000000       0.000000       0.000000
      0.000000       0.000000       0.000000
     -0.000065       0.000058       0.000000
     -0.000052       0.000136       0.000000
      0.000000       0.000000       0.000000
      0.000000       0.000000       0.000000
     -0.000093       0.000257       0.000000
      0.000057       0.000446       0.000000
      0.000049       0.000226       0.000000
     -0.000052       0.000136       0.000000
      0.000057       0.000446       0.000000
      0.000316       0.000667       0.000000
      0.000256       0.000367       0.000000
      0.000049       0.000226       0.000000
     -0.000052       0.000136       0.000000
      0.000049       0.000226       0.000000
      0.000000       0.000000       0.000000
      0.000000       0.000000       0.000000
      0.000049       0.000226       0.000000
      0.000256       0.000367       0.000000
      0.000000       0.000000       0.000000
      0.000000       0.000000       0.000000
     -0.000968       0.000740       0.000000
     -0.001310       0.001242       0.000000
     -0.001069       0.001504       0.000000
     -0.000608       0.000966       0.000000
     -0.001310       0.001242       0.000000
     -0.001616       0.001974       0.000000
     -0.001645       0.002198       0.000000
     -0.001069       0.001504       0.000000
     -0.000608       0.000966       0.000000
     -0.001069       0.001504       0.000000
     -0.000924       0.001547       0.000000