# vtk DataFile Version 2.0
time_10.vtk
ASCII
DATASET UNSTRUCTURED_GRID
POINTS   576 float
      0.458579       0.641421       0.000000
      0.497369       0.671659       0.000000
      0.438243       0.730363       0.000000
      0.382149       0.701184       0.000000
      0.497369       0.671659       0.000000
      0.545805       0.692517       0.000000
      0.506084       0.750000       0.000000
      0.438243       0.730363       0.000000
      0.382149       0.701184       0.000000
      0.438243       0.730363       0.000000
      0.380813       0.787383       0.000000
      0.305719       0.760948       0.000000
      0.438243       0.730363       0.000000
      0.506084       0.750000       0.000000
      0.468251       0.804752       0.000000
      0.380813       0.787383       0.000000
      0.545805       0.692517       0.000000
      0.600000       0.700000       0.000000
      0.581017       0.756950       0.000000
      0.506084       0.750000       0.000000
      0.600000       0.700000       0.000000
      0.654195       0.692517       0.000000
      0.656527       0.750000       0.000000
      0.581017       0.756950       0.000000
      0.506084       0.750000       0.000000
      0.581017       0.756950       0.000000
      0.563060       0.810819       0.000000
      0.468251       0.804752       0.000000
      0.581017       0.756950       0.000000
      0.656527       0.750000       0.000000
      0.658747       0.804752       0.000000
      0.563060       0.810819       0.000000
      0.654195       0.692517       0.000000
      0.702631       0.671659       0.000000
      0.725999       0.730363       0.000000
      0.656527       0.750000       0.000000
      0.702631       0.671659       0.000000
      0.741421       0.641421       0.000000
      0.784518       0.701184       0.000000
      0.725999       0.730363       0.000000
      0.656527       0.750000       0.000000
      0.725999       0.730363       0.000000
      0.748697       0.787383       0.000000
      0.658747       0.804752       0.000000
      0.725999       0.730363       0.000000
      0.784518       0.701184       0.000000
      0.827614       0.760948       0.000000
      0.748697       0.787383       0.000000
      0.305719       0.760948       0.000000
      0.380813       0.787383       0.000000
      0.325006       0.842791       0.000000
      0.229289       0.820711       0.000000
      0.380813       0.787383       0.000000
      0.468251       0.804752       0.000000
      0.432173       0.856962       0.000000
      0.325006       0.842791       0.000000
      0.229289       0.820711       0.000000
      0.325006       0.842791       0.000000
      0.270755       0.896655       0.000000
      0.152860       0.880474       0.000000
      0.325006       0.842791       0.000000
      0.432173       0.856962       0.000000
      0.397732       0.906804       0.000000
      0.270755       0.896655       0.000000
      0.468251       0.804752       0.000000
      0.563060       0.810819       0.000000
      0.546050       0.861851       0.000000
      0.432173       0.856962       0.000000
      0.563060       0.810819       0.000000
      0.658747       0.804752       0.000000
      0.660865       0.856962       0.000000
      0.546050       0.861851       0.000000
      0.432173       0.856962       0.000000
      0.546050       0.861851       0.000000
      0.529912       0.910264       0.000000
      0.397732       0.906804       0.000000
      0.546050       0.861851       0.000000
      0.660865       0.856962       0.000000
      0.662887       0.906804       0.000000
      0.529912       0.910264       0.000000
      0.658747       0.804752       0.000000
      0.748697       0.787383       0.000000
      0.770753       0.842791       0.000000
      0.660865       0.856962       0.000000
      0.748697       0.787383       0.000000
      0.827614       0.760948       0.000000
      0.870711       0.820711       0.000000
      0.770753       0.842791       0.000000
      0.660865       0.856962       0.000000
      0.770753       0.842791       0.000000
      0.792195       0.896655       0.000000
      0.662887       0.906804       0.000000
      0.770753       0.842791       0.000000
      0.870711       0.820711       0.000000
      0.913807       0.880474       0.000000
      0.792195       0.896655       0.000000
      0.152860       0.880474       0.000000
      0.270755       0.896655       0.000000
      0.217995       0.949038       0.000000
      0.076430       0.940237       0.000000
      0.270755       0.896655       0.000000
      0.397732       0.906804       0.000000
      0.364819       0.954435       0.000000
      0.217995       0.949038       0.000000
      0.076430       0.940237       0.000000
      0.217995       0.949038       0.000000
      0.166667       1.000000       0.000000
      0.000000       1.000000       0.000000
      0.217995       0.949038       0.000000
      0.364819       0.954435       0.000000
      0.333333       1.000000       0.000000
      0.166667       1.000000       0.000000
      0.397732       0.906804       0.000000
      0.529912       0.910264       0.000000
      0.514582       0.956255       0.000000
      0.364819       0.954435       0.000000
      0.529912       0.910264       0.000000
      0.662887       0.906804       0.000000
      0.664819       0.954435       0.000000
      0.514582       0.956255       0.000000
      0.364819       0.954435       0.000000
      0.514582       0.956255       0.000000
      0.500000       1.000000       0.000000
      0.333333       1.000000       0.000000
      0.514582       0.956255       0.000000
      0.664819       0.954435       0.000000
      0.666667       1.000000       0.000000
      0.500000       1.000000       0.000000
      0.662887       0.906804       0.000000
      0.792195       0.896655       0.000000
      0.813047       0.949038       0.000000
      0.664819       0.954435       0.000000
      0.792195       0.896655       0.000000
      0.913807       0.880474       0.000000
      0.956904       0.940237       0.000000
      0.813047       0.949038       0.000000
      0.664819       0.954435       0.000000
      0.813047       0.949038       0.000000
      0.833333       1.000000       0.000000
      0.666667       1.000000       0.000000
      0.813047       0.949038       0.000000
      0.956904       0.940237       0.000000
      1.000000       1.000000       0.000000
      0.833333       1.000000       0.000000
      0.458579       0.358579       0.000000
      0.428341       0.397369       0.000000
      0.351758       0.356122       0.000000
      0.382149       0.298816       0.000000
      0.428341       0.397369       0.000000
      0.407483       0.445805       0.000000
      0.331305       0.424779       0.000000
      0.351758       0.356122       0.000000
      0.382149       0.298816       0.000000
      0.351758       0.356122       0.000000
      0.277372       0.316058       0.000000
      0.305719       0.239052       0.000000
      0.351758       0.356122       0.000000
      0.331305       0.424779       0.000000
      0.258747       0.404752       0.000000
      0.277372       0.316058       0.000000
      0.407483       0.445805       0.000000
      0.400000       0.500000       0.000000
      0.324066       0.500000       0.000000
      0.331305       0.424779       0.000000
      0.400000       0.500000       0.000000
      0.407483       0.554195       0.000000
      0.331305       0.575221       0.000000
      0.324066       0.500000       0.000000
      0.331305       0.424779       0.000000
      0.324066       0.500000       0.000000
      0.252241       0.500000       0.000000
      0.258747       0.404752       0.000000
      0.324066       0.500000       0.000000
      0.331305       0.575221       0.000000
      0.258747       0.595248       0.000000
      0.252241       0.500000       0.000000
      0.407483       0.554195       0.000000
      0.428341       0.602631       0.000000
      0.351758       0.643878       0.000000
      0.331305       0.575221       0.000000
      0.428341       0.602631       0.000000
      0.458579       0.641421       0.000000
      0.382149       0.701184       0.000000
      0.351758       0.643878       0.000000
      0.331305       0.575221       0.000000
      0.351758       0.643878       0.000000
      0.277372       0.683942       0.000000
      0.258747       0.595248       0.000000
      0.351758       0.643878       0.000000
      0.382149       0.701184       0.000000
      0.305719       0.760948       0.000000
      0.277372       0.683942       0.000000
      0.305719       0.239052       0.000000
      0.277372       0.316058       0.000000
      0.205089       0.277126       0.000000
      0.229289       0.179289       0.000000
      0.277372       0.316058       0.000000
      0.258747       0.404752       0.000000
      0.189557       0.385654       0.000000
      0.205089       0.277126       0.000000
      0.229289       0.179289       0.000000
      0.205089       0.277126       0.000000
      0.134820       0.239280       0.000000
      0.152860       0.119526       0.000000
      0.205089       0.277126       0.000000
      0.189557       0.385654       0.000000
      0.123505       0.367423       0.000000
      0.134820       0.239280       0.000000
      0.258747       0.404752       0.000000
      0.252241       0.500000       0.000000
      0.184198       0.500000       0.000000
      0.189557       0.385654       0.000000
      0.252241       0.500000       0.000000
      0.258747       0.595248       0.000000
      0.189557       0.614346       0.000000
      0.184198       0.500000       0.000000
      0.189557       0.385654       0.000000
      0.184198       0.500000       0.000000
      0.119648       0.500000       0.000000
      0.123505       0.367423       0.000000
[...]
POINT_DATA   576
VECTORS U float 
      0.000393       0.005100       0.000000
      0.000202       0.005462       0.000000
      0.000034       0.005189       0.000000
      0.000258       0.004730       0.000000
      0.000202       0.005462       0.000000
      0.000003       0.005703       0.000000
     -0.000114       0.005598       0.000000
      0.000034       0.005189       0.000000
      0.000258       0.004730       0.000000
      0.000034       0.005189       0.000000
      0.000059       0.005163       0.000000
      0.000326       0.004776       0.000000
      0.000034       0.005189       0.000000
     -0.000114       0.005598       0.000000
     -0.000128       0.005555       0.000000
      0.000059       0.005163       0.000000
      0.000003       0.005703       0.000000
     -0.000204       0.005802       0.000000
     -0.000192       0.005827       0.000000
     -0.000114       0.005598       0.000000
     -0.000204       0.005802       0.000000
     -0.000430       0.005751       0.000000
     -0.000267       0.005788       0.000000
     -0.000192       0.005827       0.000000
     -0.000114       0.005598       0.000000
     -0.000192       0.005827       0.000000
     -0.000191       0.005824       0.000000
     -0.000128       0.005555       0.000000
     -0.000192       0.005827       0.000000
     -0.000267       0.005788       0.000000
     -0.000202       0.005814       0.000000
     -0.000191       0.005824       0.000000
     -0.000430       0.005751       0.000000
     -0.000685       0.005551       0.000000
     -0.000405       0.005484       0.000000
     -0.000267       0.005788       0.000000
     -0.000685       0.005551       0.000000
     -0.000964       0.005217       0.000000
     -0.000648       0.005017       0.000000
     -0.000405       0.005484       0.000000
     -0.000267       0.005788       0.000000
     -0.000405       0.005484       0.000000
     -0.000291       0.005507       0.000000
     -0.000202       0.005814       0.000000
     -0.000405       0.005484       0.000000
     -0.000648       0.005017       0.000000
     -0.000519       0.005045       0.000000
     -0.000291       0.005507       0.000000
      0.000326       0.004776       0.000000
      0.000059       0.005163       0.000000
      0.000122       0.005273       0.000000
      0.000426       0.004980       0.000000
      0.000059       0.005163       0.000000
     -0.000128       0.005555       0.000000
     -0.000108       0.005589       0.000000
      0.000122       0.005273       0.000000
      0.000426       0.004980       0.000000
      0.000122       0.005273       0.000000
      0.000199       0.005464       0.000000
      0.000543       0.005259       0.000000
      0.000122       0.005273       0.000000
     -0.000108       0.005589       0.000000
     -0.000077       0.005682       0.000000
      0.000199       0.005464       0.000000
     -0.000128       0.005555       0.000000
     -0.000191       0.005824       0.000000
     -0.000185       0.005839       0.000000
     -0.000108       0.005589       0.000000
     -0.000191       0.005824       0.000000
     -0.000202       0.005814       0.000000
     -0.000167       0.005849       0.000000
     -0.000185       0.005839       0.000000
     -0.000108       0.005589       0.000000
     -0.000185       0.005839       0.000000
     -0.000178       0.005875       0.000000
     -0.000077       0.005682       0.000000
     -0.000185       0.005839       0.000000
     -0.000167       0.005849       0.000000
     -0.000147       0.005892       0.000000
     -0.000178       0.005875       0.000000
     -0.000202       0.005814       0.000000
     -0.000291       0.005507       0.000000
     -0.000231       0.005578       0.000000
     -0.000167       0.005849       0.000000
     -0.000291       0.005507       0.000000
     -0.000519       0.005045       0.000000
     -0.000448       0.005163       0.000000
     -0.000231       0.005578       0.000000
     -0.000167       0.005849       0.000000
     -0.000231       0.005578       0.000000
     -0.000199       0.005684       0.000000
     -0.000147       0.005892       0.000000
     -0.000231       0.005578       0.000000
     -0.000448       0.005163       0.000000
     -0.000429       0.005356       0.000000
     -0.000199       0.005684       0.000000
      0.000543       0.005259       0.000000
      0.000199       0.005464       0.000000
      0.000294       0.005708       0.000000
      0.000695       0.005591       0.000000
      0.000199       0.005464       0.000000
     -0.000077       0.005682       0.000000
     -0.000038       0.005819       0.000000
      0.000294       0.005708       0.000000
      0.000695       0.005591       0.000000
      0.000294       0.005708       0.000000
      0.000417       0.005992       0.000000
      0.000906       0.005992       0.000000
      0.000294       0.005708       0.000000
     -0.000038       0.005819       0.000000
      0.000014       0.005992       0.000000
      0.000417       0.005992       0.000000
     -0.000077       0.005682       0.000000
     -0.000178       0.005875       0.000000
     -0.000174       0.005926       0.000000
     -0.000038       0.005819       0.000000
     -0.000178       0.005875       0.000000
     -0.000147       0.005892       0.000000
     -0.000135       0.005941       0.000000
     -0.000174       0.005926       0.000000
     -0.000038       0.005819       0.000000
     -0.000174       0.005926       0.000000
     -0.000170       0.005992       0.000000
      0.000014       0.005992       0.000000
     -0.000174       0.005926       0.000000
     -0.000135       0.005941       0.000000
     -0.000132       0.005992       0.000000
     -0.000170       0.005992       0.000000
     -0.000147       0.005892       0.000000
     -0.000199       0.005684       0.000000
     -0.000189       0.005822       0.000000
     -0.000135       0.005941       0.000000
     -0.000199       0.005684       0.000000
     -0.000429       0.005356       0.000000
     -0.000466       0.005632       0.000000
     -0.000189       0.005822       0.000000
     -0.000135       0.005941       0.000000
     -0.000189       0.005822       0.000000
     -0.000203       0.005992       0.000000
     -0.000132       0.005992       0.000000
     -0.000189       0.005822       0.000000
     -0.000466       0.005632       0.000000
     -0.000561       0.005992       0.000000
     -0.000203       0.005992       0.000000
      0.000343       0.000770       0.000000
      0.000522       0.001245       0.000000
      0.000508       0.001640       0.000000
      0.000207       0.001124       0.000000
      0.000522       0.001245       0.000000
      0.000663       0.001932       0.000000
      0.000844       0.002256       0.000000
      0.000508       0.001640       0.000000
      0.000207       0.001124       0.000000
      0.000508       0.001640       0.000000
      0.000579       0.001644       0.000000
      0.000247       0.001075       0.000000
      0.000508       0.001640       0.000000
      0.000844       0.002256       0.000000
      0.000953       0.002297       0.000000
      0.000579       0.001644       0.000000
      0.000663       0.001932       0.000000
      0.000702       0.002912       0.000000
      0.001024       0.002926       0.000000
      0.000844       0.002256       0.000000
      0.000702       0.002912       0.000000
      0.000689       0.003903       0.000000
      0.000878       0.003593       0.000000
      0.001024       0.002926       0.000000
      0.000844       0.002256       0.000000
      0.001024       0.002926       0.000000
      0.001147       0.002936       0.000000
      0.000953       0.002297       0.000000
      0.001024       0.002926       0.000000
      0.000878       0.003593       0.000000
      0.000989       0.003567       0.000000
      0.001147       0.002936       0.000000
      0.000689       0.003903       0.000000
      0.000569       0.004604       0.000000
      0.000560       0.004206       0.000000
      0.000878       0.003593       0.000000
      0.000569       0.004604       0.000000
      0.000393       0.005100       0.000000
      0.000258       0.004730       0.000000
      0.000560       0.004206       0.000000
      0.000878       0.003593       0.000000
      0.000560       0.004206       0.000000
      0.000643       0.004207       0.000000
      0.000989       0.003567       0.000000
      0.000560       0.004206       0.000000
      0.000258       0.004730       0.000000
      0.000326       0.004776       0.000000
      0.000643       0.004207       0.000000
      0.000247       0.001075       0.000000
      0.000579       0.001644       0.000000
      0.000660       0.001535       0.000000
      0.000291       0.000879       0.000000
      0.000579       0.001644       0.000000
      0.000953       0.002297       0.000000
      0.001060       0.002260       0.000000
      0.000660       0.001535       0.000000
      0.000291       0.000879       0.000000
      0.000660       0.001535       0.000000
      0.000735       0.001410       0.000000
      0.000299       0.000625       0.000000
      0.000660       0.001535       0.000000
      0.001060       0.002260       0.000000
      0.001170       0.002218       0.000000
      0.000735       0.001410       0.000000
      0.000953       0.002297       0.000000
      0.001147       0.002936       0.000000
      0.001260       0.002947       0.000000
      0.001060       0.002260       0.000000
      0.001147       0.002936       0.000000
      0.000989       0.003567       0.000000
      0.001099       0.003626       0.000000
      0.001260       0.002947       0.000000
      0.001060       0.002260       0.000000
      0.001260       0.002947       0.000000
      0.001382       0.002960       0.000000
      0.001170       0.002218       0.000000
      0.001260       0.002947       0.000000
      0.001099       0.003626       0.000000
      0.001212       0.003697       0.000000
      0.001382       0.002960       0.000000
      0.000989       0.003567       0.000000
      0.000643       0.004207       0.000000
      0.000744       0.004332       0.000000
      0.001099       0.003626       0.000000
      0.000643       0.004207       0.000000
      0.000326       0.004776       0.000000
      0.000426       0.004980       0.000000
      0.000744       0.004332       0.000000
      0.001099       0.003626       0.000000
      0.000744       0.004332       0.000000
      0.000845       0.004489       0.000000
      0.001212       0.003697       0.000000
      0.000744       0.004332       0.000000
      0.000426       0.004980       0.000000
      0.000543       0.005259       0.000000
      0.000845       0.004489       0.000000
      0.000299       0.000625       0.000000
      0.000735       0.001410       0.000000
      0.000799       0.001316       0.000000
      0.000242       0.000343       0.000000
      0.000735       0.001410       0.000000
      0.001170       0.002218       0.000000
      0.001273       0.002203       0.000000
      0.000799       0.001316       0.000000
      0.000242       0.000343       0.000000
      0.000799       0.001316       0.000000
      0.000856       0.001273       0.000000
      0.000000       0.000000       0.000000
      0.000799       0.001316       0.000000
      0.001273       0.002203       0.000000
      0.001365       0.002238       0.000000
      0.000856       0.001273       0.000000
      0.001170       0.002218       0.000000
      0.001382       0.002960       0.000000
      0.001506       0.002973       0.000000
      0.001273       0.002203       0.000000
      0.001382       0.002960       0.000000
      0.001212       0.003697       0.000000
      0.001323       0.003747       0.000000
      0.001506       0.002973       0.000000
      0.001273       0.002203       0.000000
      0.001506       0.002973       0.000000
      0.001619       0.002983       0.000000
      0.001365       0.002238       0.000000
      0.001506       0.002973       0.000000
      0.001323       0.003747       0.000000
      0.001426       0.003744       0.000000
      0.001619       0.002983       0.000000
      0.001212       0.003697       0.000000
      0.000845       0.004489       0.000000
      0.000948       0.004640       0.000000
      0.001323       0.003747       0.000000
      0.000845       0.004489       0.000000
      0.000543       0.005259       0.000000
      0.000695       0.005591       0.000000
      0.000948       0.004640       0.000000
      0.001323       0.003747       0.000000
      0.000948       0.004640       0.000000
      0.001065       0.004774       0.000000
      0.001426       0.003744       0.000000
      0.000948       0.004640       0.000000
      0.000695       0.005591       0.000000
      0.000906       0.005992       0.000000
      0.001065       0.004774       0.000000
     -0.000906       0.000720       0.000000
     -0.000622       0.000387       0.000000
     -0.000332       0.000459       0.000000
     -0.000574       0.000929       0.000000
     -0.000622       0.000387       0.000000
     -0.000377       0.000190       0.000000
     -0.000209       0.000161       0.000000
     -0.000332       0.000459       0.000000
     -0.000574       0.000929       0.000000
     -0.000332       0.000459       0.000000
     -0.000194       0.000444       0.000000
     -0.000420       0.000909       0.000000
     -0.000332       0.000459       0.000000
     -0.000209       0.000161       0.000000
     -0.000125       0.000145       0.000000
     -0.000194       0.000444       0.000000
     -0.000377       0.000190       0.000000
     -0.000178       0.000136       0.000000
     -0.000158       0.000117       0.000000
     -0.000209       0.000161       0.000000
     -0.000178       0.000136       0.000000
     -0.000007       0.000218       0.000000
     -0.000112       0.000315       0.000000
     -0.000158       0.000117       0.000000
     -0.000209       0.000161       0.000000
     -0.000158       0.000117       0.000000
     -0.000146       0.000126       0.000000
     -0.000125       0.000145       0.000000
     -0.000158       0.000117       0.000000
     -0.000112       0.000315       0.000000
     -0.000128       0.000358       0.000000
     -0.000146       0.000126       0.000000
     -0.000007       0.000218       0.000000
      0.000165       0.000433       0.000000
      0.000003       0.000688       0.000000
     -0.000112       0.000315       0.000000
      0.000165       0.000433       0.000000
      0.000343       0.000770       0.000000
      0.000207       0.001124       0.000000
      0.000003       0.000688       0.000000
     -0.000112       0.000315       0.000000
      0.000003       0.000688       0.000000
      0.000009       0.000710       0.000000
     -0.000128       0.000358       0.000000
      0.000003       0.000688       0.000000
      0.000207       0.001124       0.000000
      0.000247       0.001075       0.000000
      0.000009       0.000710       0.000000
     -0.000420       0.000909       0.000000
     -0.000194       0.000444       0.000000
     -0.000103       0.000378       0.000000
     -0.000316       0.000796       0.000000
     -0.000194       0.000444       0.000000
     -0.000125       0.000145       0.000000
     -0.000068       0.000122       0.000000
     -0.000103       0.000378       0.000000
     -0.000316       0.000796       0.000000
     -0.000103       0.000378       0.000000
     -0.000038       0.000276       0.000000
     -0.000248       0.000608       0.000000
     -0.000103       0.000378       0.000000
     -0.000068       0.000122       0.000000
     -0.000028       0.000090       0.000000
     -0.000038       0.000276       0.000000
     -0.000125       0.000145       0.000000
     -0.000146       0.000126       0.000000
     -0.000127       0.000121       0.000000
     -0.000068       0.000122       0.000000
     -0.000146       0.000126       0.000000
     -0.000128       0.000358       0.000000
     -0.000114       0.000328       0.000000
     -0.000127       0.000121       0.000000
     -0.000068       0.000122       0.000000
     -0.000127       0.000121       0.000000
     -0.000101       0.000097       0.000000
     -0.000028       0.000090       0.000000
     -0.000127       0.000121       0.000000
     -0.000114       0.000328       0.000000
     -0.000087       0.000246       0.000000
     -0.000101       0.000097       0.000000
     -0.000128       0.000358       0.000000
      0.000009       0.000710       0.000000
      0.000038       0.000600       0.000000
     -0.000114       0.000328       0.000000
      0.000009       0.000710       0.000000
      0.000247       0.001075       0.000000
      0.000291       0.000879       0.000000
      0.000038       0.000600       0.000000
     -0.000114       0.000328       0.000000
      0.000038       0.000600       0.000000
      0.000056       0.000422       0.000000
     -0.000087       0.000246       0.000000
      0.000038       0.000600       0.000000
      0.000291       0.000879       0.000000
      0.000299       0.000625       0.000000
      0.000056       0.000422       0.000000
     -0.000248       0.000608       0.000000
     -0.000038       0.000276       0.000000
     -0.000001       0.000146       0.000000
     -0.000191       0.000341       0.000000
     -0.000038       0.000276       0.000000
     -0.000028       0.000090       0.000000
     -0.000004       0.000050       0.000000
     -0.000001       0.000146       0.000000
     -0.000191       0.000341       0.000000
     -0.000001       0.000146       0.000000
      0.000000       0.000000       0.000000
      0.000000       0.000000       0.000000
     -0.000001       0.000146       0.000000
     -0.000004       0.000050       0.000000
      0.000000       0.000000       0.000000
      0.000000       0.000000       0.000000
     -0.000028       0.000090       0.000000
     -0.000101       0.000097       0.000000
     -0.000062       0.000056       0.000000
     -0.000004       0.000050       0.000000
     -0.000101       0.000097       0.000000
     -0.000087       0.000246       0.000000
     -0.000048       0.000130       0.000000
     -0.000062       0.000056       0.000000
     -0.000004       0.000050       0.000000
     -0.000062       0.000056       0.000000
      0.000000       0.000000       0.000000
      0.000000       0.000000       0.000000
     -0.000062       0.000056       0.000000
     -0.000048       0.000130       0.000000
      0.000000       0.000000       0.000000
      0.000000       0.000000       0.000000
     -0.000087       0.000246       0.000000
      0.000056       0.000422       0.000000
      0.000048       0.000213       0.000000
     -0.000048       0.000130       0.000000
      0.000056       0.000422       0.000000
      0.000299       0.000625       0.000000
      0.000242       0.000343       0.000000
      0.000048       0.000213       0.000000
     -0.000048       0.000130       0.000000
      0.000048       0.000213       0.000000
      0.000000       0.000000       0.000000
      0.000000       0.000000       0.000000
      0.000048       0.000213       0.000000
      0.000242       0.000343       0.000000
      0.000000       0.000000       0.000000
      0.000000       0.000000       0.000000
     -0.000906       0.000720       0.000000
     -0.001217       0.001204       0.000000
     -0.001002       0.001441       0.000000
     -0.000574       0.000929       0.000000
     -0.001217       0.001204       0.000000
     -0.001491       0.001911       0.000000
     -0.001528       0.002099       0.000000
     -0.001002       0.001441       0.000000
     -0.000574       0.000929       0.000000
     -0.001002       0.001441       0.000000
     -0.000872       0.001470       0.000000