# vtk DataFile Version 2.0
time_10.vtk
ASCII
DATASET UNSTRUCTURED_GRID
POINTS   792 float
      0.458579       0.641421       0.000000
      0.497369       0.671659       0.000000
      0.438243       0.730363       0.000000
      0.382149       0.701184       0.000000
      0.497369       0.671659       0.000000
      0.545805       0.692517       0.000000
      0.506084       0.750000       0.000000
      0.438243       0.730363       0.000000
      0.382149       0.701184       0.000000
      0.438243       0.730363       0.000000
      0.380813       0.787383       0.000000
      0.305719       0.760948       0.000000
      0.438243       0.730363       0.000000
      0.506084       0.750000       0.000000
      0.468251       0.804752       0.000000
      0.380813       0.787383       0.000000
      0.545805       0.692517       0.000000
      0.600000       0.700000       0.000000
      0.581017       0.756950       0.000000
      0.506084       0.750000       0.000000
      0.600000       0.700000       0.000000
      0.654195       0.692517       0.000000
      0.656527       0.750000       0.000000
      0.581017       0.756950       0.000000
      0.506084       0.750000       0.000000
      0.581017       0.756950       0.000000
      0.563060       0.810819       0.000000
      0.468251       0.804752       0.000000
      0.581017       0.756950       0.000000
      0.656527       0.750000       0.000000
      0.658747       0.804752       0.000000
      0.563060       0.810819       0.000000
      0.654195       0.692517       0.000000
      0.702631       0.671659       0.000000
      0.725999       0.730363       0.000000
      0.656527       0.750000       0.000000
      0.702631       0.671659       0.000000
      0.741421       0.641421       0.000000
      0.784518       0.701184       0.000000
      0.725999       0.730363       0.000000
      0.656527       0.750000       0.000000
      0.725999       0.730363       0.000000
      0.748697       0.787383       0.000000
      0.658747       0.804752       0.000000
      0.725999       0.730363       0.000000
      0.784518       0.701184       0.000000
      0.827614       0.760948       0.000000
      0.748697       0.787383       0.000000
      0.305719       0.760948       0.000000
      0.380813       0.787383       0.000000
      0.325006       0.842791       0.000000
      0.229289       0.820711       0.000000
      0.380813       0.787383       0.000000
      0.468251       0.804752       0.000000
      0.432173       0.856962       0.000000
      0.325006       0.842791       0.000000
      0.229289       0.820711       0.000000
      0.325006       0.842791       0.000000
      0.270755       0.896655       0.000000
      0.152860       0.880474       0.000000
      0.325006       0.842791       0.000000
      0.432173       0.856962       0.000000
      0.397732       0.906804       0.000000
      0.270755       0.896655       0.000000
      0.468251       0.804752       0.000000
      0.563060       0.810819       0.000000
      0.546050       0.861851       0.000000
      0.432173       0.856962       0.000000
      0.563060       0.810819       0.000000
      0.658747       0.804752       0.000000
      0.660865       0.856962       0.000000
      0.546050       0.861851       0.000000
      0.432173       0.856962       0.000000
      0.546050       0.861851       0.000000
      0.529912       0.910264       0.000000
      0.397732       0.906804       0.000000
      0.546050       0.861851       0.000000
      0.660865       0.856962       0.000000
      0.662887       0.906804       0.000000
      0.529912       0.910264       0.000000
      0.658747       0.804752       0.000000
      0.748697       0.787383       0.000000
      0.770753       0.842791       0.000000
      0.660865       0.856962       0.000000
      0.748697       0.787383       0.000000
      0.827614       0.760948       0.000000
      0.870711       0.820711       0.000000
      0.770753       0.842791       0.000000
      0.660865       0.856962       0.000000
      0.770753       0.842791       0.000000
      0.792195       0.896655       0.000000
      0.662887       0.906804       0.000000
      0.770753       0.842791       0.000000
      0.870711       0.820711       0.000000
      0.913807       0.880474       0.000000
      0.792195       0.896655       0.000000
      0.152860       0.880474       0.000000
      0.270755       0.896655       0.000000
      0.217995       0.949038       0.000000
      0.076430       0.940237       0.000000
      0.270755       0.896655       0.000000
      0.397732       0.906804       0.000000
      0.364819       0.954435       0.000000
      0.217995       0.949038       0.000000
      0.076430       0.940237       0.000000
      0.217995       0.949038       0.000000
      0.166667       1.000000       0.000000
      0.000000       1.000000       0.000000
      0.217995       0.949038       0.000000
      0.364819       0.954435       0.000000
      0.333333       1.000000       0.000000
      0.166667       1.000000       0.000000
      0.397732       0.906804       0.000000
      0.529912       0.910264       0.000000
      0.514582       0.956255       0.000000
      0.364819       0.954435       0.000000
      0.529912       0.910264       0.000000
      0.662887       0.906804       0.000000
      0.664819       0.954435       0.000000
      0.514582       0.956255       0.000000
      0.364819       0.954435       0.000000
      0.514582       0.956255       0.000000
      0.500000       1.000000       0.000000
      0.333333       1.000000       0.000000
      0.514582       0.956255       0.000000
      0.664819       0.954435       0.000000
      0.666667       1.000000       0.000000
      0.500000       1.000000       0.000000
      0.662887       0.906804       0.000000
      0.792195       0.896655       0.000000
      0.813047       0.949038       0.000000
      0.664819       0.954435       0.000000
      0.792195       0.896655       0.000000
      0.913807       0.880474       0.000000
      0.956904       0.940237       0.000000
      0.813047       0.949038       0.000000
      0.664819       0.954435       0.000000
      0.813047       0.949038       0.000000
      0.833333       1.000000       0.000000
      0.666667       1.000000       0.000000
      0.813047       0.949038       0.000000
      0.956904       0.940237       0.000000
      1.000000       1.000000       0.000000
      0.833333       1.000000       0.000000
      0.458579       0.358579       0.000000
      0.428341       0.397369       0.000000
      0.351758       0.356122       0.000000
      0.382149       0.298816       0.000000
      0.428341       0.397369       0.000000
      0.407483       0.445805       0.000000
      0.331305       0.424779       0.000000
      0.351758       0.356122       0.000000
      0.382149       0.298816       0.000000
      0.351758       0.356122       0.000000
      0.277372       0.316058       0.000000
      0.305719       0.239052       0.000000
      0.351758       0.356122       0.000000
      0.331305       0.424779       0.000000
      0.258747       0.404752       0.000000
      0.277372       0.316058       0.000000
      0.407483       0.445805       0.000000
      0.400000       0.500000       0.000000
      0.324066       0.500000       0.000000
      0.331305       0.424779       0.000000
      0.400000       0.500000       0.000000
      0.407483       0.554195       0.000000
      0.331305       0.575221       0.000000
      0.324066       0.500000       0.000000
      0.331305       0.424779       0.000000
      0.324066       0.500000       0.000000
      0.252241       0.500000       0.000000
      0.258747       0.404752       0.000000
      0.324066       0.500000       0.000000
      0.331305       0.575221       0.000000
      0.258747       0.595248       0.000000
      0.252241       0.500000       0.000000
      0.407483       0.554195       0.000000
      0.428341       0.602631       0.000000
      0.351758       0.643878       0.000000
      0.331305       0.575221       0.000000
      0.428341       0.602631       0.000000
      0.458579       0.641421       0.000000
      0.382149       0.701184       0.000000
      0.351758       0.643878       0.000000
      0.331305       0.575221       0.000000
      0.351758       0.643878       0.000000
      0.277372       0.683942       0.000000
      0.258747       0.595248       0.000000
      0.351758       0.643878       0.000000
      0.382149       0.701184       0.000000
      0.305719       0.760948       0.000000
      0.277372       0.683942       0.000000
      0.305719       0.239052       0.000000
      0.277372       0.316058       0.000000
      0.205089       0.277126       0.000000
      0.229289       0.179289       0.000000
      0.277372       0.316058       0.000000
      0.258747       0.404752       0.000000
      0.189557       0.385654       0.000000
      0.205089       0.277126       0.000000
      0.229289       0.179289       0.000000
      0.205089       0.277126       0.000000
      0.134820       0.239280       0.000000
      0.152860       0.119526       0.000000
      0.205089       0.277126       0.000000
      0.189557       0.385654       0.000000
      0.123505       0.367423       0.000000
      0.134820       0.239280       0.000000
      0.258747       0.404752       0.000000
      0.252241       0.500000       0.000000
      0.184198       0.500000       0.000000
      0.189557       0.385654       0.000000
      0.252241       0.500000       0.000000
      0.258747       0.595248       0.000000
      0.189557       0.614346       0.000000
      0.184198       0.500000       0.000000
      0.189557       0.385654       0.000000
      0.184198       0.500000       0.000000
      0.119648       0.500000       0.000000
      0.123505       0.367423       0.000000
[...]
POINT_DATA   792
VECTORS U float 
      0.000433       0.005621       0.000000
      0.000223       0.006003       0.000000
      0.000038       0.005710       0.000000
      0.000279       0.005215       0.000000
      0.000223       0.006003       0.000000
      0.000006       0.006258       0.000000
     -0.000120       0.006146       0.000000
      0.000038       0.005710       0.000000
      0.000279       0.005215       0.000000
      0.000038       0.005710       0.000000
      0.000059       0.005675       0.000000
      0.000347       0.005250       0.000000
      0.000038       0.005710       0.000000
     -0.000120       0.006146       0.000000
     -0.000139       0.006097       0.000000
      0.000059       0.005675       0.000000
      0.000006       0.006258       0.000000
     -0.000217       0.006363       0.000000
     -0.000205       0.006389       0.000000
     -0.000120       0.006146       0.000000
     -0.000217       0.006363       0.000000
     -0.000461       0.006311       0.000000
     -0.000286       0.006350       0.000000
     -0.000205       0.006389       0.000000
     -0.000120       0.006146       0.000000
     -0.000205       0.006389       0.000000
     -0.000204       0.006385       0.000000
     -0.000139       0.006097       0.000000
     -0.000205       0.006389       0.000000
     -0.000286       0.006350       0.000000
     -0.000214       0.006376       0.000000
     -0.000204       0.006385       0.000000
     -0.000461       0.006311       0.000000
     -0.000738       0.006104       0.000000
     -0.000434       0.006031       0.000000
     -0.000286       0.006350       0.000000
     -0.000738       0.006104       0.000000
     -0.001046       0.005756       0.000000
     -0.000694       0.005534       0.000000
     -0.000434       0.006031       0.000000
     -0.000286       0.006350       0.000000
     -0.000434       0.006031       0.000000
     -0.000307       0.006050       0.000000
     -0.000214       0.006376       0.000000
     -0.000434       0.006031       0.000000
     -0.000694       0.005534       0.000000
     -0.000547       0.005552       0.000000
     -0.000307       0.006050       0.000000
      0.000347       0.005250       0.000000
      0.000059       0.005675       0.000000
      0.000122       0.005786       0.000000
      0.000451       0.005459       0.000000
      0.000059       0.005675       0.000000
     -0.000139       0.006097       0.000000
     -0.000121       0.006130       0.000000
      0.000122       0.005786       0.000000
      0.000451       0.005459       0.000000
      0.000122       0.005786       0.000000
      0.000201       0.005986       0.000000
      0.000574       0.005754       0.000000
      0.000122       0.005786       0.000000
     -0.000121       0.006130       0.000000
     -0.000091       0.006226       0.000000
      0.000201       0.005986       0.000000
     -0.000139       0.006097       0.000000
     -0.000204       0.006385       0.000000
     -0.000199       0.006398       0.000000
     -0.000121       0.006130       0.000000
     -0.000204       0.006385       0.000000
     -0.000214       0.006376       0.000000
     -0.000176       0.006409       0.000000
     -0.000199       0.006398       0.000000
     -0.000121       0.006130       0.000000
     -0.000199       0.006398       0.000000
     -0.000193       0.006433       0.000000
     -0.000091       0.006226       0.000000
     -0.000199       0.006398       0.000000
     -0.000176       0.006409       0.000000
     -0.000153       0.006452       0.000000
     -0.000193       0.006433       0.000000
     -0.000214       0.006376       0.000000
     -0.000307       0.006050       0.000000
     -0.000239       0.006120       0.000000
     -0.000176       0.006409       0.000000
     -0.000307       0.006050       0.000000
     -0.000547       0.005552       0.000000
     -0.000467       0.005669       0.000000
     -0.000239       0.006120       0.000000
     -0.000176       0.006409       0.000000
     -0.000239       0.006120       0.000000
     -0.000202       0.006228       0.000000
     -0.000153       0.006452       0.000000
     -0.000239       0.006120       0.000000
     -0.000467       0.005669       0.000000
     -0.000444       0.005870       0.000000
     -0.000202       0.006228       0.000000
      0.000574       0.005754       0.000000
      0.000201       0.005986       0.000000
      0.000302       0.006245       0.000000
      0.000737       0.006112       0.000000
      0.000201       0.005986       0.000000
     -0.000091       0.006226       0.000000
     -0.000051       0.006369       0.000000
      0.000302       0.006245       0.000000
      0.000737       0.006112       0.000000
      0.000302       0.006245       0.000000
      0.000433       0.006552       0.000000
      0.000969       0.006552       0.000000
      0.000302       0.006245       0.000000
     -0.000051       0.006369       0.000000
      0.000002       0.006552       0.000000
      0.000433       0.006552       0.000000
     -0.000091       0.006226       0.000000
     -0.000193       0.006433       0.000000
     -0.000189       0.006485       0.000000
     -0.000051       0.006369       0.000000
     -0.000193       0.006433       0.000000
     -0.000153       0.006452       0.000000
     -0.000141       0.006501       0.000000
     -0.000189       0.006485       0.000000
     -0.000051       0.006369       0.000000
     -0.000189       0.006485       0.000000
     -0.000187       0.006552       0.000000
      0.000002       0.006552       0.000000
     -0.000189       0.006485       0.000000
     -0.000141       0.006501       0.000000
     -0.000137       0.006552       0.000000
     -0.000187       0.006552       0.000000
     -0.000153       0.006452       0.000000
     -0.000202       0.006228       0.000000
     -0.000191       0.006372       0.000000
     -0.000141       0.006501       0.000000
     -0.000202       0.006228       0.000000
     -0.000444       0.005870       0.000000
     -0.000485       0.006166       0.000000
     -0.000191       0.006372       0.000000
     -0.000141       0.006501       0.000000
     -0.000191       0.006372       0.000000
     -0.000205       0.006552       0.000000
     -0.000137       0.006552       0.000000
     -0.000191       0.006372       0.000000
     -0.000485       0.006166       0.000000
     -0.000586       0.006552       0.000000
     -0.000205       0.006552       0.000000
      0.000380       0.000803       0.000000
      0.000583       0.001303       0.000000
      0.000556       0.001748       0.000000
      0.000227       0.001190       0.000000
      0.000583       0.001303       0.000000
      0.000743       0.002027       0.000000
      0.000935       0.002429       0.000000
      0.000556       0.001748       0.000000
      0.000227       0.001190       0.000000
      0.000556       0.001748       0.000000
      0.000633       0.001773       0.000000
      0.000266       0.001150       0.000000
      0.000556       0.001748       0.000000
      0.000935       0.002429       0.000000
      0.001057       0.002500       0.000000
      0.000633       0.001773       0.000000
      0.000743       0.002027       0.000000
      0.000764       0.003184       0.000000
      0.001155       0.003201       0.000000
      0.000935       0.002429       0.000000
      0.000764       0.003184       0.000000
      0.000772       0.004358       0.000000
      0.000973       0.003969       0.000000
      0.001155       0.003201       0.000000
      0.000935       0.002429       0.000000
      0.001155       0.003201       0.000000
      0.001287       0.003211       0.000000
      0.001057       0.002500       0.000000
      0.001155       0.003201       0.000000
      0.000973       0.003969       0.000000
      0.001095       0.003914       0.000000
      0.001287       0.003211       0.000000
      0.000772       0.004358       0.000000
      0.000633       0.005100       0.000000
      0.000611       0.004648       0.000000
      0.000973       0.003969       0.000000
      0.000633       0.005100       0.000000
      0.000433       0.005621       0.000000
      0.000279       0.005215       0.000000
      0.000611       0.004648       0.000000
      0.000973       0.003969       0.000000
      0.000611       0.004648       0.000000
      0.000699       0.004626       0.000000
      0.001095       0.003914       0.000000
      0.000611       0.004648       0.000000
      0.000279       0.005215       0.000000
      0.000347       0.005250       0.000000
      0.000699       0.004626       0.000000
      0.000266       0.001150       0.000000
      0.000633       0.001773       0.000000
      0.000722       0.001666       0.000000
      0.000312       0.000946       0.000000
      0.000633       0.001773       0.000000
      0.001057       0.002500       0.000000
      0.001175       0.002468       0.000000
      0.000722       0.001666       0.000000
      0.000312       0.000946       0.000000
      0.000722       0.001666       0.000000
      0.000803       0.001537       0.000000
      0.000320       0.000677       0.000000
      0.000722       0.001666       0.000000
      0.001175       0.002468       0.000000
      0.001294       0.002426       0.000000
      0.000803       0.001537       0.000000
      0.001057       0.002500       0.000000
      0.001287       0.003211       0.000000
      0.001406       0.003222       0.000000
      0.001175       0.002468       0.000000
      0.001287       0.003211       0.000000
      0.001095       0.003914       0.000000
      0.001215       0.003967       0.000000
      0.001406       0.003222       0.000000
      0.001175       0.002468       0.000000
      0.001406       0.003222       0.000000
      0.001536       0.003235       0.000000
      0.001294       0.002426       0.000000
      0.001406       0.003222       0.000000
      0.001215       0.003967       0.000000
      0.001338       0.004039       0.000000
      0.001536       0.003235       0.000000
      0.001095       0.003914       0.000000
      0.000699       0.004626       0.000000
      0.000808       0.004748       0.000000
      0.001215       0.003967       0.000000
      0.000699       0.004626       0.000000
      0.000347       0.005250       0.000000
      0.000451       0.005459       0.000000
      0.000808       0.004748       0.000000
      0.001215       0.003967       0.000000
      0.000808       0.004748       0.000000
      0.000915       0.004910       0.000000
      0.001338       0.004039       0.000000
      0.000808       0.004748       0.000000
      0.000451       0.005459       0.000000
      0.000574       0.005754       0.000000
      0.000915       0.004910       0.000000
      0.000320       0.000677       0.000000
      0.000803       0.001537       0.000000
      0.000872       0.001442       0.000000
      0.000259       0.000373       0.000000
      0.000803       0.001537       0.000000
      0.001294       0.002426       0.000000
      0.001406       0.002414       0.000000
      0.000872       0.001442       0.000000
      0.000259       0.000373       0.000000
      0.000872       0.001442       0.000000
      0.000933       0.001398       0.000000
      0.000000       0.000000       0.000000
      0.000872       0.001442       0.000000
      0.001406       0.002414       0.000000
      0.001504       0.002458       0.000000
      0.000933       0.001398       0.000000
      0.001294       0.002426       0.000000
      0.001536       0.003235       0.000000
      0.001669       0.003248       0.000000
      0.001406       0.002414       0.000000
      0.001536       0.003235       0.000000
      0.001338       0.004039       0.000000
      0.001456       0.004086       0.000000
      0.001669       0.003248       0.000000
      0.001406       0.002414       0.000000
      0.001669       0.003248       0.000000
      0.001790       0.003259       0.000000
      0.001504       0.002458       0.000000
      0.001669       0.003248       0.000000
      0.001456       0.004086       0.000000
      0.001566       0.004076       0.000000
      0.001790       0.003259       0.000000
      0.001338       0.004039       0.000000
      0.000915       0.004910       0.000000
      0.001024       0.005066       0.000000
      0.001456       0.004086       0.000000
      0.000915       0.004910       0.000000
      0.000574       0.005754       0.000000
      0.000737       0.006112       0.000000
      0.001024       0.005066       0.000000
      0.001456       0.004086       0.000000
      0.001024       0.005066       0.000000
      0.001150       0.005205       0.000000
      0.001566       0.004076       0.000000
      0.001024       0.005066       0.000000
      0.000737       0.006112       0.000000
      0.000969       0.006552       0.000000
      0.001150       0.005205       0.000000
     -0.000983       0.000740       0.000000
     -0.000670       0.000394       0.000000
     -0.000357       0.000472       0.000000
     -0.000616       0.000970       0.000000
     -0.000670       0.000394       0.000000
     -0.000403       0.000190       0.000000
     -0.000224       0.000160       0.000000
     -0.000357       0.000472       0.000000
     -0.000616       0.000970       0.000000
     -0.000357       0.000472       0.000000
     -0.000205       0.000461       0.000000
     -0.000443       0.000961       0.000000
     -0.000357       0.000472       0.000000
     -0.000224       0.000160       0.000000
     -0.000132       0.000145       0.000000
     -0.000205       0.000461       0.000000
     -0.000403       0.000190       0.000000
     -0.000189       0.000135       0.000000
     -0.000168       0.000115       0.000000
     -0.000224       0.000160       0.000000
     -0.000189       0.000135       0.000000
     -0.000003       0.000223       0.000000
     -0.000116       0.000326       0.000000
     -0.000168       0.000115       0.000000
     -0.000224       0.000160       0.000000
     -0.000168       0.000115       0.000000
     -0.000155       0.000126       0.000000
     -0.000132       0.000145       0.000000
     -0.000168       0.000115       0.000000
     -0.000116       0.000326       0.000000
     -0.000136       0.000374       0.000000
     -0.000155       0.000126       0.000000
     -0.000003       0.000223       0.000000
      0.000184       0.000449       0.000000
      0.000008       0.000721       0.000000
     -0.000116       0.000326       0.000000
      0.000184       0.000449       0.000000
      0.000380       0.000803       0.000000
      0.000227       0.001190       0.000000
      0.000008       0.000721       0.000000
     -0.000116       0.000326       0.000000
      0.000008       0.000721       0.000000
      0.000010       0.000751       0.000000
     -0.000136       0.000374       0.000000
      0.000008       0.000721       0.000000
      0.000227       0.001190       0.000000
      0.000266       0.001150       0.000000
      0.000010       0.000751       0.000000
     -0.000443       0.000961       0.000000
     -0.000205       0.000461       0.000000
     -0.000105       0.000396       0.000000
     -0.000328       0.000848       0.000000
     -0.000205       0.000461       0.000000
     -0.000132       0.000145       0.000000
     -0.000072       0.000123       0.000000
     -0.000105       0.000396       0.000000
     -0.000328       0.000848       0.000000
     -0.000105       0.000396       0.000000
     -0.000036       0.000291       0.000000
     -0.000257       0.000651       0.000000
     -0.000105       0.000396       0.000000
     -0.000072       0.000123       0.000000
     -0.000028       0.000091       0.000000
     -0.000036       0.000291       0.000000
     -0.000132       0.000145       0.000000
     -0.000155       0.000126       0.000000
     -0.000135       0.000123       0.000000
     -0.000072       0.000123       0.000000
     -0.000155       0.000126       0.000000
     -0.000136       0.000374       0.000000
     -0.000123       0.000344       0.000000
     -0.000135       0.000123       0.000000
     -0.000072       0.000123       0.000000
     -0.000135       0.000123       0.000000
     -0.000108       0.000100       0.000000
     -0.000028       0.000091       0.000000
     -0.000135       0.000123       0.000000
     -0.000123       0.000344       0.000000
     -0.000094       0.000259       0.000000
     -0.000108       0.000100       0.000000
     -0.000136       0.000374       0.000000
      0.000010       0.000751       0.000000
      0.000038       0.000639       0.000000
     -0.000123       0.000344       0.000000
      0.000010       0.000751       0.000000
      0.000266       0.001150       0.000000
      0.000312       0.000946       0.000000
      0.000038       0.000639       0.000000
     -0.000123       0.000344       0.000000
      0.000038       0.000639       0.000000
      0.000057       0.000451       0.000000
     -0.000094       0.000259       0.000000
      0.000038       0.000639       0.000000
      0.000312       0.000946       0.000000
      0.000320       0.000677       0.000000
      0.000057       0.000451       0.000000
     -0.000257       0.000651       0.000000
     -0.000036       0.000291       0.000000
      0.000002       0.000155       0.000000
     -0.000200       0.000364       0.000000
     -0.000036       0.000291       0.000000
     -0.000028       0.000091       0.000000
     -0.000003       0.000051       0.000000
      0.000002       0.000155       0.000000
     -0.000200       0.000364       0.000000
      0.000002       0.000155       0.000000
      0.000000       0.000000       0.000000
      0.000000       0.000000       0.000000
      0.000002       0.000155       0.000000
     -0.000003       0.000051       0.000000
      0.000000       0.000000       0.000000
      0.000000       0.000000       0.000000
     -0.000028       0.000091       0.000000
     -0.000108       0.000100       0.000000
     -0.000066       0.000058       0.000000
     -0.000003       0.000051       0.000000
     -0.000108       0.000100       0.000000
     -0.000094       0.000259       0.000000
     -0.000053       0.000138       0.000000
     -0.000066       0.000058       0.000000
     -0.000003       0.000051       0.000000
     -0.000066       0.000058       0.000000
      0.000000       0.000000       0.000000
      0.000000       0.000000       0.000000
     -0.000066       0.000058       0.000000
     -0.000053       0.000138       0.000000
      0.000000       0.000000       0.000000
      0.000000       0.000000       0.000000
     -0.000094       0.000259       0.000000
      0.000057       0.000451       0.000000
      0.000050       0.000228       0.000000
     -0.000053       0.000138       0.000000
      0.000057       0.000451       0.000000
      0.000320       0.000677       0.000000
      0.000259       0.000373       0.000000
      0.000050       0.000228       0.000000
     -0.000053       0.000138       0.000000
      0.000050       0.000228       0.000000
      0.000000       0.000000       0.000000
      0.000000       0.000000       0.000000
      0.000050       0.000228       0.000000
      0.000259       0.000373       0.000000
      0.000000       0.000000       0.000000
      0.000000       0.000000       0.000000
     -0.000983       0.000740       0.000000
     -0.001332       0.001243       0.000000
     -0.001084       0.001513       0.000000
     -0.000616       0.000970       0.000000
     -0.000616       0.000970       0.000000
     -0.001084       0.001513       0.000000
     -0.000935       0.001561       0.000000
     -0.000443       0.000961       0.000000
     -0.001084       0.001513       0.000000
     -0.001674       0.002213       0.000000
     -0.001656       0.002331       0.000000