# vtk DataFile Version 2.0
time_10.vtk
ASCII
DATASET UNSTRUCTURED_GRID
POINTS   576 float
      0.458579       0.641421       0.000000
      0.497369       0.671659       0.000000
      0.438243       0.730363       0.000000
      0.382149       0.701184       0.000000
      0.497369       0.671659       0.000000
      0.545805       0.692517       0.000000
      0.506084       0.750000       0.000000
      0.438243       0.730363       0.000000
      0.382149       0.701184       0.000000
      0.438243       0.730363       0.000000
      0.380813       0.787383       0.000000
      0.305719       0.760948       0.000000
      0.438243       0.730363       0.000000
      0.506084       0.750000       0.000000
      0.468251       0.804752       0.000000
      0.380813       0.787383       0.000000
      0.545805       0.692517       0.000000
      0.600000       0.700000       0.000000
      0.581017       0.756950       0.000000
      0.506084       0.750000       0.000000
      0.600000       0.700000       0.000000
      0.654195       0.692517       0.000000
      0.656527       0.750000       0.000000
      0.581017       0.756950       0.000000
      0.506084       0.750000       0.000000
      0.581017       0.756950       0.000000
      0.563060       0.810819       0.000000
      0.468251       0.804752       0.000000
      0.581017       0.756950       0.000000
      0.656527       0.750000       0.000000
      0.658747       0.804752       0.000000
      0.563060       0.810819       0.000000
      0.654195       0.692517       0.000000
      0.702631       0.671659       0.000000
      0.725999       0.730363       0.000000
      0.656527       0.750000       0.000000
      0.702631       0.671659       0.000000
      0.741421       0.641421       0.000000
      0.784518       0.701184       0.000000
      0.725999       0.730363       0.000000
      0.656527       0.750000       0.000000
      0.725999       0.730363       0.000000
      0.748697       0.787383       0.000000
      0.658747       0.804752       0.000000
      0.725999       0.730363       0.000000
      0.784518       0.701184       0.000000
      0.827614       0.760948       0.000000
      0.748697       0.787383       0.000000
      0.305719       0.760948       0.000000
      0.380813       0.787383       0.000000
      0.325006       0.842791       0.000000
      0.229289       0.820711       0.000000
      0.380813       0.787383       0.000000
      0.468251       0.804752       0.000000
      0.432173       0.856962       0.000000
      0.325006       0.842791       0.000000
      0.229289       0.820711       0.000000
      0.325006       0.842791       0.000000
      0.270755       0.896655       0.000000
      0.152860       0.880474       0.000000
      0.325006       0.842791       0.000000
      0.432173       0.856962       0.000000
      0.397732       0.906804       0.000000
      0.270755       0.896655       0.000000
      0.468251       0.804752       0.000000
      0.563060       0.810819       0.000000
      0.546050       0.861851       0.000000
      0.432173       0.856962       0.000000
      0.563060       0.810819       0.000000
      0.658747       0.804752       0.000000
      0.660865       0.856962       0.000000
      0.546050       0.861851       0.000000
      0.432173       0.856962       0.000000
      0.546050       0.861851       0.000000
      0.529912       0.910264       0.000000
      0.397732       0.906804       0.000000
      0.546050       0.861851       0.000000
      0.660865       0.856962       0.000000
      0.662887       0.906804       0.000000
      0.529912       0.910264       0.000000
      0.658747       0.804752       0.000000
      0.748697       0.787383       0.000000
      0.770753       0.842791       0.000000
      0.660865       0.856962       0.000000
      0.748697       0.787383       0.000000
      0.827614       0.760948       0.000000
      0.870711       0.820711       0.000000
      0.770753       0.842791       0.000000
      0.660865       0.856962       0.000000
      0.770753       0.842791       0.000000
      0.792195       0.896655       0.000000
      0.662887       0.906804       0.000000
      0.770753       0.842791       0.000000
      0.870711       0.820711       0.000000
      0.913807       0.880474       0.000000
      0.792195       0.896655       0.000000
      0.152860       0.880474       0.000000
      0.270755       0.896655       0.000000
      0.217995       0.949038       0.000000
      0.076430       0.940237       0.000000
      0.270755       0.896655       0.000000
      0.397732       0.906804       0.000000
      0.364819       0.954435       0.000000
      0.217995       0.949038       0.000000
      0.076430       0.940237       0.000000
      0.217995       0.949038       0.000000
      0.166667       1.000000       0.000000
      0.000000       1.000000       0.000000
      0.217995       0.949038       0.000000
      0.364819       0.954435       0.000000
      0.333333       1.000000       0.000000
      0.166667       1.000000       0.000000
      0.397732       0.906804       0.000000
      0.529912       0.910264       0.000000
      0.514582       0.956255       0.000000
      0.364819       0.954435       0.000000
      0.529912       0.910264       0.000000
      0.662887       0.906804       0.000000
      0.664819       0.954435       0.000000
      0.514582       0.956255       0.000000
      0.364819       0.954435       0.000000
      0.514582       0.956255       0.000000
      0.500000       1.000000       0.000000
      0.333333       1.000000       0.000000
      0.514582       0.956255       0.000000
      0.664819       0.954435       0.000000
      0.666667       1.000000       0.000000
      0.500000       1.000000       0.000000
      0.662887       0.906804       0.000000
      0.792195       0.896655       0.000000
      0.813047       0.949038       0.000000
      0.664819       0.954435       0.000000
      0.792195       0.896655       0.000000
      0.913807       0.880474       0.000000
      0.956904       0.940237       0.000000
      0.813047       0.949038       0.000000
      0.664819       0.954435       0.000000
      0.813047       0.949038       0.000000
      0.833333       1.000000       0.000000
      0.666667       1.000000       0.000000
      0.813047       0.949038       0.000000
      0.956904       0.940237       0.000000
      1.000000       1.000000       0.000000
      0.833333       1.000000       0.000000
      0.458579       0.358579       0.000000
      0.428341       0.397369       0.000000
      0.351758       0.356122       0.000000
      0.382149       0.298816       0.000000
      0.428341       0.397369       0.000000
      0.407483       0.445805       0.000000
      0.331305       0.424779       0.000000
      0.351758       0.356122       0.000000
      0.382149       0.298816       0.000000
      0.351758       0.356122       0.000000
      0.277372       0.316058       0.000000
      0.305719       0.239052       0.000000
      0.351758       0.356122       0.000000
      0.331305       0.424779       0.000000
      0.258747       0.404752       0.000000
      0.277372       0.316058       0.000000
      0.407483       0.445805       0.000000
      0.400000       0.500000       0.000000
      0.324066       0.500000       0.000000
      0.331305       0.424779       0.000000
      0.400000       0.500000       0.000000
      0.407483       0.554195       0.000000
      0.331305       0.575221       0.000000
      0.324066       0.500000       0.000000
      0.331305       0.424779       0.000000
      0.324066       0.500000       0.000000
      0.252241       0.500000       0.000000
      0.258747       0.404752       0.000000
      0.324066       0.500000       0.000000
      0.331305       0.575221       0.000000
      0.258747       0.595248       0.000000
      0.252241       0.500000       0.000000
      0.407483       0.554195       0.000000
      0.428341       0.602631       0.000000
      0.351758       0.643878       0.000000
      0.331305       0.575221       0.000000
      0.428341       0.602631       0.000000
      0.458579       0.641421       0.000000
      0.382149       0.701184       0.000000
      0.351758       0.643878       0.000000
      0.331305       0.575221       0.000000
      0.351758       0.643878       0.000000
      0.277372       0.683942       0.000000
      0.258747       0.595248       0.000000
      0.351758       0.643878       0.000000
      0.382149       0.701184       0.000000
      0.305719       0.760948       0.000000
      0.277372       0.683942       0.000000
      0.305719       0.239052       0.000000
      0.277372       0.316058       0.000000
      0.205089       0.277126       0.000000
      0.229289       0.179289       0.000000
      0.277372       0.316058       0.000000
      0.258747       0.404752       0.000000
      0.189557       0.385654       0.000000
      0.205089       0.277126       0.000000
      0.229289       0.179289       0.000000
      0.205089       0.277126       0.000000
      0.134820       0.239280       0.000000
      0.152860       0.119526       0.000000
      0.205089       0.277126       0.000000
      0.189557       0.385654       0.000000
      0.123505       0.367423       0.000000
      0.134820       0.239280       0.000000
      0.258747       0.404752       0.000000
      0.252241       0.500000       0.000000
      0.184198       0.500000       0.000000
      0.189557       0.385654       0.000000
      0.252241       0.500000       0.000000
      0.258747       0.595248       0.000000
      0.189557       0.614346       0.000000
      0.184198       0.500000       0.000000
      0.189557       0.385654       0.000000
      0.184198       0.500000       0.000000
      0.119648       0.500000       0.000000
      0.123505       0.367423       0.000000
[...]
POINT_DATA   576
VECTORS U float 
      0.000255       0.003346       0.000000
      0.000133       0.003605       0.000000
      0.000021       0.003417       0.000000
      0.000175       0.003104       0.000000
      0.000133       0.003605       0.000000
     -0.000002       0.003779       0.000000
     -0.000082       0.003704       0.000000
      0.000021       0.003417       0.000000
      0.000175       0.003104       0.000000
      0.000021       0.003417       0.000000
      0.000045       0.003408       0.000000
      0.000227       0.003155       0.000000
      0.000021       0.003417       0.000000
     -0.000082       0.003704       0.000000
     -0.000087       0.003677       0.000000
      0.000045       0.003408       0.000000
     -0.000002       0.003779       0.000000
     -0.000144       0.003850       0.000000
     -0.000136       0.003867       0.000000
     -0.000082       0.003704       0.000000
     -0.000144       0.003850       0.000000
     -0.000299       0.003812       0.000000
     -0.000186       0.003838       0.000000
     -0.000136       0.003867       0.000000
     -0.000082       0.003704       0.000000
     -0.000136       0.003867       0.000000
     -0.000134       0.003867       0.000000
     -0.000087       0.003677       0.000000
     -0.000136       0.003867       0.000000
     -0.000186       0.003838       0.000000
     -0.000144       0.003859       0.000000
     -0.000134       0.003867       0.000000
     -0.000299       0.003812       0.000000
     -0.000471       0.003666       0.000000
     -0.000282       0.003621       0.000000
     -0.000186       0.003838       0.000000
     -0.000471       0.003666       0.000000
     -0.000653       0.003425       0.000000
     -0.000448       0.003295       0.000000
     -0.000282       0.003621       0.000000
     -0.000186       0.003838       0.000000
     -0.000282       0.003621       0.000000
     -0.000209       0.003643       0.000000
     -0.000144       0.003859       0.000000
     -0.000282       0.003621       0.000000
     -0.000448       0.003295       0.000000
     -0.000369       0.003328       0.000000
     -0.000209       0.003643       0.000000
      0.000227       0.003155       0.000000
      0.000045       0.003408       0.000000
      0.000094       0.003494       0.000000
      0.000301       0.003308       0.000000
      0.000045       0.003408       0.000000
     -0.000087       0.003677       0.000000
     -0.000069       0.003706       0.000000
      0.000094       0.003494       0.000000
      0.000301       0.003308       0.000000
      0.000094       0.003494       0.000000
      0.000152       0.003633       0.000000
      0.000386       0.003508       0.000000
      0.000094       0.003494       0.000000
     -0.000069       0.003706       0.000000
     -0.000044       0.003776       0.000000
      0.000152       0.003633       0.000000
     -0.000087       0.003677       0.000000
     -0.000134       0.003867       0.000000
     -0.000129       0.003881       0.000000
     -0.000069       0.003706       0.000000
     -0.000134       0.003867       0.000000
     -0.000144       0.003859       0.000000
     -0.000121       0.003887       0.000000
     -0.000129       0.003881       0.000000
     -0.000069       0.003706       0.000000
     -0.000129       0.003881       0.000000
     -0.000123       0.003910       0.000000
     -0.000044       0.003776       0.000000
     -0.000129       0.003881       0.000000
     -0.000121       0.003887       0.000000
     -0.000108       0.003922       0.000000
     -0.000123       0.003910       0.000000
     -0.000144       0.003859       0.000000
     -0.000209       0.003643       0.000000
     -0.000172       0.003699       0.000000
     -0.000121       0.003887       0.000000
     -0.000209       0.003643       0.000000
     -0.000369       0.003328       0.000000
     -0.000327       0.003421       0.000000
     -0.000172       0.003699       0.000000
     -0.000121       0.003887       0.000000
     -0.000172       0.003699       0.000000
     -0.000152       0.003778       0.000000
     -0.000108       0.003922       0.000000
     -0.000172       0.003699       0.000000
     -0.000327       0.003421       0.000000
     -0.000316       0.003560       0.000000
     -0.000152       0.003778       0.000000
      0.000386       0.003508       0.000000
      0.000152       0.003633       0.000000
      0.000222       0.003805       0.000000
      0.000491       0.003736       0.000000
      0.000152       0.003633       0.000000
     -0.000044       0.003776       0.000000
     -0.000013       0.003876       0.000000
      0.000222       0.003805       0.000000
      0.000491       0.003736       0.000000
      0.000222       0.003805       0.000000
      0.000307       0.004000       0.000000
      0.000630       0.004000       0.000000
      0.000222       0.003805       0.000000
     -0.000013       0.003876       0.000000
      0.000025       0.004000       0.000000
      0.000307       0.004000       0.000000
     -0.000044       0.003776       0.000000
     -0.000123       0.003910       0.000000
     -0.000118       0.003950       0.000000
     -0.000013       0.003876       0.000000
     -0.000123       0.003910       0.000000
     -0.000108       0.003922       0.000000
     -0.000101       0.003960       0.000000
     -0.000118       0.003950       0.000000
     -0.000013       0.003876       0.000000
     -0.000118       0.003950       0.000000
     -0.000115       0.004000       0.000000
      0.000025       0.004000       0.000000
     -0.000118       0.003950       0.000000
     -0.000101       0.003960       0.000000
     -0.000099       0.004000       0.000000
     -0.000115       0.004000       0.000000
     -0.000108       0.003922       0.000000
     -0.000152       0.003778       0.000000
     -0.000148       0.003878       0.000000
     -0.000101       0.003960       0.000000
     -0.000152       0.003778       0.000000
     -0.000316       0.003560       0.000000
     -0.000343       0.003753       0.000000
     -0.000148       0.003878       0.000000
     -0.000101       0.003960       0.000000
     -0.000148       0.003878       0.000000
     -0.000158       0.004000       0.000000
     -0.000099       0.004000       0.000000
     -0.000148       0.003878       0.000000
     -0.000343       0.003753       0.000000
     -0.000408       0.004000       0.000000
     -0.000158       0.004000       0.000000
      0.000220       0.000565       0.000000
      0.000332       0.000904       0.000000
      0.000334       0.001148       0.000000
      0.000136       0.000800       0.000000
      0.000332       0.000904       0.000000
      0.000423       0.001371       0.000000
      0.000541       0.001544       0.000000
      0.000334       0.001148       0.000000
      0.000136       0.000800       0.000000
      0.000334       0.001148       0.000000
      0.000382       0.001127       0.000000
      0.000168       0.000751       0.000000
      0.000334       0.001148       0.000000
      0.000541       0.001544       0.000000
      0.000612       0.001547       0.000000
      0.000382       0.001127       0.000000
      0.000423       0.001371       0.000000
      0.000461       0.001944       0.000000
      0.000644       0.001953       0.000000
      0.000541       0.001544       0.000000
      0.000461       0.001944       0.000000
      0.000441       0.002521       0.000000
      0.000565       0.002360       0.000000
      0.000644       0.001953       0.000000
      0.000541       0.001544       0.000000
      0.000644       0.001953       0.000000
      0.000727       0.001960       0.000000
      0.000612       0.001547       0.000000
      0.000644       0.001953       0.000000
      0.000565       0.002360       0.000000
      0.000638       0.002368       0.000000
      0.000727       0.001960       0.000000
      0.000441       0.002521       0.000000
      0.000364       0.002995       0.000000
      0.000371       0.002753       0.000000
      0.000565       0.002360       0.000000
      0.000364       0.002995       0.000000
      0.000255       0.003346       0.000000
      0.000175       0.003104       0.000000
      0.000371       0.002753       0.000000
      0.000565       0.002360       0.000000
      0.000371       0.002753       0.000000
      0.000429       0.002780       0.000000
      0.000638       0.002368       0.000000
      0.000371       0.002753       0.000000
      0.000175       0.003104       0.000000
      0.000227       0.003155       0.000000
      0.000429       0.002780       0.000000
      0.000168       0.000751       0.000000
      0.000382       0.001127       0.000000
      0.000437       0.001040       0.000000
      0.000200       0.000606       0.000000
      0.000382       0.001127       0.000000
      0.000612       0.001547       0.000000
      0.000684       0.001513       0.000000
      0.000437       0.001040       0.000000
      0.000200       0.000606       0.000000
      0.000437       0.001040       0.000000
      0.000488       0.000945       0.000000
      0.000207       0.000426       0.000000
      0.000437       0.001040       0.000000
      0.000684       0.001513       0.000000
      0.000759       0.001479       0.000000
      0.000488       0.000945       0.000000
      0.000612       0.001547       0.000000
      0.000727       0.001960       0.000000
      0.000806       0.001969       0.000000
      0.000684       0.001513       0.000000
      0.000727       0.001960       0.000000
      0.000638       0.002368       0.000000
      0.000713       0.002419       0.000000
      0.000806       0.001969       0.000000
      0.000684       0.001513       0.000000
      0.000806       0.001969       0.000000
      0.000890       0.001979       0.000000
      0.000759       0.001479       0.000000
      0.000806       0.001969       0.000000
      0.000713       0.002419       0.000000
      0.000791       0.002476       0.000000
      0.000890       0.001979       0.000000
      0.000638       0.002368       0.000000
      0.000429       0.002780       0.000000
      0.000499       0.002881       0.000000
      0.000713       0.002419       0.000000
      0.000429       0.002780       0.000000
      0.000227       0.003155       0.000000
      0.000301       0.003308       0.000000
      0.000499       0.002881       0.000000
      0.000713       0.002419       0.000000
      0.000499       0.002881       0.000000
      0.000571       0.002999       0.000000
      0.000791       0.002476       0.000000
      0.000499       0.002881       0.000000
      0.000301       0.003308       0.000000
      0.000386       0.003508       0.000000
      0.000571       0.002999       0.000000
      0.000207       0.000426       0.000000
      0.000488       0.000945       0.000000
      0.000533       0.000874       0.000000
      0.000168       0.000233       0.000000
      0.000488       0.000945       0.000000
      0.000759       0.001479       0.000000
      0.000830       0.001464       0.000000
      0.000533       0.000874       0.000000
      0.000168       0.000233       0.000000
      0.000533       0.000874       0.000000
      0.000572       0.000839       0.000000
      0.000000       0.000000       0.000000
      0.000533       0.000874       0.000000
      0.000830       0.001464       0.000000
      0.000895       0.001481       0.000000
      0.000572       0.000839       0.000000
      0.000759       0.001479       0.000000
      0.000890       0.001979       0.000000
      0.000975       0.001989       0.000000
      0.000830       0.001464       0.000000
      0.000890       0.001979       0.000000
      0.000791       0.002476       0.000000
      0.000868       0.002517       0.000000
      0.000975       0.001989       0.000000
      0.000830       0.001464       0.000000
      0.000975       0.001989       0.000000
      0.001054       0.001997       0.000000
      0.000895       0.001481       0.000000
      0.000975       0.001989       0.000000
      0.000868       0.002517       0.000000
      0.000941       0.002524       0.000000
      0.001054       0.001997       0.000000
      0.000791       0.002476       0.000000
      0.000571       0.002999       0.000000
      0.000644       0.003111       0.000000
      0.000868       0.002517       0.000000
      0.000571       0.002999       0.000000
      0.000386       0.003508       0.000000
      0.000491       0.003736       0.000000
      0.000644       0.003111       0.000000
      0.000868       0.002517       0.000000
      0.000644       0.003111       0.000000
      0.000725       0.003207       0.000000
      0.000941       0.002524       0.000000
      0.000644       0.003111       0.000000
      0.000491       0.003736       0.000000
      0.000630       0.004000       0.000000
      0.000725       0.003207       0.000000
     -0.000612       0.000533       0.000000
     -0.000427       0.000292       0.000000
     -0.000230       0.000341       0.000000
     -0.000396       0.000670       0.000000
     -0.000427       0.000292       0.000000
     -0.000262       0.000147       0.000000
     -0.000146       0.000128       0.000000
     -0.000230       0.000341       0.000000
     -0.000396       0.000670       0.000000
     -0.000230       0.000341       0.000000
     -0.000139       0.000325       0.000000
     -0.000298       0.000644       0.000000
     -0.000230       0.000341       0.000000
     -0.000146       0.000128       0.000000
     -0.000089       0.000114       0.000000
     -0.000139       0.000325       0.000000
     -0.000262       0.000147       0.000000
     -0.000127       0.000107       0.000000
     -0.000114       0.000094       0.000000
     -0.000146       0.000128       0.000000
     -0.000127       0.000107       0.000000
     -0.000010       0.000166       0.000000
     -0.000083       0.000237       0.000000
     -0.000114       0.000094       0.000000
     -0.000146       0.000128       0.000000
     -0.000114       0.000094       0.000000
     -0.000105       0.000099       0.000000
     -0.000089       0.000114       0.000000
     -0.000114       0.000094       0.000000
     -0.000083       0.000237       0.000000
     -0.000092       0.000264       0.000000
     -0.000105       0.000099       0.000000
     -0.000010       0.000166       0.000000
      0.000105       0.000323       0.000000
     -0.000003       0.000500       0.000000
     -0.000083       0.000237       0.000000
      0.000105       0.000323       0.000000
      0.000220       0.000565       0.000000
      0.000136       0.000800       0.000000
     -0.000003       0.000500       0.000000
     -0.000083       0.000237       0.000000
     -0.000003       0.000500       0.000000
      0.000005       0.000508       0.000000
     -0.000092       0.000264       0.000000
     -0.000003       0.000500       0.000000
      0.000136       0.000800       0.000000
      0.000168       0.000751       0.000000
      0.000005       0.000508       0.000000
     -0.000298       0.000644       0.000000
     -0.000139       0.000325       0.000000
     -0.000078       0.000274       0.000000
     -0.000230       0.000557       0.000000
     -0.000139       0.000325       0.000000
     -0.000089       0.000114       0.000000
     -0.000050       0.000094       0.000000
     -0.000078       0.000274       0.000000
     -0.000230       0.000557       0.000000
     -0.000078       0.000274       0.000000
     -0.000033       0.000198       0.000000
     -0.000182       0.000423       0.000000
     -0.000078       0.000274       0.000000
     -0.000050       0.000094       0.000000
     -0.000022       0.000069       0.000000
     -0.000033       0.000198       0.000000
     -0.000089       0.000114       0.000000
     -0.000105       0.000099       0.000000
     -0.000091       0.000093       0.000000
     -0.000050       0.000094       0.000000
     -0.000105       0.000099       0.000000
     -0.000092       0.000264       0.000000
     -0.000080       0.000239       0.000000
     -0.000091       0.000093       0.000000
     -0.000050       0.000094       0.000000
     -0.000091       0.000093       0.000000
     -0.000072       0.000074       0.000000
     -0.000022       0.000069       0.000000
     -0.000091       0.000093       0.000000
     -0.000080       0.000239       0.000000
     -0.000060       0.000178       0.000000
     -0.000072       0.000074       0.000000
     -0.000092       0.000264       0.000000
      0.000005       0.000508       0.000000
      0.000028       0.000426       0.000000
     -0.000080       0.000239       0.000000
      0.000005       0.000508       0.000000
      0.000168       0.000751       0.000000
      0.000200       0.000606       0.000000
      0.000028       0.000426       0.000000
     -0.000080       0.000239       0.000000
      0.000028       0.000426       0.000000
      0.000042       0.000297       0.000000
     -0.000060       0.000178       0.000000
      0.000028       0.000426       0.000000
      0.000200       0.000606       0.000000
      0.000207       0.000426       0.000000
      0.000042       0.000297       0.000000
     -0.000182       0.000423       0.000000
     -0.000033       0.000198       0.000000
     -0.000004       0.000105       0.000000
     -0.000138       0.000239       0.000000
     -0.000033       0.000198       0.000000
     -0.000022       0.000069       0.000000
     -0.000004       0.000038       0.000000
     -0.000004       0.000105       0.000000
     -0.000138       0.000239       0.000000
     -0.000004       0.000105       0.000000
      0.000000       0.000000       0.000000
      0.000000       0.000000       0.000000
     -0.000004       0.000105       0.000000
     -0.000004       0.000038       0.000000
      0.000000       0.000000       0.000000
      0.000000       0.000000       0.000000
     -0.000022       0.000069       0.000000
     -0.000072       0.000074       0.000000
     -0.000044       0.000042       0.000000
     -0.000004       0.000038       0.000000
     -0.000072       0.000074       0.000000
     -0.000060       0.000178       0.000000
     -0.000033       0.000094       0.000000
     -0.000044       0.000042       0.000000
     -0.000004       0.000038       0.000000
     -0.000044       0.000042       0.000000
      0.000000       0.000000       0.000000
      0.000000       0.000000       0.000000
     -0.000044       0.000042       0.000000
     -0.000033       0.000094       0.000000
      0.000000       0.000000       0.000000
      0.000000       0.000000       0.000000
     -0.000060       0.000178       0.000000
      0.000042       0.000297       0.000000
      0.000036       0.000150       0.000000
     -0.000033       0.000094       0.000000
      0.000042       0.000297       0.000000
      0.000207       0.000426       0.000000
      0.000168       0.000233       0.000000
      0.000036       0.000150       0.000000
     -0.000033       0.000094       0.000000
      0.000036       0.000150       0.000000
      0.000000       0.000000       0.000000
      0.000000       0.000000       0.000000
      0.000036       0.000150       0.000000
      0.000168       0.000233       0.000000
      0.000000       0.000000       0.000000
      0.000000       0.000000       0.000000
     -0.000612       0.000533       0.000000
     -0.000809       0.000881       0.000000
     -0.000679       0.001027       0.000000
     -0.000396       0.000670       0.000000
     -0.000809       0.000881       0.000000
     -0.000980       0.001369       0.000000
     -0.001011       0.001469       0.000000
     -0.000679       0.001027       0.000000
     -0.000396       0.000670       0.000000
     -0.000679       0.001027       0.000000
     -0.000600       0.001029       0.000000