# vtk DataFile Version 2.0
time_10.vtk
ASCII
DATASET UNSTRUCTURED_GRID
POINTS  3648 float
      0.458579       0.641421       0.000000
      0.497369       0.671659       0.000000
      0.438243       0.730363       0.000000
      0.382149       0.701184       0.000000
      0.497369       0.671659       0.000000
      0.545805       0.692517       0.000000
      0.506084       0.750000       0.000000
      0.438243       0.730363       0.000000
      0.382149       0.701184       0.000000
      0.438243       0.730363       0.000000
      0.380813       0.787383       0.000000
      0.305719       0.760948       0.000000
      0.438243       0.730363       0.000000
      0.506084       0.750000       0.000000
      0.468251       0.804752       0.000000
      0.380813       0.787383       0.000000
      0.545805       0.692517       0.000000
      0.600000       0.700000       0.000000
      0.581017       0.756950       0.000000
      0.506084       0.750000       0.000000
      0.600000       0.700000       0.000000
      0.654195       0.692517       0.000000
      0.656527       0.750000       0.000000
      0.581017       0.756950       0.000000
      0.506084       0.750000       0.000000
      0.581017       0.756950       0.000000
      0.563060       0.810819       0.000000
      0.468251       0.804752       0.000000
      0.581017       0.756950       0.000000
      0.656527       0.750000       0.000000
      0.658747       0.804752       0.000000
      0.563060       0.810819       0.000000
      0.654195       0.692517       0.000000
      0.702631       0.671659       0.000000
      0.725999       0.730363       0.000000
      0.656527       0.750000       0.000000
      0.702631       0.671659       0.000000
      0.741421       0.641421       0.000000
      0.784518       0.701184       0.000000
      0.725999       0.730363       0.000000
      0.656527       0.750000       0.000000
      0.725999       0.730363       0.000000
      0.748697       0.787383       0.000000
      0.658747       0.804752       0.000000
      0.725999       0.730363       0.000000
      0.784518       0.701184       0.000000
      0.827614       0.760948       0.000000
      0.748697       0.787383       0.000000
      0.305719       0.760948       0.000000
      0.380813       0.787383       0.000000
      0.325006       0.842791       0.000000
      0.229289       0.820711       0.000000
      0.380813       0.787383       0.000000
      0.468251       0.804752       0.000000
      0.432173       0.856962       0.000000
      0.325006       0.842791       0.000000
      0.229289       0.820711       0.000000
      0.325006       0.842791       0.000000
      0.270755       0.896655       0.000000
      0.152860       0.880474       0.000000
      0.325006       0.842791       0.000000
      0.432173       0.856962       0.000000
      0.397732       0.906804       0.000000
      0.270755       0.896655       0.000000
      0.468251       0.804752       0.000000
      0.563060       0.810819       0.000000
      0.546050       0.861851       0.000000
      0.432173       0.856962       0.000000
      0.563060       0.810819       0.000000
      0.658747       0.804752       0.000000
      0.660865       0.856962       0.000000
      0.546050       0.861851       0.000000
      0.432173       0.856962       0.000000
      0.546050       0.861851       0.000000
      0.529912       0.910264       0.000000
      0.397732       0.906804       0.000000
      0.546050       0.861851       0.000000
      0.660865       0.856962       0.000000
      0.662887       0.906804       0.000000
      0.529912       0.910264       0.000000
      0.658747       0.804752       0.000000
      0.748697       0.787383       0.000000
      0.770753       0.842791       0.000000
      0.660865       0.856962       0.000000
      0.748697       0.787383       0.000000
      0.827614       0.760948       0.000000
      0.870711       0.820711       0.000000
      0.770753       0.842791       0.000000
      0.660865       0.856962       0.000000
      0.770753       0.842791       0.000000
      0.792195       0.896655       0.000000
      0.662887       0.906804       0.000000
      0.770753       0.842791       0.000000
      0.870711       0.820711       0.000000
      0.913807       0.880474       0.000000
      0.792195       0.896655       0.000000
      0.152860       0.880474       0.000000
      0.270755       0.896655       0.000000
      0.217995       0.949038       0.000000
      0.076430       0.940237       0.000000
      0.270755       0.896655       0.000000
      0.397732       0.906804       0.000000
      0.364819       0.954435       0.000000
      0.217995       0.949038       0.000000
      0.076430       0.940237       0.000000
      0.217995       0.949038       0.000000
      0.166667       1.000000       0.000000
      0.000000       1.000000       0.000000
      0.217995       0.949038       0.000000
      0.364819       0.954435       0.000000
      0.333333       1.000000       0.000000
      0.166667       1.000000       0.000000
      0.397732       0.906804       0.000000
      0.529912       0.910264       0.000000
      0.514582       0.956255       0.000000
      0.364819       0.954435       0.000000
      0.529912       0.910264       0.000000
      0.662887       0.906804       0.000000
      0.664819       0.954435       0.000000
      0.514582       0.956255       0.000000
      0.364819       0.954435       0.000000
      0.514582       0.956255       0.000000
      0.500000       1.000000       0.000000
      0.333333       1.000000       0.000000
      0.514582       0.956255       0.000000
      0.664819       0.954435       0.000000
      0.666667       1.000000       0.000000
      0.500000       1.000000       0.000000
      0.662887       0.906804       0.000000
      0.792195       0.896655       0.000000
      0.813047       0.949038       0.000000
      0.664819       0.954435       0.000000
      0.792195       0.896655       0.000000
      0.913807       0.880474       0.000000
      0.956904       0.940237       0.000000
      0.813047       0.949038       0.000000
      0.664819       0.954435       0.000000
      0.813047       0.949038       0.000000
      0.833333       1.000000       0.000000
      0.666667       1.000000       0.000000
      0.813047       0.949038       0.000000
      0.956904       0.940237       0.000000
      1.000000       1.000000       0.000000
      0.833333       1.000000       0.000000
      0.458579       0.358579       0.000000
      0.428341       0.397369       0.000000
      0.351758       0.356122       0.000000
      0.382149       0.298816       0.000000
      0.382149       0.298816       0.000000
      0.351758       0.356122       0.000000
      0.277372       0.316058       0.000000
      0.305719       0.239052       0.000000
      0.428341       0.602631       0.000000
      0.458579       0.641421       0.000000
      0.382149       0.701184       0.000000
      0.351758       0.643878       0.000000
      0.351758       0.643878       0.000000
      0.382149       0.701184       0.000000
      0.305719       0.760948       0.000000
      0.277372       0.683942       0.000000
      0.305719       0.239052       0.000000
      0.277372       0.316058       0.000000
      0.205089       0.277126       0.000000
      0.229289       0.179289       0.000000
      0.229289       0.179289       0.000000
      0.205089       0.277126       0.000000
      0.134820       0.239280       0.000000
      0.152860       0.119526       0.000000
      0.205089       0.277126       0.000000
      0.189557       0.385654       0.000000
      0.123505       0.367423       0.000000
      0.134820       0.239280       0.000000
      0.277372       0.683942       0.000000
      0.305719       0.760948       0.000000
      0.229289       0.820711       0.000000
      0.205089       0.722874       0.000000
      0.189557       0.614346       0.000000
      0.205089       0.722874       0.000000
      0.134820       0.760720       0.000000
      0.123505       0.632577       0.000000
      0.205089       0.722874       0.000000
      0.229289       0.820711       0.000000
      0.152860       0.880474       0.000000
      0.134820       0.760720       0.000000
      0.152860       0.119526       0.000000
      0.134820       0.239280       0.000000
      0.066483       0.202474       0.000000
      0.076430       0.059763       0.000000
      0.076430       0.059763       0.000000
      0.066483       0.202474       0.000000
      0.000000       0.166667       0.000000
      0.000000       0.000000       0.000000
      0.066483       0.202474       0.000000
      0.060383       0.350000       0.000000
      0.000000       0.333333       0.000000
      0.000000       0.166667       0.000000
      0.134820       0.760720       0.000000
      0.152860       0.880474       0.000000
      0.076430       0.940237       0.000000
      0.066483       0.797526       0.000000
      0.060383       0.650000       0.000000
      0.066483       0.797526       0.000000
      0.000000       0.833333       0.000000
      0.000000       0.666667       0.000000
      0.066483       0.797526       0.000000
      0.076430       0.940237       0.000000
      0.000000       1.000000       0.000000
      0.000000       0.833333       0.000000
      0.400000       0.500000       0.000000
      0.400119       0.506902       0.000000
      0.390391       0.507240       0.000000
      0.390272       0.500000       0.000000
      0.400119       0.506902       0.000000
      0.400476       0.513791       0.000000
      0.390747       0.514468       0.000000
      0.390391       0.507240       0.000000
      0.390272       0.500000       0.000000
      0.390391       0.507240       0.000000
      0.380731       0.507577       0.000000
      0.380612       0.500000       0.000000
[...]
POINT_DATA  3648
VECTORS U float 
      0.000030       0.007037       0.000000
      0.000017       0.007047       0.000000
      0.000007       0.007036       0.000000
      0.000017       0.007019       0.000000
      0.000017       0.007047       0.000000
      0.000005       0.007053       0.000000
      0.000000       0.007050       0.000000
      0.000007       0.007036       0.000000
      0.000017       0.007019       0.000000
      0.000007       0.007036       0.000000
      0.000002       0.007030       0.000000
      0.000012       0.007010       0.000000
      0.000007       0.007036       0.000000
      0.000000       0.007050       0.000000
     -0.000004       0.007046       0.000000
      0.000002       0.007030       0.000000
      0.000005       0.007053       0.000000
     -0.000006       0.007055       0.000000
     -0.000004       0.007056       0.000000
      0.000000       0.007050       0.000000
     -0.000006       0.007055       0.000000
     -0.000018       0.007052       0.000000
     -0.000009       0.007054       0.000000
     -0.000004       0.007056       0.000000
      0.000000       0.007050       0.000000
     -0.000004       0.007056       0.000000
     -0.000004       0.007055       0.000000
     -0.000004       0.007046       0.000000
     -0.000004       0.007056       0.000000
     -0.000009       0.007054       0.000000
     -0.000004       0.007054       0.000000
     -0.000004       0.007055       0.000000
     -0.000018       0.007052       0.000000
     -0.000033       0.007046       0.000000
     -0.000017       0.007041       0.000000
     -0.000009       0.007054       0.000000
     -0.000033       0.007046       0.000000
     -0.000052       0.007035       0.000000
     -0.000029       0.007021       0.000000
     -0.000017       0.007041       0.000000
     -0.000009       0.007054       0.000000
     -0.000017       0.007041       0.000000
     -0.000007       0.007039       0.000000
     -0.000004       0.007054       0.000000
     -0.000017       0.007041       0.000000
     -0.000029       0.007021       0.000000
     -0.000016       0.007014       0.000000
     -0.000007       0.007039       0.000000
      0.000012       0.007010       0.000000
      0.000002       0.007030       0.000000
     -0.000001       0.007028       0.000000
      0.000010       0.007008       0.000000
      0.000002       0.007030       0.000000
     -0.000004       0.007046       0.000000
     -0.000006       0.007044       0.000000
     -0.000001       0.007028       0.000000
      0.000010       0.007008       0.000000
     -0.000001       0.007028       0.000000
     -0.000002       0.007031       0.000000
      0.000012       0.007014       0.000000
     -0.000001       0.007028       0.000000
     -0.000006       0.007044       0.000000
     -0.000008       0.007044       0.000000
     -0.000002       0.007031       0.000000
     -0.000004       0.007046       0.000000
     -0.000004       0.007055       0.000000
     -0.000005       0.007054       0.000000
     -0.000006       0.007044       0.000000
     -0.000004       0.007055       0.000000
     -0.000004       0.007054       0.000000
     -0.000001       0.007053       0.000000
     -0.000005       0.007054       0.000000
     -0.000006       0.007044       0.000000
     -0.000005       0.007054       0.000000
     -0.000006       0.007053       0.000000
     -0.000008       0.007044       0.000000
     -0.000005       0.007054       0.000000
     -0.000001       0.007053       0.000000
      0.000001       0.007052       0.000000
     -0.000006       0.007053       0.000000
     -0.000004       0.007054       0.000000
     -0.000007       0.007039       0.000000
     -0.000001       0.007039       0.000000
     -0.000001       0.007053       0.000000
     -0.000007       0.007039       0.000000
     -0.000016       0.007014       0.000000
     -0.000009       0.007014       0.000000
     -0.000001       0.007039       0.000000
     -0.000001       0.007053       0.000000
     -0.000001       0.007039       0.000000
      0.000002       0.007041       0.000000
      0.000001       0.007052       0.000000
     -0.000001       0.007039       0.000000
     -0.000009       0.007014       0.000000
     -0.000007       0.007020       0.000000
      0.000002       0.007041       0.000000
      0.000012       0.007014       0.000000
     -0.000002       0.007031       0.000000
     -0.000000       0.007039       0.000000
      0.000019       0.007029       0.000000
     -0.000002       0.007031       0.000000
     -0.000008       0.007044       0.000000
     -0.000009       0.007047       0.000000
     -0.000000       0.007039       0.000000
      0.000019       0.007029       0.000000
     -0.000000       0.007039       0.000000
      0.000005       0.007052       0.000000
      0.000031       0.007052       0.000000
     -0.000000       0.007039       0.000000
     -0.000009       0.007047       0.000000
     -0.000009       0.007052       0.000000
      0.000005       0.007052       0.000000
     -0.000008       0.007044       0.000000
     -0.000006       0.007053       0.000000
     -0.000007       0.007052       0.000000
     -0.000009       0.007047       0.000000
     -0.000006       0.007053       0.000000
      0.000001       0.007052       0.000000
      0.000002       0.007052       0.000000
     -0.000007       0.007052       0.000000
     -0.000009       0.007047       0.000000
     -0.000007       0.007052       0.000000
     -0.000008       0.007052       0.000000
     -0.000009       0.007052       0.000000
     -0.000007       0.007052       0.000000
      0.000002       0.007052       0.000000
      0.000002       0.007052       0.000000
     -0.000008       0.007052       0.000000
      0.000001       0.007052       0.000000
      0.000002       0.007041       0.000000
      0.000004       0.007045       0.000000
      0.000002       0.007052       0.000000
      0.000002       0.007041       0.000000
     -0.000007       0.007020       0.000000
     -0.000008       0.007033       0.000000
      0.000004       0.007045       0.000000
      0.000002       0.007052       0.000000
      0.000004       0.007045       0.000000
      0.000004       0.007052       0.000000
      0.000002       0.007052       0.000000
      0.000004       0.007045       0.000000
     -0.000008       0.007033       0.000000
     -0.000013       0.007052       0.000000
      0.000004       0.007052       0.000000
      0.000028       0.000014       0.000000
      0.000043       0.000026       0.000000
      0.000034       0.000049       0.000000
      0.000016       0.000031       0.000000
      0.000016       0.000031       0.000000
      0.000034       0.000049       0.000000
      0.000031       0.000062       0.000000
      0.000011       0.000039       0.000000
      0.000045       0.007025       0.000000
      0.000030       0.007037       0.000000
      0.000017       0.007019       0.000000
      0.000036       0.007001       0.000000
      0.000036       0.007001       0.000000
      0.000017       0.007019       0.000000
      0.000012       0.007010       0.000000
      0.000032       0.006987       0.000000
      0.000011       0.000039       0.000000
      0.000031       0.000062       0.000000
      0.000030       0.000071       0.000000
      0.000008       0.000040       0.000000
      0.000008       0.000040       0.000000
      0.000030       0.000071       0.000000
      0.000030       0.000077       0.000000
      0.000008       0.000034       0.000000
      0.000030       0.000071       0.000000
      0.000065       0.000108       0.000000
      0.000069       0.000124       0.000000
      0.000030       0.000077       0.000000
      0.000032       0.006987       0.000000
      0.000012       0.007010       0.000000
      0.000010       0.007008       0.000000
      0.000031       0.006977       0.000000
      0.000066       0.006941       0.000000
      0.000031       0.006977       0.000000
      0.000032       0.006972       0.000000
      0.000070       0.006925       0.000000
      0.000031       0.006977       0.000000
      0.000010       0.007008       0.000000
      0.000012       0.007014       0.000000
      0.000032       0.006972       0.000000
      0.000008       0.000034       0.000000
      0.000030       0.000077       0.000000
      0.000034       0.000079       0.000000
      0.000009       0.000020       0.000000
      0.000009       0.000020       0.000000
      0.000034       0.000079       0.000000
      0.000039       0.000076       0.000000
      0.000000       0.000000       0.000000
      0.000034       0.000079       0.000000
      0.000073       0.000141       0.000000
      0.000079       0.000156       0.000000
      0.000039       0.000076       0.000000
      0.000032       0.006972       0.000000
      0.000012       0.007014       0.000000
      0.000019       0.007029       0.000000
      0.000036       0.006971       0.000000
      0.000074       0.006908       0.000000
      0.000036       0.006971       0.000000
      0.000043       0.006975       0.000000
      0.000080       0.006894       0.000000
      0.000036       0.006971       0.000000
      0.000019       0.007029       0.000000
      0.000031       0.007052       0.000000
      0.000043       0.006975       0.000000
     -0.000509       0.003525       0.000000
      0.000062       0.006941       0.000000
      0.000066       0.006959       0.000000
      0.000044       0.003525       0.000000
      0.000062       0.006941       0.000000
      0.000070       0.006986       0.000000
      0.000071       0.006990       0.000000
      0.000066       0.006959       0.000000
      0.000044       0.003525       0.000000
      0.000066       0.006959       0.000000
      0.000075       0.006956       0.000000
      0.000068       0.003525       0.000000
      0.000066       0.006959       0.000000
      0.000071       0.006990       0.000000
      0.000075       0.006986       0.000000
      0.000075       0.006956       0.000000
      0.000067       0.000064       0.000000
      0.000060       0.000110       0.000000
      0.000064       0.000091       0.000000
      0.000069       0.000061       0.000000
      0.000060       0.000110       0.000000
     -0.000509       0.003525       0.000000
      0.000044       0.003525       0.000000
      0.000064       0.000091       0.000000
      0.000069       0.000061       0.000000
      0.000064       0.000091       0.000000
      0.000073       0.000094       0.000000
      0.000072       0.000064       0.000000
      0.000064       0.000091       0.000000
      0.000044       0.003525       0.000000
      0.000068       0.003525       0.000000
      0.000073       0.000094       0.000000
      0.000063       0.007009       0.000000
      0.000054       0.007017       0.000000
      0.000050       0.007003       0.000000
      0.000062       0.006995       0.000000
      0.000054       0.007017       0.000000
      0.000045       0.007025       0.000000
      0.000039       0.007011       0.000000
      0.000050       0.007003       0.000000
      0.000062       0.006995       0.000000
      0.000050       0.007003       0.000000
      0.000048       0.006991       0.000000
      0.000061       0.006982       0.000000
      0.000050       0.007003       0.000000
      0.000039       0.007011       0.000000
      0.000036       0.007001       0.000000
      0.000048       0.006991       0.000000
      0.000070       0.006999       0.000000
      0.000067       0.007005       0.000000
      0.000067       0.006998       0.000000
      0.000072       0.006994       0.000000
      0.000067       0.007005       0.000000
      0.000063       0.007009       0.000000
      0.000062       0.007002       0.000000
      0.000067       0.006998       0.000000
      0.000072       0.006994       0.000000
      0.000067       0.006998       0.000000
      0.000067       0.006991       0.000000
      0.000073       0.006986       0.000000
      0.000067       0.006998       0.000000
      0.000062       0.007002       0.000000
      0.000062       0.006995       0.000000
      0.000067       0.006991       0.000000
      0.000070       0.006986       0.000000
      0.000071       0.006995       0.000000
      0.000072       0.006994       0.000000
      0.000071       0.006990       0.000000
      0.000071       0.006995       0.000000
      0.000070       0.006999       0.000000
      0.000071       0.006997       0.000000
      0.000072       0.006994       0.000000
      0.000071       0.006990       0.000000
      0.000072       0.006994       0.000000
      0.000073       0.006991       0.000000
      0.000075       0.006986       0.000000
      0.000072       0.006994       0.000000
      0.000071       0.006997       0.000000
      0.000072       0.006994       0.000000
      0.000073       0.006991       0.000000
      0.000043       0.000026       0.000000
      0.000052       0.000033       0.000000
      0.000048       0.000047       0.000000
      0.000038       0.000039       0.000000
      0.000052       0.000033       0.000000
      0.000061       0.000041       0.000000
      0.000060       0.000055       0.000000
      0.000048       0.000047       0.000000
      0.000038       0.000039       0.000000
      0.000048       0.000047       0.000000
      0.000046       0.000058       0.000000
      0.000034       0.000049       0.000000
      0.000048       0.000047       0.000000
      0.000060       0.000055       0.000000
      0.000059       0.000068       0.000000
      0.000046       0.000058       0.000000
      0.000061       0.000041       0.000000
      0.000065       0.000046       0.000000
      0.000065       0.000052       0.000000
      0.000060       0.000049       0.000000
      0.000065       0.000046       0.000000
      0.000068       0.000051       0.000000
      0.000069       0.000056       0.000000
      0.000065       0.000052       0.000000
      0.000060       0.000049       0.000000
      0.000065       0.000052       0.000000
      0.000065       0.000059       0.000000
      0.000060       0.000055       0.000000
      0.000065       0.000052       0.000000
      0.000069       0.000056       0.000000
      0.000071       0.000064       0.000000
      0.000065       0.000059       0.000000
      0.000068       0.000051       0.000000
      0.000068       0.000055       0.000000
      0.000070       0.000056       0.000000
      0.000069       0.000053       0.000000
      0.000068       0.000055       0.000000
      0.000067       0.000064       0.000000
      0.000069       0.000061       0.000000
      0.000070       0.000056       0.000000
      0.000069       0.000053       0.000000
      0.000070       0.000056       0.000000
      0.000071       0.000059       0.000000
      0.000069       0.000056       0.000000
      0.000070       0.000056       0.000000
      0.000069       0.000061       0.000000
      0.000072       0.000064       0.000000
      0.000071       0.000059       0.000000
      0.000068       0.003525       0.000000
      0.000075       0.006956       0.000000
      0.000079       0.006952       0.000000
      0.000074       0.003525       0.000000
      0.000075       0.006956       0.000000
      0.000075       0.006986       0.000000
      0.000077       0.006982       0.000000
      0.000079       0.006952       0.000000
      0.000074       0.003525       0.000000
      0.000079       0.006952       0.000000
      0.000082       0.006948       0.000000
      0.000076       0.003525       0.000000
      0.000079       0.006952       0.000000
      0.000077       0.006982       0.000000
      0.000079       0.006978       0.000000
      0.000082       0.006948       0.000000
      0.000072       0.000064       0.000000
      0.000073       0.000094       0.000000
      0.000077       0.000098       0.000000
      0.000074       0.000068       0.000000
      0.000073       0.000094       0.000000
      0.000068       0.003525       0.000000
      0.000074       0.003525       0.000000
      0.000077       0.000098       0.000000
      0.000074       0.000068       0.000000
      0.000077       0.000098       0.000000
      0.000079       0.000102       0.000000
      0.000076       0.000072       0.000000
      0.000077       0.000098       0.000000
      0.000074       0.003525       0.000000
      0.000076       0.003525       0.000000
      0.000079       0.000102       0.000000
      0.000075       0.006986       0.000000
      0.000073       0.006991       0.000000
      0.000075       0.006987       0.000000
      0.000077       0.006982       0.000000
      0.000073       0.006991       0.000000
      0.000072       0.006994       0.000000
      0.000072       0.006990       0.000000
      0.000075       0.006987       0.000000
      0.000077       0.006982       0.000000
      0.000075       0.006987       0.000000
      0.000076       0.006983       0.000000
      0.000079       0.006978       0.000000
      0.000075       0.006987       0.000000
      0.000072       0.006990       0.000000
      0.000073       0.006986       0.000000
      0.000076       0.006983       0.000000
      0.000069       0.000056       0.000000
      0.000071       0.000059       0.000000
      0.000072       0.000063       0.000000
      0.000070       0.000060       0.000000
      0.000071       0.000059       0.000000
      0.000072       0.000064       0.000000
      0.000074       0.000068       0.000000
      0.000072       0.000063       0.000000
      0.000070       0.000060       0.000000
      0.000072       0.000063       0.000000
      0.000073       0.000067       0.000000
      0.000071       0.000064       0.000000
      0.000072       0.000063       0.000000
      0.000074       0.000068       0.000000
      0.000076       0.000072       0.000000
      0.000073       0.000067       0.000000
      0.000061       0.000090       0.000000
      0.000079       0.000105       0.000000
      0.000082       0.000117       0.000000
      0.000063       0.000099       0.000000
      0.000081       0.006944       0.000000
      0.000063       0.006959       0.000000
      0.000064       0.006950       0.000000
      0.000084       0.006932       0.000000
      0.000073       0.006986       0.000000
      0.000067       0.006991       0.000000
      0.000068       0.006983       0.000000
      0.000074       0.006978       0.000000
      0.000067       0.006991       0.000000
      0.000062       0.006995       0.000000
      0.000061       0.006988       0.000000
      0.000068       0.006983       0.000000
      0.000074       0.006978       0.000000
      0.000068       0.006983       0.000000
      0.000068       0.006976       0.000000
      0.000075       0.006971       0.000000
      0.000068       0.006983       0.000000
      0.000061       0.006988       0.000000
      0.000061       0.006982       0.000000
      0.000068       0.006976       0.000000
      0.000060       0.000055       0.000000
      0.000065       0.000059       0.000000
      0.000065       0.000066       0.000000
      0.000059       0.000062       0.000000
      0.000065       0.000059       0.000000
      0.000071       0.000064       0.000000
      0.000072       0.000071       0.000000
      0.000065       0.000066       0.000000
      0.000059       0.000062       0.000000
      0.000065       0.000066       0.000000
      0.000066       0.000073       0.000000
      0.000059       0.000068       0.000000
      0.000065       0.000066       0.000000
      0.000072       0.000071       0.000000
      0.000073       0.000079       0.000000
      0.000066       0.000073       0.000000
      0.000076       0.003525       0.000000
      0.000082       0.006948       0.000000
      0.000083       0.006943       0.000000