# vtk DataFile Version 2.0
time_10.vtk
ASCII
DATASET UNSTRUCTURED_GRID
POINTS   576 float
      0.458579       0.641421       0.000000
      0.497369       0.671659       0.000000
      0.438243       0.730363       0.000000
      0.382149       0.701184       0.000000
      0.497369       0.671659       0.000000
      0.545805       0.692517       0.000000
      0.506084       0.750000       0.000000
      0.438243       0.730363       0.000000
      0.382149       0.701184       0.000000
      0.438243       0.730363       0.000000
      0.380813       0.787383       0.000000
      0.305719       0.760948       0.000000
      0.438243       0.730363       0.000000
      0.506084       0.750000       0.000000
      0.468251       0.804752       0.000000
      0.380813       0.787383       0.000000
      0.545805       0.692517       0.000000
      0.600000       0.700000       0.000000
      0.581017       0.756950       0.000000
      0.506084       0.750000       0.000000
      0.600000       0.700000       0.000000
      0.654195       0.692517       0.000000
      0.656527       0.750000       0.000000
      0.581017       0.756950       0.000000
      0.506084       0.750000       0.000000
      0.581017       0.756950       0.000000
      0.563060       0.810819       0.000000
      0.468251       0.804752       0.000000
      0.581017       0.756950       0.000000
      0.656527       0.750000       0.000000
      0.658747       0.804752       0.000000
      0.563060       0.810819       0.000000
      0.654195       0.692517       0.000000
      0.702631       0.671659       0.000000
      0.725999       0.730363       0.000000
      0.656527       0.750000       0.000000
      0.702631       0.671659       0.000000
      0.741421       0.641421       0.000000
      0.784518       0.701184       0.000000
      0.725999       0.730363       0.000000
      0.656527       0.750000       0.000000
      0.725999       0.730363       0.000000
      0.748697       0.787383       0.000000
      0.658747       0.804752       0.000000
      0.725999       0.730363       0.000000
      0.784518       0.701184       0.000000
      0.827614       0.760948       0.000000
      0.748697       0.787383       0.000000
      0.305719       0.760948       0.000000
      0.380813       0.787383       0.000000
      0.325006       0.842791       0.000000
      0.229289       0.820711       0.000000
      0.380813       0.787383       0.000000
      0.468251       0.804752       0.000000
      0.432173       0.856962       0.000000
      0.325006       0.842791       0.000000
      0.229289       0.820711       0.000000
      0.325006       0.842791       0.000000
      0.270755       0.896655       0.000000
      0.152860       0.880474       0.000000
      0.325006       0.842791       0.000000
      0.432173       0.856962       0.000000
      0.397732       0.906804       0.000000
      0.270755       0.896655       0.000000
      0.468251       0.804752       0.000000
      0.563060       0.810819       0.000000
      0.546050       0.861851       0.000000
      0.432173       0.856962       0.000000
      0.563060       0.810819       0.000000
      0.658747       0.804752       0.000000
      0.660865       0.856962       0.000000
      0.546050       0.861851       0.000000
      0.432173       0.856962       0.000000
      0.546050       0.861851       0.000000
      0.529912       0.910264       0.000000
      0.397732       0.906804       0.000000
      0.546050       0.861851       0.000000
      0.660865       0.856962       0.000000
      0.662887       0.906804       0.000000
      0.529912       0.910264       0.000000
      0.658747       0.804752       0.000000
      0.748697       0.787383       0.000000
      0.770753       0.842791       0.000000
      0.660865       0.856962       0.000000
      0.748697       0.787383       0.000000
      0.827614       0.760948       0.000000
      0.870711       0.820711       0.000000
      0.770753       0.842791       0.000000
      0.660865       0.856962       0.000000
      0.770753       0.842791       0.000000
      0.792195       0.896655       0.000000
      0.662887       0.906804       0.000000
      0.770753       0.842791       0.000000
      0.870711       0.820711       0.000000
      0.913807       0.880474       0.000000
      0.792195       0.896655       0.000000
      0.152860       0.880474       0.000000
      0.270755       0.896655       0.000000
      0.217995       0.949038       0.000000
      0.076430       0.940237       0.000000
      0.270755       0.896655       0.000000
      0.397732       0.906804       0.000000
      0.364819       0.954435       0.000000
      0.217995       0.949038       0.000000
      0.076430       0.940237       0.000000
      0.217995       0.949038       0.000000
      0.166667       1.000000       0.000000
      0.000000       1.000000       0.000000
      0.217995       0.949038       0.000000
      0.364819       0.954435       0.000000
      0.333333       1.000000       0.000000
      0.166667       1.000000       0.000000
      0.397732       0.906804       0.000000
      0.529912       0.910264       0.000000
      0.514582       0.956255       0.000000
      0.364819       0.954435       0.000000
      0.529912       0.910264       0.000000
      0.662887       0.906804       0.000000
      0.664819       0.954435       0.000000
      0.514582       0.956255       0.000000
      0.364819       0.954435       0.000000
      0.514582       0.956255       0.000000
      0.500000       1.000000       0.000000
      0.333333       1.000000       0.000000
      0.514582       0.956255       0.000000
      0.664819       0.954435       0.000000
      0.666667       1.000000       0.000000
      0.500000       1.000000       0.000000
      0.662887       0.906804       0.000000
      0.792195       0.896655       0.000000
      0.813047       0.949038       0.000000
      0.664819       0.954435       0.000000
      0.792195       0.896655       0.000000
      0.913807       0.880474       0.000000
      0.956904       0.940237       0.000000
      0.813047       0.949038       0.000000
      0.664819       0.954435       0.000000
      0.813047       0.949038       0.000000
      0.833333       1.000000       0.000000
      0.666667       1.000000       0.000000
      0.813047       0.949038       0.000000
      0.956904       0.940237       0.000000
      1.000000       1.000000       0.000000
      0.833333       1.000000       0.000000
      0.458579       0.358579       0.000000
      0.428341       0.397369       0.000000
      0.351758       0.356122       0.000000
      0.382149       0.298816       0.000000
      0.428341       0.397369       0.000000
      0.407483       0.445805       0.000000
      0.331305       0.424779       0.000000
      0.351758       0.356122       0.000000
      0.382149       0.298816       0.000000
      0.351758       0.356122       0.000000
      0.277372       0.316058       0.000000
      0.305719       0.239052       0.000000
      0.351758       0.356122       0.000000
      0.331305       0.424779       0.000000
      0.258747       0.404752       0.000000
      0.277372       0.316058       0.000000
      0.407483       0.445805       0.000000
      0.400000       0.500000       0.000000
      0.324066       0.500000       0.000000
      0.331305       0.424779       0.000000
      0.400000       0.500000       0.000000
      0.407483       0.554195       0.000000
      0.331305       0.575221       0.000000
      0.324066       0.500000       0.000000
      0.331305       0.424779       0.000000
      0.324066       0.500000       0.000000
      0.252241       0.500000       0.000000
      0.258747       0.404752       0.000000
      0.324066       0.500000       0.000000
      0.331305       0.575221       0.000000
      0.258747       0.595248       0.000000
      0.252241       0.500000       0.000000
      0.407483       0.554195       0.000000
      0.428341       0.602631       0.000000
      0.351758       0.643878       0.000000
      0.331305       0.575221       0.000000
      0.428341       0.602631       0.000000
      0.458579       0.641421       0.000000
      0.382149       0.701184       0.000000
      0.351758       0.643878       0.000000
      0.331305       0.575221       0.000000
      0.351758       0.643878       0.000000
      0.277372       0.683942       0.000000
      0.258747       0.595248       0.000000
      0.351758       0.643878       0.000000
      0.382149       0.701184       0.000000
      0.305719       0.760948       0.000000
      0.277372       0.683942       0.000000
      0.305719       0.239052       0.000000
      0.277372       0.316058       0.000000
      0.205089       0.277126       0.000000
      0.229289       0.179289       0.000000
      0.277372       0.316058       0.000000
      0.258747       0.404752       0.000000
      0.189557       0.385654       0.000000
      0.205089       0.277126       0.000000
      0.229289       0.179289       0.000000
      0.205089       0.277126       0.000000
      0.134820       0.239280       0.000000
      0.152860       0.119526       0.000000
      0.205089       0.277126       0.000000
      0.189557       0.385654       0.000000
      0.123505       0.367423       0.000000
      0.134820       0.239280       0.000000
      0.258747       0.404752       0.000000
      0.252241       0.500000       0.000000
      0.184198       0.500000       0.000000
      0.189557       0.385654       0.000000
      0.252241       0.500000       0.000000
      0.258747       0.595248       0.000000
      0.189557       0.614346       0.000000
      0.184198       0.500000       0.000000
      0.189557       0.385654       0.000000
      0.184198       0.500000       0.000000
      0.119648       0.500000       0.000000
      0.123505       0.367423       0.000000
[...]
POINT_DATA   576
VECTORS U float 
      0.000362       0.004711       0.000000
      0.000187       0.005054       0.000000
      0.000031       0.004799       0.000000
      0.000241       0.004369       0.000000
      0.000187       0.005054       0.000000
      0.000001       0.005283       0.000000
     -0.000108       0.005184       0.000000
      0.000031       0.004799       0.000000
      0.000241       0.004369       0.000000
      0.000031       0.004799       0.000000
      0.000057       0.004778       0.000000
      0.000307       0.004420       0.000000
      0.000031       0.004799       0.000000
     -0.000108       0.005184       0.000000
     -0.000119       0.005144       0.000000
      0.000057       0.004778       0.000000
      0.000001       0.005283       0.000000
     -0.000192       0.005377       0.000000
     -0.000181       0.005400       0.000000
     -0.000108       0.005184       0.000000
     -0.000192       0.005377       0.000000
     -0.000404       0.005328       0.000000
     -0.000251       0.005363       0.000000
     -0.000181       0.005400       0.000000
     -0.000108       0.005184       0.000000
     -0.000181       0.005400       0.000000
     -0.000180       0.005398       0.000000
     -0.000119       0.005144       0.000000
     -0.000181       0.005400       0.000000
     -0.000251       0.005363       0.000000
     -0.000191       0.005388       0.000000
     -0.000180       0.005398       0.000000
     -0.000404       0.005328       0.000000
     -0.000642       0.005137       0.000000
     -0.000380       0.005075       0.000000
     -0.000251       0.005363       0.000000
     -0.000642       0.005137       0.000000
     -0.000899       0.004820       0.000000
     -0.000607       0.004635       0.000000
     -0.000380       0.005075       0.000000
     -0.000251       0.005363       0.000000
     -0.000380       0.005075       0.000000
     -0.000276       0.005099       0.000000
     -0.000191       0.005388       0.000000
     -0.000380       0.005075       0.000000
     -0.000607       0.004635       0.000000
     -0.000491       0.004667       0.000000
     -0.000276       0.005099       0.000000
      0.000307       0.004420       0.000000
      0.000057       0.004778       0.000000
      0.000118       0.004885       0.000000
      0.000402       0.004616       0.000000
      0.000057       0.004778       0.000000
     -0.000119       0.005144       0.000000
     -0.000099       0.005179       0.000000
      0.000118       0.004885       0.000000
      0.000402       0.004616       0.000000
      0.000118       0.004885       0.000000
      0.000192       0.005066       0.000000
      0.000514       0.004880       0.000000
      0.000118       0.004885       0.000000
     -0.000099       0.005179       0.000000
     -0.000068       0.005268       0.000000
      0.000192       0.005066       0.000000
     -0.000119       0.005144       0.000000
     -0.000180       0.005398       0.000000
     -0.000174       0.005414       0.000000
     -0.000099       0.005179       0.000000
     -0.000180       0.005398       0.000000
     -0.000191       0.005388       0.000000
     -0.000159       0.005423       0.000000
     -0.000174       0.005414       0.000000
     -0.000099       0.005179       0.000000
     -0.000174       0.005414       0.000000
     -0.000167       0.005448       0.000000
     -0.000068       0.005268       0.000000
     -0.000174       0.005414       0.000000
     -0.000159       0.005423       0.000000
     -0.000140       0.005465       0.000000
     -0.000167       0.005448       0.000000
     -0.000191       0.005388       0.000000
     -0.000276       0.005099       0.000000
     -0.000221       0.005168       0.000000
     -0.000159       0.005423       0.000000
     -0.000276       0.005099       0.000000
     -0.000491       0.004667       0.000000
     -0.000427       0.004782       0.000000
     -0.000221       0.005168       0.000000
     -0.000159       0.005423       0.000000
     -0.000221       0.005168       0.000000
     -0.000192       0.005270       0.000000
     -0.000140       0.005465       0.000000
     -0.000221       0.005168       0.000000
     -0.000427       0.004782       0.000000
     -0.000409       0.004965       0.000000
     -0.000192       0.005270       0.000000
      0.000514       0.004880       0.000000
      0.000192       0.005066       0.000000
      0.000283       0.005296       0.000000
      0.000656       0.005191       0.000000
      0.000192       0.005066       0.000000
     -0.000068       0.005268       0.000000
     -0.000030       0.005398       0.000000
      0.000283       0.005296       0.000000
      0.000656       0.005191       0.000000
      0.000283       0.005296       0.000000
      0.000399       0.005562       0.000000
      0.000851       0.005562       0.000000
      0.000283       0.005296       0.000000
     -0.000030       0.005398       0.000000
      0.000019       0.005562       0.000000
      0.000399       0.005562       0.000000
     -0.000068       0.005268       0.000000
     -0.000167       0.005448       0.000000
     -0.000162       0.005499       0.000000
     -0.000030       0.005398       0.000000
     -0.000167       0.005448       0.000000
     -0.000140       0.005465       0.000000
     -0.000130       0.005513       0.000000
     -0.000162       0.005499       0.000000
     -0.000030       0.005398       0.000000
     -0.000162       0.005499       0.000000
     -0.000158       0.005562       0.000000
      0.000019       0.005562       0.000000
     -0.000162       0.005499       0.000000
     -0.000130       0.005513       0.000000
     -0.000126       0.005562       0.000000
     -0.000158       0.005562       0.000000
     -0.000140       0.005465       0.000000
     -0.000192       0.005270       0.000000
     -0.000184       0.005401       0.000000
     -0.000130       0.005513       0.000000
     -0.000192       0.005270       0.000000
     -0.000409       0.004965       0.000000
     -0.000445       0.005225       0.000000
     -0.000184       0.005401       0.000000
     -0.000130       0.005513       0.000000
     -0.000184       0.005401       0.000000
     -0.000197       0.005562       0.000000
     -0.000126       0.005562       0.000000
     -0.000184       0.005401       0.000000
     -0.000445       0.005225       0.000000
     -0.000533       0.005562       0.000000
     -0.000197       0.005562       0.000000
      0.000315       0.000734       0.000000
      0.000479       0.001185       0.000000
      0.000470       0.001544       0.000000
      0.000192       0.001063       0.000000
      0.000479       0.001185       0.000000
      0.000607       0.001829       0.000000
      0.000776       0.002111       0.000000
      0.000470       0.001544       0.000000
      0.000192       0.001063       0.000000
      0.000470       0.001544       0.000000
      0.000537       0.001538       0.000000
      0.000231       0.001011       0.000000
      0.000470       0.001544       0.000000
      0.000776       0.002111       0.000000
      0.000876       0.002138       0.000000
      0.000537       0.001538       0.000000
      0.000607       0.001829       0.000000
      0.000650       0.002704       0.000000
      0.000934       0.002716       0.000000
      0.000776       0.002111       0.000000
      0.000650       0.002704       0.000000
      0.000632       0.003585       0.000000
      0.000808       0.003318       0.000000
      0.000934       0.002716       0.000000
      0.000776       0.002111       0.000000
      0.000934       0.002716       0.000000
      0.001049       0.002725       0.000000
      0.000876       0.002138       0.000000
      0.000934       0.002716       0.000000
      0.000808       0.003318       0.000000
      0.000910       0.003305       0.000000
      0.001049       0.002725       0.000000
      0.000632       0.003585       0.000000
      0.000522       0.004242       0.000000
      0.000520       0.003881       0.000000
      0.000808       0.003318       0.000000
      0.000522       0.004242       0.000000
      0.000362       0.004711       0.000000
      0.000241       0.004369       0.000000
      0.000520       0.003881       0.000000
      0.000808       0.003318       0.000000
      0.000520       0.003881       0.000000
      0.000598       0.003893       0.000000
      0.000910       0.003305       0.000000
      0.000520       0.003881       0.000000
      0.000241       0.004369       0.000000
      0.000307       0.004420       0.000000
      0.000598       0.003893       0.000000
      0.000231       0.001011       0.000000
      0.000537       0.001538       0.000000
      0.000612       0.001431       0.000000
      0.000272       0.000823       0.000000
      0.000537       0.001538       0.000000
      0.000876       0.002138       0.000000
      0.000975       0.002100       0.000000
      0.000612       0.001431       0.000000
      0.000272       0.000823       0.000000
      0.000612       0.001431       0.000000
      0.000682       0.001310       0.000000
      0.000281       0.000584       0.000000
      0.000612       0.001431       0.000000
      0.000975       0.002100       0.000000
      0.001077       0.002058       0.000000
      0.000682       0.001310       0.000000
      0.000876       0.002138       0.000000
      0.001049       0.002725       0.000000
      0.001156       0.002736       0.000000
      0.000975       0.002100       0.000000
      0.001049       0.002725       0.000000
      0.000910       0.003305       0.000000
      0.001013       0.003365       0.000000
      0.001156       0.002736       0.000000
      0.000975       0.002100       0.000000
      0.001156       0.002736       0.000000
      0.001270       0.002749       0.000000
      0.001077       0.002058       0.000000
      0.001156       0.002736       0.000000
      0.001013       0.003365       0.000000
      0.001119       0.003435       0.000000
      0.001270       0.002749       0.000000
      0.000910       0.003305       0.000000
      0.000598       0.003893       0.000000
      0.000692       0.004016       0.000000
      0.001013       0.003365       0.000000
      0.000598       0.003893       0.000000
      0.000307       0.004420       0.000000
      0.000402       0.004616       0.000000
      0.000692       0.004016       0.000000
      0.001013       0.003365       0.000000
      0.000692       0.004016       0.000000
      0.000787       0.004167       0.000000
      0.001119       0.003435       0.000000
      0.000692       0.004016       0.000000
      0.000402       0.004616       0.000000
      0.000514       0.004880       0.000000
      0.000787       0.004167       0.000000
      0.000281       0.000584       0.000000
      0.000682       0.001310       0.000000
      0.000742       0.001220       0.000000
      0.000227       0.000320       0.000000
      0.000682       0.001310       0.000000
      0.001077       0.002058       0.000000
      0.001175       0.002042       0.000000
      0.000742       0.001220       0.000000
      0.000227       0.000320       0.000000
      0.000742       0.001220       0.000000
      0.000795       0.001177       0.000000
      0.000000       0.000000       0.000000
      0.000742       0.001220       0.000000
      0.001175       0.002042       0.000000
      0.001261       0.002073       0.000000
      0.000795       0.001177       0.000000
      0.001077       0.002058       0.000000
      0.001270       0.002749       0.000000
      0.001386       0.002761       0.000000
      0.001175       0.002042       0.000000
      0.001270       0.002749       0.000000
      0.001119       0.003435       0.000000
      0.001223       0.003484       0.000000
      0.001386       0.002761       0.000000
      0.001175       0.002042       0.000000
      0.001386       0.002761       0.000000
      0.001492       0.002771       0.000000
      0.001261       0.002073       0.000000
      0.001386       0.002761       0.000000
      0.001223       0.003484       0.000000
      0.001320       0.003485       0.000000
      0.001492       0.002771       0.000000
      0.001119       0.003435       0.000000
      0.000787       0.004167       0.000000
      0.000885       0.004312       0.000000
      0.001223       0.003484       0.000000
      0.000787       0.004167       0.000000
      0.000514       0.004880       0.000000
      0.000656       0.005191       0.000000
      0.000885       0.004312       0.000000
      0.001223       0.003484       0.000000
      0.000885       0.004312       0.000000
      0.000995       0.004439       0.000000
      0.001320       0.003485       0.000000
      0.000885       0.004312       0.000000
      0.000656       0.005191       0.000000
      0.000851       0.005562       0.000000
      0.000995       0.004439       0.000000
     -0.000844       0.000689       0.000000
     -0.000582       0.000372       0.000000
     -0.000312       0.000440       0.000000
     -0.000538       0.000882       0.000000
     -0.000582       0.000372       0.000000
     -0.000354       0.000184       0.000000
     -0.000196       0.000158       0.000000
     -0.000312       0.000440       0.000000
     -0.000538       0.000882       0.000000
     -0.000312       0.000440       0.000000
     -0.000184       0.000423       0.000000
     -0.000397       0.000859       0.000000
     -0.000312       0.000440       0.000000
     -0.000196       0.000158       0.000000
     -0.000118       0.000141       0.000000
     -0.000184       0.000423       0.000000
     -0.000354       0.000184       0.000000
     -0.000169       0.000132       0.000000
     -0.000150       0.000114       0.000000
     -0.000196       0.000158       0.000000
     -0.000169       0.000132       0.000000
     -0.000008       0.000210       0.000000
     -0.000107       0.000303       0.000000
     -0.000150       0.000114       0.000000
     -0.000196       0.000158       0.000000
     -0.000150       0.000114       0.000000
     -0.000138       0.000123       0.000000
     -0.000118       0.000141       0.000000
     -0.000150       0.000114       0.000000
     -0.000107       0.000303       0.000000
     -0.000122       0.000342       0.000000
     -0.000138       0.000123       0.000000
     -0.000008       0.000210       0.000000
      0.000151       0.000415       0.000000
      0.000001       0.000654       0.000000
     -0.000107       0.000303       0.000000
      0.000151       0.000415       0.000000
      0.000315       0.000734       0.000000
      0.000192       0.001063       0.000000
      0.000001       0.000654       0.000000
     -0.000107       0.000303       0.000000
      0.000001       0.000654       0.000000
      0.000008       0.000672       0.000000
     -0.000122       0.000342       0.000000
      0.000001       0.000654       0.000000
      0.000192       0.001063       0.000000
      0.000231       0.001011       0.000000
      0.000008       0.000672       0.000000
     -0.000397       0.000859       0.000000
     -0.000184       0.000423       0.000000
     -0.000099       0.000359       0.000000
     -0.000301       0.000749       0.000000
     -0.000184       0.000423       0.000000
     -0.000118       0.000141       0.000000
     -0.000065       0.000118       0.000000
     -0.000099       0.000359       0.000000
     -0.000301       0.000749       0.000000
     -0.000099       0.000359       0.000000
     -0.000038       0.000262       0.000000
     -0.000236       0.000571       0.000000
     -0.000099       0.000359       0.000000
     -0.000065       0.000118       0.000000
     -0.000027       0.000087       0.000000
     -0.000038       0.000262       0.000000
     -0.000118       0.000141       0.000000
     -0.000138       0.000123       0.000000
     -0.000120       0.000117       0.000000
     -0.000065       0.000118       0.000000
     -0.000138       0.000123       0.000000
     -0.000122       0.000342       0.000000
     -0.000107       0.000312       0.000000
     -0.000120       0.000117       0.000000
     -0.000065       0.000118       0.000000
     -0.000120       0.000117       0.000000
     -0.000095       0.000093       0.000000
     -0.000027       0.000087       0.000000
     -0.000120       0.000117       0.000000
     -0.000107       0.000312       0.000000
     -0.000081       0.000233       0.000000
     -0.000095       0.000093       0.000000
     -0.000122       0.000342       0.000000
      0.000008       0.000672       0.000000
      0.000036       0.000567       0.000000
     -0.000107       0.000312       0.000000
      0.000008       0.000672       0.000000
      0.000231       0.001011       0.000000
      0.000272       0.000823       0.000000
      0.000036       0.000567       0.000000
     -0.000107       0.000312       0.000000
      0.000036       0.000567       0.000000
      0.000054       0.000398       0.000000
     -0.000081       0.000233       0.000000
      0.000036       0.000567       0.000000
      0.000272       0.000823       0.000000
      0.000281       0.000584       0.000000
      0.000054       0.000398       0.000000
     -0.000236       0.000571       0.000000
     -0.000038       0.000262       0.000000
     -0.000002       0.000139       0.000000
     -0.000181       0.000321       0.000000
     -0.000038       0.000262       0.000000
     -0.000027       0.000087       0.000000
     -0.000004       0.000048       0.000000
     -0.000002       0.000139       0.000000
     -0.000181       0.000321       0.000000
     -0.000002       0.000139       0.000000
      0.000000       0.000000       0.000000
      0.000000       0.000000       0.000000
     -0.000002       0.000139       0.000000
     -0.000004       0.000048       0.000000
      0.000000       0.000000       0.000000
      0.000000       0.000000       0.000000
     -0.000027       0.000087       0.000000
     -0.000095       0.000093       0.000000
     -0.000058       0.000054       0.000000
     -0.000004       0.000048       0.000000
     -0.000095       0.000093       0.000000
     -0.000081       0.000233       0.000000
     -0.000045       0.000123       0.000000
     -0.000058       0.000054       0.000000
     -0.000004       0.000048       0.000000
     -0.000058       0.000054       0.000000
      0.000000       0.000000       0.000000
      0.000000       0.000000       0.000000
     -0.000058       0.000054       0.000000
     -0.000045       0.000123       0.000000
      0.000000       0.000000       0.000000
      0.000000       0.000000       0.000000
     -0.000081       0.000233       0.000000
      0.000054       0.000398       0.000000
      0.000046       0.000201       0.000000
     -0.000045       0.000123       0.000000
      0.000054       0.000398       0.000000
      0.000281       0.000584       0.000000
      0.000227       0.000320       0.000000
      0.000046       0.000201       0.000000
     -0.000045       0.000123       0.000000
      0.000046       0.000201       0.000000
      0.000000       0.000000       0.000000
      0.000000       0.000000       0.000000
      0.000046       0.000201       0.000000
      0.000227       0.000320       0.000000
      0.000000       0.000000       0.000000
      0.000000       0.000000       0.000000
     -0.000844       0.000689       0.000000
     -0.001129       0.001149       0.000000
     -0.000935       0.001365       0.000000
     -0.000538       0.000882       0.000000
     -0.001129       0.001149       0.000000
     -0.001378       0.001817       0.000000
     -0.001416       0.001979       0.000000
     -0.000935       0.001365       0.000000
     -0.000538       0.000882       0.000000
     -0.000935       0.001365       0.000000
     -0.000817       0.001384       0.000000