# vtk DataFile Version 2.0
time_10.vtk
ASCII
DATASET UNSTRUCTURED_GRID
POINTS   792 float
      0.458579       0.641421       0.000000
      0.497369       0.671659       0.000000
      0.438243       0.730363       0.000000
      0.382149       0.701184       0.000000
      0.497369       0.671659       0.000000
      0.545805       0.692517       0.000000
      0.506084       0.750000       0.000000
      0.438243       0.730363       0.000000
      0.382149       0.701184       0.000000
      0.438243       0.730363       0.000000
      0.380813       0.787383       0.000000
      0.305719       0.760948       0.000000
      0.438243       0.730363       0.000000
      0.506084       0.750000       0.000000
      0.468251       0.804752       0.000000
      0.380813       0.787383       0.000000
      0.545805       0.692517       0.000000
      0.600000       0.700000       0.000000
      0.581017       0.756950       0.000000
      0.506084       0.750000       0.000000
      0.600000       0.700000       0.000000
      0.654195       0.692517       0.000000
      0.656527       0.750000       0.000000
      0.581017       0.756950       0.000000
      0.506084       0.750000       0.000000
      0.581017       0.756950       0.000000
      0.563060       0.810819       0.000000
      0.468251       0.804752       0.000000
      0.581017       0.756950       0.000000
      0.656527       0.750000       0.000000
      0.658747       0.804752       0.000000
      0.563060       0.810819       0.000000
      0.654195       0.692517       0.000000
      0.702631       0.671659       0.000000
      0.725999       0.730363       0.000000
      0.656527       0.750000       0.000000
      0.702631       0.671659       0.000000
      0.741421       0.641421       0.000000
      0.784518       0.701184       0.000000
      0.725999       0.730363       0.000000
      0.656527       0.750000       0.000000
      0.725999       0.730363       0.000000
      0.748697       0.787383       0.000000
      0.658747       0.804752       0.000000
      0.725999       0.730363       0.000000
      0.784518       0.701184       0.000000
      0.827614       0.760948       0.000000
      0.748697       0.787383       0.000000
      0.305719       0.760948       0.000000
      0.380813       0.787383       0.000000
      0.325006       0.842791       0.000000
      0.229289       0.820711       0.000000
      0.380813       0.787383       0.000000
      0.468251       0.804752       0.000000
      0.432173       0.856962       0.000000
      0.325006       0.842791       0.000000
      0.229289       0.820711       0.000000
      0.325006       0.842791       0.000000
      0.270755       0.896655       0.000000
      0.152860       0.880474       0.000000
      0.325006       0.842791       0.000000
      0.432173       0.856962       0.000000
      0.397732       0.906804       0.000000
      0.270755       0.896655       0.000000
      0.468251       0.804752       0.000000
      0.563060       0.810819       0.000000
      0.546050       0.861851       0.000000
      0.432173       0.856962       0.000000
      0.563060       0.810819       0.000000
      0.658747       0.804752       0.000000
      0.660865       0.856962       0.000000
      0.546050       0.861851       0.000000
      0.432173       0.856962       0.000000
      0.546050       0.861851       0.000000
      0.529912       0.910264       0.000000
      0.397732       0.906804       0.000000
      0.546050       0.861851       0.000000
      0.660865       0.856962       0.000000
      0.662887       0.906804       0.000000
      0.529912       0.910264       0.000000
      0.658747       0.804752       0.000000
      0.748697       0.787383       0.000000
      0.770753       0.842791       0.000000
      0.660865       0.856962       0.000000
      0.748697       0.787383       0.000000
      0.827614       0.760948       0.000000
      0.870711       0.820711       0.000000
      0.770753       0.842791       0.000000
      0.660865       0.856962       0.000000
      0.770753       0.842791       0.000000
      0.792195       0.896655       0.000000
      0.662887       0.906804       0.000000
      0.770753       0.842791       0.000000
      0.870711       0.820711       0.000000
      0.913807       0.880474       0.000000
      0.792195       0.896655       0.000000
      0.152860       0.880474       0.000000
      0.270755       0.896655       0.000000
      0.217995       0.949038       0.000000
      0.076430       0.940237       0.000000
      0.270755       0.896655       0.000000
      0.397732       0.906804       0.000000
      0.364819       0.954435       0.000000
      0.217995       0.949038       0.000000
      0.076430       0.940237       0.000000
      0.217995       0.949038       0.000000
      0.166667       1.000000       0.000000
      0.000000       1.000000       0.000000
      0.217995       0.949038       0.000000
      0.364819       0.954435       0.000000
      0.333333       1.000000       0.000000
      0.166667       1.000000       0.000000
      0.397732       0.906804       0.000000
      0.529912       0.910264       0.000000
      0.514582       0.956255       0.000000
      0.364819       0.954435       0.000000
      0.529912       0.910264       0.000000
      0.662887       0.906804       0.000000
      0.664819       0.954435       0.000000
      0.514582       0.956255       0.000000
      0.364819       0.954435       0.000000
      0.514582       0.956255       0.000000
      0.500000       1.000000       0.000000
      0.333333       1.000000       0.000000
      0.514582       0.956255       0.000000
      0.664819       0.954435       0.000000
      0.666667       1.000000       0.000000
      0.500000       1.000000       0.000000
      0.662887       0.906804       0.000000
      0.792195       0.896655       0.000000
      0.813047       0.949038       0.000000
      0.664819       0.954435       0.000000
      0.792195       0.896655       0.000000
      0.913807       0.880474       0.000000
      0.956904       0.940237       0.000000
      0.813047       0.949038       0.000000
      0.664819       0.954435       0.000000
      0.813047       0.949038       0.000000
      0.833333       1.000000       0.000000
      0.666667       1.000000       0.000000
      0.813047       0.949038       0.000000
      0.956904       0.940237       0.000000
      1.000000       1.000000       0.000000
      0.833333       1.000000       0.000000
      0.458579       0.358579       0.000000
      0.428341       0.397369       0.000000
      0.351758       0.356122       0.000000
      0.382149       0.298816       0.000000
      0.428341       0.397369       0.000000
      0.407483       0.445805       0.000000
      0.331305       0.424779       0.000000
      0.351758       0.356122       0.000000
      0.382149       0.298816       0.000000
      0.351758       0.356122       0.000000
      0.277372       0.316058       0.000000
      0.305719       0.239052       0.000000
      0.351758       0.356122       0.000000
      0.331305       0.424779       0.000000
      0.258747       0.404752       0.000000
      0.277372       0.316058       0.000000
      0.407483       0.445805       0.000000
      0.400000       0.500000       0.000000
      0.324066       0.500000       0.000000
      0.331305       0.424779       0.000000
      0.400000       0.500000       0.000000
      0.407483       0.554195       0.000000
      0.331305       0.575221       0.000000
      0.324066       0.500000       0.000000
      0.331305       0.424779       0.000000
      0.324066       0.500000       0.000000
      0.252241       0.500000       0.000000
      0.258747       0.404752       0.000000
      0.324066       0.500000       0.000000
      0.331305       0.575221       0.000000
      0.258747       0.595248       0.000000
      0.252241       0.500000       0.000000
      0.407483       0.554195       0.000000
      0.428341       0.602631       0.000000
      0.351758       0.643878       0.000000
      0.331305       0.575221       0.000000
      0.428341       0.602631       0.000000
      0.458579       0.641421       0.000000
      0.382149       0.701184       0.000000
      0.351758       0.643878       0.000000
      0.331305       0.575221       0.000000
      0.351758       0.643878       0.000000
      0.277372       0.683942       0.000000
      0.258747       0.595248       0.000000
      0.351758       0.643878       0.000000
      0.382149       0.701184       0.000000
      0.305719       0.760948       0.000000
      0.277372       0.683942       0.000000
      0.305719       0.239052       0.000000
      0.277372       0.316058       0.000000
      0.205089       0.277126       0.000000
      0.229289       0.179289       0.000000
      0.277372       0.316058       0.000000
      0.258747       0.404752       0.000000
      0.189557       0.385654       0.000000
      0.205089       0.277126       0.000000
      0.229289       0.179289       0.000000
      0.205089       0.277126       0.000000
      0.134820       0.239280       0.000000
      0.152860       0.119526       0.000000
      0.205089       0.277126       0.000000
      0.189557       0.385654       0.000000
      0.123505       0.367423       0.000000
      0.134820       0.239280       0.000000
      0.258747       0.404752       0.000000
      0.252241       0.500000       0.000000
      0.184198       0.500000       0.000000
      0.189557       0.385654       0.000000
      0.252241       0.500000       0.000000
      0.258747       0.595248       0.000000
      0.189557       0.614346       0.000000
      0.184198       0.500000       0.000000
      0.189557       0.385654       0.000000
      0.184198       0.500000       0.000000
      0.119648       0.500000       0.000000
      0.123505       0.367423       0.000000
[...]
POINT_DATA   792
VECTORS U float 
      0.000429       0.005573       0.000000
      0.000221       0.005954       0.000000
      0.000037       0.005663       0.000000
      0.000278       0.005171       0.000000
      0.000221       0.005954       0.000000
      0.000005       0.006208       0.000000
     -0.000120       0.006096       0.000000
      0.000037       0.005663       0.000000
      0.000278       0.005171       0.000000
      0.000037       0.005663       0.000000
      0.000059       0.005629       0.000000
      0.000346       0.005207       0.000000
      0.000037       0.005663       0.000000
     -0.000120       0.006096       0.000000
     -0.000138       0.006048       0.000000
      0.000059       0.005629       0.000000
      0.000005       0.006208       0.000000
     -0.000216       0.006312       0.000000
     -0.000204       0.006339       0.000000
     -0.000120       0.006096       0.000000
     -0.000216       0.006312       0.000000
     -0.000458       0.006260       0.000000
     -0.000284       0.006299       0.000000
     -0.000204       0.006339       0.000000
     -0.000120       0.006096       0.000000
     -0.000204       0.006339       0.000000
     -0.000203       0.006334       0.000000
     -0.000138       0.006048       0.000000
     -0.000204       0.006339       0.000000
     -0.000284       0.006299       0.000000
     -0.000213       0.006325       0.000000
     -0.000203       0.006334       0.000000
     -0.000458       0.006260       0.000000
     -0.000734       0.006053       0.000000
     -0.000432       0.005981       0.000000
     -0.000284       0.006299       0.000000
     -0.000734       0.006053       0.000000
     -0.001039       0.005706       0.000000
     -0.000691       0.005486       0.000000
     -0.000432       0.005981       0.000000
     -0.000284       0.006299       0.000000
     -0.000432       0.005981       0.000000
     -0.000306       0.006000       0.000000
     -0.000213       0.006325       0.000000
     -0.000432       0.005981       0.000000
     -0.000691       0.005486       0.000000
     -0.000546       0.005505       0.000000
     -0.000306       0.006000       0.000000
      0.000346       0.005207       0.000000
      0.000059       0.005629       0.000000
      0.000122       0.005740       0.000000
      0.000449       0.005416       0.000000
      0.000059       0.005629       0.000000
     -0.000138       0.006048       0.000000
     -0.000119       0.006081       0.000000
      0.000122       0.005740       0.000000
      0.000449       0.005416       0.000000
      0.000122       0.005740       0.000000
      0.000202       0.005939       0.000000
      0.000572       0.005709       0.000000
      0.000122       0.005740       0.000000
     -0.000119       0.006081       0.000000
     -0.000089       0.006177       0.000000
      0.000202       0.005939       0.000000
     -0.000138       0.006048       0.000000
     -0.000203       0.006334       0.000000
     -0.000198       0.006348       0.000000
     -0.000119       0.006081       0.000000
     -0.000203       0.006334       0.000000
     -0.000213       0.006325       0.000000
     -0.000175       0.006359       0.000000
     -0.000198       0.006348       0.000000
     -0.000119       0.006081       0.000000
     -0.000198       0.006348       0.000000
     -0.000192       0.006383       0.000000
     -0.000089       0.006177       0.000000
     -0.000198       0.006348       0.000000
     -0.000175       0.006359       0.000000
     -0.000153       0.006402       0.000000
     -0.000192       0.006383       0.000000
     -0.000213       0.006325       0.000000
     -0.000306       0.006000       0.000000
     -0.000239       0.006071       0.000000
     -0.000175       0.006359       0.000000
     -0.000306       0.006000       0.000000
     -0.000546       0.005505       0.000000
     -0.000466       0.005623       0.000000
     -0.000239       0.006071       0.000000
     -0.000175       0.006359       0.000000
     -0.000239       0.006071       0.000000
     -0.000202       0.006179       0.000000
     -0.000153       0.006402       0.000000
     -0.000239       0.006071       0.000000
     -0.000466       0.005623       0.000000
     -0.000444       0.005824       0.000000
     -0.000202       0.006179       0.000000
      0.000572       0.005709       0.000000
      0.000202       0.005939       0.000000
      0.000302       0.006197       0.000000
      0.000734       0.006065       0.000000
      0.000202       0.005939       0.000000
     -0.000089       0.006177       0.000000
     -0.000050       0.006320       0.000000
      0.000302       0.006197       0.000000
      0.000734       0.006065       0.000000
      0.000302       0.006197       0.000000
      0.000433       0.006502       0.000000
      0.000964       0.006502       0.000000
      0.000302       0.006197       0.000000
     -0.000050       0.006320       0.000000
      0.000004       0.006502       0.000000
      0.000433       0.006502       0.000000
     -0.000089       0.006177       0.000000
     -0.000192       0.006383       0.000000
     -0.000188       0.006435       0.000000
     -0.000050       0.006320       0.000000
     -0.000192       0.006383       0.000000
     -0.000153       0.006402       0.000000
     -0.000141       0.006451       0.000000
     -0.000188       0.006435       0.000000
     -0.000050       0.006320       0.000000
     -0.000188       0.006435       0.000000
     -0.000185       0.006502       0.000000
      0.000004       0.006502       0.000000
     -0.000188       0.006435       0.000000
     -0.000141       0.006451       0.000000
     -0.000136       0.006502       0.000000
     -0.000185       0.006502       0.000000
     -0.000153       0.006402       0.000000
     -0.000202       0.006179       0.000000
     -0.000191       0.006323       0.000000
     -0.000141       0.006451       0.000000
     -0.000202       0.006179       0.000000
     -0.000444       0.005824       0.000000
     -0.000484       0.006118       0.000000
     -0.000191       0.006323       0.000000
     -0.000141       0.006451       0.000000
     -0.000191       0.006323       0.000000
     -0.000205       0.006502       0.000000
     -0.000136       0.006502       0.000000
     -0.000191       0.006323       0.000000
     -0.000484       0.006118       0.000000
     -0.000585       0.006502       0.000000
     -0.000205       0.006502       0.000000
      0.000377       0.000801       0.000000
      0.000577       0.001299       0.000000
      0.000552       0.001739       0.000000
      0.000225       0.001185       0.000000
      0.000577       0.001299       0.000000
      0.000735       0.002022       0.000000
      0.000927       0.002415       0.000000
      0.000552       0.001739       0.000000
      0.000225       0.001185       0.000000
      0.000552       0.001739       0.000000
      0.000628       0.001762       0.000000
      0.000265       0.001144       0.000000
      0.000552       0.001739       0.000000
      0.000927       0.002415       0.000000
      0.001047       0.002482       0.000000
      0.000628       0.001762       0.000000
      0.000735       0.002022       0.000000
      0.000759       0.003160       0.000000
      0.001142       0.003176       0.000000
      0.000927       0.002415       0.000000
      0.000759       0.003160       0.000000
      0.000764       0.004314       0.000000
      0.000964       0.003934       0.000000
      0.001142       0.003176       0.000000
      0.000927       0.002415       0.000000
      0.001142       0.003176       0.000000
      0.001273       0.003186       0.000000
      0.001047       0.002482       0.000000
      0.001142       0.003176       0.000000
      0.000964       0.003934       0.000000
      0.001085       0.003882       0.000000
      0.001273       0.003186       0.000000
      0.000764       0.004314       0.000000
      0.000627       0.005054       0.000000
      0.000607       0.004607       0.000000
      0.000964       0.003934       0.000000
      0.000627       0.005054       0.000000
      0.000429       0.005573       0.000000
      0.000278       0.005171       0.000000
      0.000607       0.004607       0.000000
      0.000964       0.003934       0.000000
      0.000607       0.004607       0.000000
      0.000694       0.004588       0.000000
      0.001085       0.003882       0.000000
      0.000607       0.004607       0.000000
      0.000278       0.005171       0.000000
      0.000346       0.005207       0.000000
      0.000694       0.004588       0.000000
      0.000265       0.001144       0.000000
      0.000628       0.001762       0.000000
      0.000717       0.001655       0.000000
      0.000310       0.000940       0.000000
      0.000628       0.001762       0.000000
      0.001047       0.002482       0.000000
      0.001165       0.002450       0.000000
      0.000717       0.001655       0.000000
      0.000310       0.000940       0.000000
      0.000717       0.001655       0.000000
      0.000797       0.001526       0.000000
      0.000319       0.000672       0.000000
      0.000717       0.001655       0.000000
      0.001165       0.002450       0.000000
      0.001283       0.002407       0.000000
      0.000797       0.001526       0.000000
      0.001047       0.002482       0.000000
      0.001273       0.003186       0.000000
      0.001392       0.003198       0.000000
      0.001165       0.002450       0.000000
      0.001273       0.003186       0.000000
      0.001085       0.003882       0.000000
      0.001205       0.003936       0.000000
      0.001392       0.003198       0.000000
      0.001165       0.002450       0.000000
      0.001392       0.003198       0.000000
      0.001522       0.003211       0.000000
      0.001283       0.002407       0.000000
      0.001392       0.003198       0.000000
      0.001205       0.003936       0.000000
      0.001326       0.004009       0.000000
      0.001522       0.003211       0.000000
      0.001085       0.003882       0.000000
      0.000694       0.004588       0.000000
      0.000802       0.004711       0.000000
      0.001205       0.003936       0.000000
      0.000694       0.004588       0.000000
      0.000346       0.005207       0.000000
      0.000449       0.005416       0.000000
      0.000802       0.004711       0.000000
      0.001205       0.003936       0.000000
      0.000802       0.004711       0.000000
      0.000910       0.004872       0.000000
      0.001326       0.004009       0.000000
      0.000802       0.004711       0.000000
      0.000449       0.005416       0.000000
      0.000572       0.005709       0.000000
      0.000910       0.004872       0.000000
      0.000319       0.000672       0.000000
      0.000797       0.001526       0.000000
      0.000866       0.001430       0.000000
      0.000258       0.000370       0.000000
      0.000797       0.001526       0.000000
      0.001283       0.002407       0.000000
      0.001394       0.002395       0.000000
      0.000866       0.001430       0.000000
      0.000258       0.000370       0.000000
      0.000866       0.001430       0.000000
      0.000926       0.001387       0.000000
      0.000000       0.000000       0.000000
      0.000866       0.001430       0.000000
      0.001394       0.002395       0.000000
      0.001491       0.002438       0.000000
      0.000926       0.001387       0.000000
      0.001283       0.002407       0.000000
      0.001522       0.003211       0.000000
      0.001654       0.003224       0.000000
      0.001394       0.002395       0.000000
      0.001522       0.003211       0.000000
      0.001326       0.004009       0.000000
      0.001444       0.004056       0.000000
      0.001654       0.003224       0.000000
      0.001394       0.002395       0.000000
      0.001654       0.003224       0.000000
      0.001774       0.003234       0.000000
      0.001491       0.002438       0.000000
      0.001654       0.003224       0.000000
      0.001444       0.004056       0.000000
      0.001554       0.004047       0.000000
      0.001774       0.003234       0.000000
      0.001326       0.004009       0.000000
      0.000910       0.004872       0.000000
      0.001018       0.005028       0.000000
      0.001444       0.004056       0.000000
      0.000910       0.004872       0.000000
      0.000572       0.005709       0.000000
      0.000734       0.006065       0.000000
      0.001018       0.005028       0.000000
      0.001444       0.004056       0.000000
      0.001018       0.005028       0.000000
      0.001143       0.005167       0.000000
      0.001554       0.004047       0.000000
      0.001018       0.005028       0.000000
      0.000734       0.006065       0.000000
      0.000964       0.006502       0.000000
      0.001143       0.005167       0.000000
     -0.000976       0.000740       0.000000
     -0.000666       0.000395       0.000000
     -0.000355       0.000472       0.000000
     -0.000612       0.000969       0.000000
     -0.000666       0.000395       0.000000
     -0.000401       0.000191       0.000000
     -0.000222       0.000161       0.000000
     -0.000355       0.000472       0.000000
     -0.000612       0.000969       0.000000
     -0.000355       0.000472       0.000000
     -0.000204       0.000460       0.000000
     -0.000442       0.000957       0.000000
     -0.000355       0.000472       0.000000
     -0.000222       0.000161       0.000000
     -0.000132       0.000145       0.000000
     -0.000204       0.000460       0.000000
     -0.000401       0.000191       0.000000
     -0.000188       0.000136       0.000000
     -0.000167       0.000115       0.000000
     -0.000222       0.000161       0.000000
     -0.000188       0.000136       0.000000
     -0.000003       0.000223       0.000000
     -0.000116       0.000325       0.000000
     -0.000167       0.000115       0.000000
     -0.000222       0.000161       0.000000
     -0.000167       0.000115       0.000000
     -0.000154       0.000126       0.000000
     -0.000132       0.000145       0.000000
     -0.000167       0.000115       0.000000
     -0.000116       0.000325       0.000000
     -0.000136       0.000373       0.000000
     -0.000154       0.000126       0.000000
     -0.000003       0.000223       0.000000
      0.000182       0.000448       0.000000
      0.000007       0.000719       0.000000
     -0.000116       0.000325       0.000000
      0.000182       0.000448       0.000000
      0.000377       0.000801       0.000000
      0.000225       0.001185       0.000000
      0.000007       0.000719       0.000000
     -0.000116       0.000325       0.000000
      0.000007       0.000719       0.000000
      0.000010       0.000748       0.000000
     -0.000136       0.000373       0.000000
      0.000007       0.000719       0.000000
      0.000225       0.001185       0.000000
      0.000265       0.001144       0.000000
      0.000010       0.000748       0.000000
     -0.000442       0.000957       0.000000
     -0.000204       0.000460       0.000000
     -0.000105       0.000395       0.000000
     -0.000328       0.000845       0.000000
     -0.000204       0.000460       0.000000
     -0.000132       0.000145       0.000000
     -0.000071       0.000123       0.000000
     -0.000105       0.000395       0.000000
     -0.000328       0.000845       0.000000
     -0.000105       0.000395       0.000000
     -0.000036       0.000290       0.000000
     -0.000257       0.000647       0.000000
     -0.000105       0.000395       0.000000
     -0.000071       0.000123       0.000000
     -0.000028       0.000092       0.000000
     -0.000036       0.000290       0.000000
     -0.000132       0.000145       0.000000
     -0.000154       0.000126       0.000000
     -0.000135       0.000123       0.000000
     -0.000071       0.000123       0.000000
     -0.000154       0.000126       0.000000
     -0.000136       0.000373       0.000000
     -0.000122       0.000343       0.000000
     -0.000135       0.000123       0.000000
     -0.000071       0.000123       0.000000
     -0.000135       0.000123       0.000000
     -0.000107       0.000100       0.000000
     -0.000028       0.000092       0.000000
     -0.000135       0.000123       0.000000
     -0.000122       0.000343       0.000000
     -0.000094       0.000258       0.000000
     -0.000107       0.000100       0.000000
     -0.000136       0.000373       0.000000
      0.000010       0.000748       0.000000
      0.000038       0.000636       0.000000
     -0.000122       0.000343       0.000000
      0.000010       0.000748       0.000000
      0.000265       0.001144       0.000000
      0.000310       0.000940       0.000000
      0.000038       0.000636       0.000000
     -0.000122       0.000343       0.000000
      0.000038       0.000636       0.000000
      0.000057       0.000449       0.000000
     -0.000094       0.000258       0.000000
      0.000038       0.000636       0.000000
      0.000310       0.000940       0.000000
      0.000319       0.000672       0.000000
      0.000057       0.000449       0.000000
     -0.000257       0.000647       0.000000
     -0.000036       0.000290       0.000000
      0.000002       0.000154       0.000000
     -0.000200       0.000362       0.000000
     -0.000036       0.000290       0.000000
     -0.000028       0.000092       0.000000
     -0.000003       0.000051       0.000000
      0.000002       0.000154       0.000000
     -0.000200       0.000362       0.000000
      0.000002       0.000154       0.000000
      0.000000       0.000000       0.000000
      0.000000       0.000000       0.000000
      0.000002       0.000154       0.000000
     -0.000003       0.000051       0.000000
      0.000000       0.000000       0.000000
      0.000000       0.000000       0.000000
     -0.000028       0.000092       0.000000
     -0.000107       0.000100       0.000000
     -0.000066       0.000058       0.000000
     -0.000003       0.000051       0.000000
     -0.000107       0.000100       0.000000
     -0.000094       0.000258       0.000000
     -0.000053       0.000137       0.000000
     -0.000066       0.000058       0.000000
     -0.000003       0.000051       0.000000
     -0.000066       0.000058       0.000000
      0.000000       0.000000       0.000000
      0.000000       0.000000       0.000000
     -0.000066       0.000058       0.000000
     -0.000053       0.000137       0.000000
      0.000000       0.000000       0.000000
      0.000000       0.000000       0.000000
     -0.000094       0.000258       0.000000
      0.000057       0.000449       0.000000
      0.000049       0.000227       0.000000
     -0.000053       0.000137       0.000000
      0.000057       0.000449       0.000000
      0.000319       0.000672       0.000000
      0.000258       0.000370       0.000000
      0.000049       0.000227       0.000000
     -0.000053       0.000137       0.000000
      0.000049       0.000227       0.000000
      0.000000       0.000000       0.000000
      0.000000       0.000000       0.000000
      0.000049       0.000227       0.000000
      0.000258       0.000370       0.000000
      0.000000       0.000000       0.000000
      0.000000       0.000000       0.000000
     -0.000976       0.000740       0.000000
     -0.001322       0.001243       0.000000
     -0.001077       0.001510       0.000000
     -0.000612       0.000969       0.000000
     -0.000612       0.000969       0.000000
     -0.001077       0.001510       0.000000
     -0.000930       0.001555       0.000000
     -0.000442       0.000957       0.000000
     -0.001077       0.001510       0.000000
     -0.001661       0.002207       0.000000
     -0.001644       0.002320       0.000000