# vtk DataFile Version 2.0
time_10.vtk
ASCII
DATASET UNSTRUCTURED_GRID
POINTS   576 float
      0.458579       0.641421       0.000000
      0.497369       0.671659       0.000000
      0.438243       0.730363       0.000000
      0.382149       0.701184       0.000000
      0.497369       0.671659       0.000000
      0.545805       0.692517       0.000000
      0.506084       0.750000       0.000000
      0.438243       0.730363       0.000000
      0.382149       0.701184       0.000000
      0.438243       0.730363       0.000000
      0.380813       0.787383       0.000000
      0.305719       0.760948       0.000000
      0.438243       0.730363       0.000000
      0.506084       0.750000       0.000000
      0.468251       0.804752       0.000000
      0.380813       0.787383       0.000000
      0.545805       0.692517       0.000000
      0.600000       0.700000       0.000000
      0.581017       0.756950       0.000000
      0.506084       0.750000       0.000000
      0.600000       0.700000       0.000000
      0.654195       0.692517       0.000000
      0.656527       0.750000       0.000000
      0.581017       0.756950       0.000000
      0.506084       0.750000       0.000000
      0.581017       0.756950       0.000000
      0.563060       0.810819       0.000000
      0.468251       0.804752       0.000000
      0.581017       0.756950       0.000000
      0.656527       0.750000       0.000000
      0.658747       0.804752       0.000000
      0.563060       0.810819       0.000000
      0.654195       0.692517       0.000000
      0.702631       0.671659       0.000000
      0.725999       0.730363       0.000000
      0.656527       0.750000       0.000000
      0.702631       0.671659       0.000000
      0.741421       0.641421       0.000000
      0.784518       0.701184       0.000000
      0.725999       0.730363       0.000000
      0.656527       0.750000       0.000000
      0.725999       0.730363       0.000000
      0.748697       0.787383       0.000000
      0.658747       0.804752       0.000000
      0.725999       0.730363       0.000000
      0.784518       0.701184       0.000000
      0.827614       0.760948       0.000000
      0.748697       0.787383       0.000000
      0.305719       0.760948       0.000000
      0.380813       0.787383       0.000000
      0.325006       0.842791       0.000000
      0.229289       0.820711       0.000000
      0.380813       0.787383       0.000000
      0.468251       0.804752       0.000000
      0.432173       0.856962       0.000000
      0.325006       0.842791       0.000000
      0.229289       0.820711       0.000000
      0.325006       0.842791       0.000000
      0.270755       0.896655       0.000000
      0.152860       0.880474       0.000000
      0.325006       0.842791       0.000000
      0.432173       0.856962       0.000000
      0.397732       0.906804       0.000000
      0.270755       0.896655       0.000000
      0.468251       0.804752       0.000000
      0.563060       0.810819       0.000000
      0.546050       0.861851       0.000000
      0.432173       0.856962       0.000000
      0.563060       0.810819       0.000000
      0.658747       0.804752       0.000000
      0.660865       0.856962       0.000000
      0.546050       0.861851       0.000000
      0.432173       0.856962       0.000000
      0.546050       0.861851       0.000000
      0.529912       0.910264       0.000000
      0.397732       0.906804       0.000000
      0.546050       0.861851       0.000000
      0.660865       0.856962       0.000000
      0.662887       0.906804       0.000000
      0.529912       0.910264       0.000000
      0.658747       0.804752       0.000000
      0.748697       0.787383       0.000000
      0.770753       0.842791       0.000000
      0.660865       0.856962       0.000000
      0.748697       0.787383       0.000000
      0.827614       0.760948       0.000000
      0.870711       0.820711       0.000000
      0.770753       0.842791       0.000000
      0.660865       0.856962       0.000000
      0.770753       0.842791       0.000000
      0.792195       0.896655       0.000000
      0.662887       0.906804       0.000000
      0.770753       0.842791       0.000000
      0.870711       0.820711       0.000000
      0.913807       0.880474       0.000000
      0.792195       0.896655       0.000000
      0.152860       0.880474       0.000000
      0.270755       0.896655       0.000000
      0.217995       0.949038       0.000000
      0.076430       0.940237       0.000000
      0.270755       0.896655       0.000000
      0.397732       0.906804       0.000000
      0.364819       0.954435       0.000000
      0.217995       0.949038       0.000000
      0.076430       0.940237       0.000000
      0.217995       0.949038       0.000000
      0.166667       1.000000       0.000000
      0.000000       1.000000       0.000000
      0.217995       0.949038       0.000000
      0.364819       0.954435       0.000000
      0.333333       1.000000       0.000000
      0.166667       1.000000       0.000000
      0.397732       0.906804       0.000000
      0.529912       0.910264       0.000000
      0.514582       0.956255       0.000000
      0.364819       0.954435       0.000000
      0.529912       0.910264       0.000000
      0.662887       0.906804       0.000000
      0.664819       0.954435       0.000000
      0.514582       0.956255       0.000000
      0.364819       0.954435       0.000000
      0.514582       0.956255       0.000000
      0.500000       1.000000       0.000000
      0.333333       1.000000       0.000000
      0.514582       0.956255       0.000000
      0.664819       0.954435       0.000000
      0.666667       1.000000       0.000000
      0.500000       1.000000       0.000000
      0.662887       0.906804       0.000000
      0.792195       0.896655       0.000000
      0.813047       0.949038       0.000000
      0.664819       0.954435       0.000000
      0.792195       0.896655       0.000000
      0.913807       0.880474       0.000000
      0.956904       0.940237       0.000000
      0.813047       0.949038       0.000000
      0.664819       0.954435       0.000000
      0.813047       0.949038       0.000000
      0.833333       1.000000       0.000000
      0.666667       1.000000       0.000000
      0.813047       0.949038       0.000000
      0.956904       0.940237       0.000000
      1.000000       1.000000       0.000000
      0.833333       1.000000       0.000000
      0.458579       0.358579       0.000000
      0.428341       0.397369       0.000000
      0.351758       0.356122       0.000000
      0.382149       0.298816       0.000000
      0.428341       0.397369       0.000000
      0.407483       0.445805       0.000000
      0.331305       0.424779       0.000000
      0.351758       0.356122       0.000000
      0.382149       0.298816       0.000000
      0.351758       0.356122       0.000000
      0.277372       0.316058       0.000000
      0.305719       0.239052       0.000000
      0.351758       0.356122       0.000000
      0.331305       0.424779       0.000000
      0.258747       0.404752       0.000000
      0.277372       0.316058       0.000000
      0.407483       0.445805       0.000000
      0.400000       0.500000       0.000000
      0.324066       0.500000       0.000000
      0.331305       0.424779       0.000000
      0.400000       0.500000       0.000000
      0.407483       0.554195       0.000000
      0.331305       0.575221       0.000000
      0.324066       0.500000       0.000000
      0.331305       0.424779       0.000000
      0.324066       0.500000       0.000000
      0.252241       0.500000       0.000000
      0.258747       0.404752       0.000000
      0.324066       0.500000       0.000000
      0.331305       0.575221       0.000000
      0.258747       0.595248       0.000000
      0.252241       0.500000       0.000000
      0.407483       0.554195       0.000000
      0.428341       0.602631       0.000000
      0.351758       0.643878       0.000000
      0.331305       0.575221       0.000000
      0.428341       0.602631       0.000000
      0.458579       0.641421       0.000000
      0.382149       0.701184       0.000000
      0.351758       0.643878       0.000000
      0.331305       0.575221       0.000000
      0.351758       0.643878       0.000000
      0.277372       0.683942       0.000000
      0.258747       0.595248       0.000000
      0.351758       0.643878       0.000000
      0.382149       0.701184       0.000000
      0.305719       0.760948       0.000000
      0.277372       0.683942       0.000000
      0.305719       0.239052       0.000000
      0.277372       0.316058       0.000000
      0.205089       0.277126       0.000000
      0.229289       0.179289       0.000000
      0.277372       0.316058       0.000000
      0.258747       0.404752       0.000000
      0.189557       0.385654       0.000000
      0.205089       0.277126       0.000000
      0.229289       0.179289       0.000000
      0.205089       0.277126       0.000000
      0.134820       0.239280       0.000000
      0.152860       0.119526       0.000000
      0.205089       0.277126       0.000000
      0.189557       0.385654       0.000000
      0.123505       0.367423       0.000000
      0.134820       0.239280       0.000000
      0.258747       0.404752       0.000000
      0.252241       0.500000       0.000000
      0.184198       0.500000       0.000000
      0.189557       0.385654       0.000000
      0.252241       0.500000       0.000000
      0.258747       0.595248       0.000000
      0.189557       0.614346       0.000000
      0.184198       0.500000       0.000000
      0.189557       0.385654       0.000000
      0.184198       0.500000       0.000000
      0.119648       0.500000       0.000000
      0.123505       0.367423       0.000000
[...]
POINT_DATA   576
VECTORS U float 
      0.000408       0.005302       0.000000
      0.000210       0.005673       0.000000
      0.000035       0.005392       0.000000
      0.000267       0.004918       0.000000
      0.000210       0.005673       0.000000
      0.000004       0.005920       0.000000
     -0.000117       0.005812       0.000000
      0.000035       0.005392       0.000000
      0.000267       0.004918       0.000000
      0.000035       0.005392       0.000000
      0.000059       0.005362       0.000000
      0.000335       0.004961       0.000000
      0.000035       0.005392       0.000000
     -0.000117       0.005812       0.000000
     -0.000132       0.005766       0.000000
      0.000059       0.005362       0.000000
      0.000004       0.005920       0.000000
     -0.000210       0.006021       0.000000
     -0.000197       0.006047       0.000000
     -0.000117       0.005812       0.000000
     -0.000210       0.006021       0.000000
     -0.000443       0.005969       0.000000
     -0.000275       0.006007       0.000000
     -0.000197       0.006047       0.000000
     -0.000117       0.005812       0.000000
     -0.000197       0.006047       0.000000
     -0.000196       0.006043       0.000000
     -0.000132       0.005766       0.000000
     -0.000197       0.006047       0.000000
     -0.000275       0.006007       0.000000
     -0.000207       0.006033       0.000000
     -0.000196       0.006043       0.000000
     -0.000443       0.005969       0.000000
     -0.000707       0.005765       0.000000
     -0.000417       0.005696       0.000000
     -0.000275       0.006007       0.000000
     -0.000707       0.005765       0.000000
     -0.000997       0.005425       0.000000
     -0.000667       0.005216       0.000000
     -0.000417       0.005696       0.000000
     -0.000275       0.006007       0.000000
     -0.000417       0.005696       0.000000
     -0.000298       0.005718       0.000000
     -0.000207       0.006033       0.000000
     -0.000417       0.005696       0.000000
     -0.000667       0.005216       0.000000
     -0.000532       0.005241       0.000000
     -0.000298       0.005718       0.000000
      0.000335       0.004961       0.000000
      0.000059       0.005362       0.000000
      0.000122       0.005474       0.000000
      0.000437       0.005167       0.000000
      0.000059       0.005362       0.000000
     -0.000132       0.005766       0.000000
     -0.000113       0.005801       0.000000
      0.000122       0.005474       0.000000
      0.000437       0.005167       0.000000
      0.000122       0.005474       0.000000
      0.000201       0.005668       0.000000
      0.000557       0.005453       0.000000
      0.000122       0.005474       0.000000
     -0.000113       0.005801       0.000000
     -0.000082       0.005895       0.000000
      0.000201       0.005668       0.000000
     -0.000132       0.005766       0.000000
     -0.000196       0.006043       0.000000
     -0.000190       0.006058       0.000000
     -0.000113       0.005801       0.000000
     -0.000196       0.006043       0.000000
     -0.000207       0.006033       0.000000
     -0.000171       0.006068       0.000000
     -0.000190       0.006058       0.000000
     -0.000113       0.005801       0.000000
     -0.000190       0.006058       0.000000
     -0.000184       0.006093       0.000000
     -0.000082       0.005895       0.000000
     -0.000190       0.006058       0.000000
     -0.000171       0.006068       0.000000
     -0.000150       0.006112       0.000000
     -0.000184       0.006093       0.000000
     -0.000207       0.006033       0.000000
     -0.000298       0.005718       0.000000
     -0.000235       0.005789       0.000000
     -0.000171       0.006068       0.000000
     -0.000298       0.005718       0.000000
     -0.000532       0.005241       0.000000
     -0.000458       0.005360       0.000000
     -0.000235       0.005789       0.000000
     -0.000171       0.006068       0.000000
     -0.000235       0.005789       0.000000
     -0.000201       0.005897       0.000000
     -0.000150       0.006112       0.000000
     -0.000235       0.005789       0.000000
     -0.000458       0.005360       0.000000
     -0.000437       0.005557       0.000000
     -0.000201       0.005897       0.000000
      0.000557       0.005453       0.000000
      0.000201       0.005668       0.000000
      0.000299       0.005919       0.000000
      0.000713       0.005796       0.000000
      0.000201       0.005668       0.000000
     -0.000082       0.005895       0.000000
     -0.000042       0.006035       0.000000
      0.000299       0.005919       0.000000
      0.000713       0.005796       0.000000
      0.000299       0.005919       0.000000
      0.000425       0.006212       0.000000
      0.000932       0.006212       0.000000
      0.000299       0.005919       0.000000
     -0.000042       0.006035       0.000000
      0.000010       0.006212       0.000000
      0.000425       0.006212       0.000000
     -0.000082       0.005895       0.000000
     -0.000184       0.006093       0.000000
     -0.000180       0.006146       0.000000
     -0.000042       0.006035       0.000000
     -0.000184       0.006093       0.000000
     -0.000150       0.006112       0.000000
     -0.000138       0.006161       0.000000
     -0.000180       0.006146       0.000000
     -0.000042       0.006035       0.000000
     -0.000180       0.006146       0.000000
     -0.000176       0.006212       0.000000
      0.000010       0.006212       0.000000
     -0.000180       0.006146       0.000000
     -0.000138       0.006161       0.000000
     -0.000134       0.006212       0.000000
     -0.000176       0.006212       0.000000
     -0.000150       0.006112       0.000000
     -0.000201       0.005897       0.000000
     -0.000191       0.006037       0.000000
     -0.000138       0.006161       0.000000
     -0.000201       0.005897       0.000000
     -0.000437       0.005557       0.000000
     -0.000475       0.005841       0.000000
     -0.000191       0.006037       0.000000
     -0.000138       0.006161       0.000000
     -0.000191       0.006037       0.000000
     -0.000205       0.006212       0.000000
     -0.000134       0.006212       0.000000
     -0.000191       0.006037       0.000000
     -0.000475       0.005841       0.000000
     -0.000573       0.006212       0.000000
     -0.000205       0.006212       0.000000
      0.000357       0.000785       0.000000
      0.000546       0.001272       0.000000
      0.000527       0.001685       0.000000
      0.000215       0.001152       0.000000
      0.000546       0.001272       0.000000
      0.000692       0.001976       0.000000
      0.000879       0.002327       0.000000
      0.000527       0.001685       0.000000
      0.000215       0.001152       0.000000
      0.000527       0.001685       0.000000
      0.000600       0.001697       0.000000
      0.000255       0.001106       0.000000
      0.000527       0.001685       0.000000
      0.000879       0.002327       0.000000
      0.000993       0.002378       0.000000
      0.000600       0.001697       0.000000
      0.000692       0.001976       0.000000
      0.000728       0.003019       0.000000
      0.001073       0.003034       0.000000
      0.000879       0.002327       0.000000
      0.000728       0.003019       0.000000
      0.000720       0.004074       0.000000
      0.000915       0.003737       0.000000
      0.001073       0.003034       0.000000
      0.000879       0.002327       0.000000
      0.001073       0.003034       0.000000
      0.001200       0.003044       0.000000
      0.000993       0.002378       0.000000
      0.001073       0.003034       0.000000
      0.000915       0.003737       0.000000
      0.001030       0.003702       0.000000
      0.001200       0.003044       0.000000
      0.000720       0.004074       0.000000
      0.000593       0.004795       0.000000
      0.000581       0.004376       0.000000
      0.000915       0.003737       0.000000
      0.000593       0.004795       0.000000
      0.000408       0.005302       0.000000
      0.000267       0.004918       0.000000
      0.000581       0.004376       0.000000
      0.000915       0.003737       0.000000
      0.000581       0.004376       0.000000
      0.000666       0.004370       0.000000
      0.001030       0.003702       0.000000
      0.000581       0.004376       0.000000
      0.000267       0.004918       0.000000
      0.000335       0.004961       0.000000
      0.000666       0.004370       0.000000
      0.000255       0.001106       0.000000
      0.000600       0.001697       0.000000
      0.000685       0.001588       0.000000
      0.000299       0.000906       0.000000
      0.000600       0.001697       0.000000
      0.000993       0.002378       0.000000
      0.001105       0.002342       0.000000
      0.000685       0.001588       0.000000
      0.000299       0.000906       0.000000
      0.000685       0.001588       0.000000
      0.000762       0.001460       0.000000
      0.000308       0.000646       0.000000
      0.000685       0.001588       0.000000
      0.001105       0.002342       0.000000
      0.001218       0.002299       0.000000
      0.000762       0.001460       0.000000
      0.000993       0.002378       0.000000
      0.001200       0.003044       0.000000
      0.001316       0.003055       0.000000
      0.001105       0.002342       0.000000
      0.001200       0.003044       0.000000
      0.001030       0.003702       0.000000
      0.001144       0.003759       0.000000
      0.001316       0.003055       0.000000
      0.001105       0.002342       0.000000
      0.001316       0.003055       0.000000
      0.001441       0.003068       0.000000
      0.001218       0.002299       0.000000
      0.001316       0.003055       0.000000
      0.001144       0.003759       0.000000
      0.001261       0.003832       0.000000
      0.001441       0.003068       0.000000
      0.001030       0.003702       0.000000
      0.000666       0.004370       0.000000
      0.000769       0.004495       0.000000
      0.001144       0.003759       0.000000
      0.000666       0.004370       0.000000
      0.000335       0.004961       0.000000
      0.000437       0.005167       0.000000
      0.000769       0.004495       0.000000
      0.001144       0.003759       0.000000
      0.000769       0.004495       0.000000
      0.000873       0.004654       0.000000
      0.001261       0.003832       0.000000
      0.000769       0.004495       0.000000
      0.000437       0.005167       0.000000
      0.000557       0.005453       0.000000
      0.000873       0.004654       0.000000
      0.000308       0.000646       0.000000
      0.000762       0.001460       0.000000
      0.000828       0.001365       0.000000
      0.000249       0.000355       0.000000
      0.000762       0.001460       0.000000
      0.001218       0.002299       0.000000
      0.001325       0.002286       0.000000
      0.000828       0.001365       0.000000
      0.000249       0.000355       0.000000
      0.000828       0.001365       0.000000
      0.000886       0.001322       0.000000
      0.000000       0.000000       0.000000
      0.000828       0.001365       0.000000
      0.001325       0.002286       0.000000
      0.001419       0.002324       0.000000
      0.000886       0.001322       0.000000
      0.001218       0.002299       0.000000
      0.001441       0.003068       0.000000
      0.001569       0.003081       0.000000
      0.001325       0.002286       0.000000
      0.001441       0.003068       0.000000
      0.001261       0.003832       0.000000
      0.001375       0.003881       0.000000
      0.001569       0.003081       0.000000
      0.001325       0.002286       0.000000
      0.001569       0.003081       0.000000
      0.001685       0.003092       0.000000
      0.001419       0.002324       0.000000
      0.001569       0.003081       0.000000
      0.001375       0.003881       0.000000
      0.001481       0.003876       0.000000
      0.001685       0.003092       0.000000
      0.001261       0.003832       0.000000
      0.000873       0.004654       0.000000
      0.000979       0.004808       0.000000
      0.001375       0.003881       0.000000
      0.000873       0.004654       0.000000
      0.000557       0.005453       0.000000
      0.000713       0.005796       0.000000
      0.000979       0.004808       0.000000
      0.001375       0.003881       0.000000
      0.000979       0.004808       0.000000
      0.001099       0.004944       0.000000
      0.001481       0.003876       0.000000
      0.000979       0.004808       0.000000
      0.000713       0.005796       0.000000
      0.000932       0.006212       0.000000
      0.001099       0.004944       0.000000
     -0.000937       0.000732       0.000000
     -0.000642       0.000392       0.000000
     -0.000342       0.000467       0.000000
     -0.000591       0.000949       0.000000
     -0.000642       0.000392       0.000000
     -0.000388       0.000191       0.000000
     -0.000215       0.000162       0.000000
     -0.000342       0.000467       0.000000
     -0.000591       0.000949       0.000000
     -0.000342       0.000467       0.000000
     -0.000199       0.000453       0.000000
     -0.000430       0.000932       0.000000
     -0.000342       0.000467       0.000000
     -0.000215       0.000162       0.000000
     -0.000128       0.000146       0.000000
     -0.000199       0.000453       0.000000
     -0.000388       0.000191       0.000000
     -0.000183       0.000136       0.000000
     -0.000162       0.000117       0.000000
     -0.000215       0.000162       0.000000
     -0.000183       0.000136       0.000000
     -0.000006       0.000221       0.000000
     -0.000114       0.000321       0.000000
     -0.000162       0.000117       0.000000
     -0.000215       0.000162       0.000000
     -0.000162       0.000117       0.000000
     -0.000150       0.000127       0.000000
     -0.000128       0.000146       0.000000
     -0.000162       0.000117       0.000000
     -0.000114       0.000321       0.000000
     -0.000132       0.000365       0.000000
     -0.000150       0.000127       0.000000
     -0.000006       0.000221       0.000000
      0.000172       0.000441       0.000000
      0.000005       0.000703       0.000000
     -0.000114       0.000321       0.000000
      0.000172       0.000441       0.000000
      0.000357       0.000785       0.000000
      0.000215       0.001152       0.000000
      0.000005       0.000703       0.000000
     -0.000114       0.000321       0.000000
      0.000005       0.000703       0.000000
      0.000010       0.000727       0.000000
     -0.000132       0.000365       0.000000
      0.000005       0.000703       0.000000
      0.000215       0.001152       0.000000
      0.000255       0.001106       0.000000
      0.000010       0.000727       0.000000
     -0.000430       0.000932       0.000000
     -0.000199       0.000453       0.000000
     -0.000104       0.000387       0.000000
     -0.000322       0.000818       0.000000
     -0.000199       0.000453       0.000000
     -0.000128       0.000146       0.000000
     -0.000070       0.000123       0.000000
     -0.000104       0.000387       0.000000
     -0.000322       0.000818       0.000000
     -0.000104       0.000387       0.000000
     -0.000038       0.000283       0.000000
     -0.000253       0.000626       0.000000
     -0.000104       0.000387       0.000000
     -0.000070       0.000123       0.000000
     -0.000028       0.000091       0.000000
     -0.000038       0.000283       0.000000
     -0.000128       0.000146       0.000000
     -0.000150       0.000127       0.000000
     -0.000131       0.000122       0.000000
     -0.000070       0.000123       0.000000
     -0.000150       0.000127       0.000000
     -0.000132       0.000365       0.000000
     -0.000118       0.000335       0.000000
     -0.000131       0.000122       0.000000
     -0.000070       0.000123       0.000000
     -0.000131       0.000122       0.000000
     -0.000104       0.000099       0.000000
     -0.000028       0.000091       0.000000
     -0.000131       0.000122       0.000000
     -0.000118       0.000335       0.000000
     -0.000090       0.000251       0.000000
     -0.000104       0.000099       0.000000
     -0.000132       0.000365       0.000000
      0.000010       0.000727       0.000000
      0.000038       0.000616       0.000000
     -0.000118       0.000335       0.000000
      0.000010       0.000727       0.000000
      0.000255       0.001106       0.000000
      0.000299       0.000906       0.000000
      0.000038       0.000616       0.000000
     -0.000118       0.000335       0.000000
      0.000038       0.000616       0.000000
      0.000056       0.000434       0.000000
     -0.000090       0.000251       0.000000
      0.000038       0.000616       0.000000
      0.000299       0.000906       0.000000
      0.000308       0.000646       0.000000
      0.000056       0.000434       0.000000
     -0.000253       0.000626       0.000000
     -0.000038       0.000283       0.000000
      0.000000       0.000150       0.000000
     -0.000195       0.000351       0.000000
     -0.000038       0.000283       0.000000
     -0.000028       0.000091       0.000000
     -0.000003       0.000051       0.000000
      0.000000       0.000150       0.000000
     -0.000195       0.000351       0.000000
      0.000000       0.000150       0.000000
      0.000000       0.000000       0.000000
      0.000000       0.000000       0.000000
      0.000000       0.000150       0.000000
     -0.000003       0.000051       0.000000
      0.000000       0.000000       0.000000
      0.000000       0.000000       0.000000
     -0.000028       0.000091       0.000000
     -0.000104       0.000099       0.000000
     -0.000063       0.000057       0.000000
     -0.000003       0.000051       0.000000
     -0.000104       0.000099       0.000000
     -0.000090       0.000251       0.000000
     -0.000050       0.000133       0.000000
     -0.000063       0.000057       0.000000
     -0.000003       0.000051       0.000000
     -0.000063       0.000057       0.000000
      0.000000       0.000000       0.000000
      0.000000       0.000000       0.000000
     -0.000063       0.000057       0.000000
     -0.000050       0.000133       0.000000
      0.000000       0.000000       0.000000
      0.000000       0.000000       0.000000
     -0.000090       0.000251       0.000000
      0.000056       0.000434       0.000000
      0.000049       0.000220       0.000000
     -0.000050       0.000133       0.000000
      0.000056       0.000434       0.000000
      0.000308       0.000646       0.000000
      0.000249       0.000355       0.000000
      0.000049       0.000220       0.000000
     -0.000050       0.000133       0.000000
      0.000049       0.000220       0.000000
      0.000000       0.000000       0.000000
      0.000000       0.000000       0.000000
      0.000049       0.000220       0.000000
      0.000249       0.000355       0.000000
      0.000000       0.000000       0.000000
      0.000000       0.000000       0.000000
     -0.000937       0.000732       0.000000
     -0.001262       0.001226       0.000000
     -0.001035       0.001475       0.000000
     -0.000591       0.000949       0.000000
     -0.001262       0.001226       0.000000
     -0.001551       0.001949       0.000000
     -0.001585       0.002153       0.000000
     -0.001035       0.001475       0.000000
     -0.000591       0.000949       0.000000
     -0.001035       0.001475       0.000000
     -0.000899       0.001510       0.000000