# vtk DataFile Version 2.0
time_10.vtk
ASCII
DATASET UNSTRUCTURED_GRID
POINTS   576 float
      0.458579       0.641421       0.000000
      0.497369       0.671659       0.000000
      0.438243       0.730363       0.000000
      0.382149       0.701184       0.000000
      0.497369       0.671659       0.000000
      0.545805       0.692517       0.000000
      0.506084       0.750000       0.000000
      0.438243       0.730363       0.000000
      0.382149       0.701184       0.000000
      0.438243       0.730363       0.000000
      0.380813       0.787383       0.000000
      0.305719       0.760948       0.000000
      0.438243       0.730363       0.000000
      0.506084       0.750000       0.000000
      0.468251       0.804752       0.000000
      0.380813       0.787383       0.000000
      0.545805       0.692517       0.000000
      0.600000       0.700000       0.000000
      0.581017       0.756950       0.000000
      0.506084       0.750000       0.000000
      0.600000       0.700000       0.000000
      0.654195       0.692517       0.000000
      0.656527       0.750000       0.000000
      0.581017       0.756950       0.000000
      0.506084       0.750000       0.000000
      0.581017       0.756950       0.000000
      0.563060       0.810819       0.000000
      0.468251       0.804752       0.000000
      0.581017       0.756950       0.000000
      0.656527       0.750000       0.000000
      0.658747       0.804752       0.000000
      0.563060       0.810819       0.000000
      0.654195       0.692517       0.000000
      0.702631       0.671659       0.000000
      0.725999       0.730363       0.000000
      0.656527       0.750000       0.000000
      0.702631       0.671659       0.000000
      0.741421       0.641421       0.000000
      0.784518       0.701184       0.000000
      0.725999       0.730363       0.000000
      0.656527       0.750000       0.000000
      0.725999       0.730363       0.000000
      0.748697       0.787383       0.000000
      0.658747       0.804752       0.000000
      0.725999       0.730363       0.000000
      0.784518       0.701184       0.000000
      0.827614       0.760948       0.000000
      0.748697       0.787383       0.000000
      0.305719       0.760948       0.000000
      0.380813       0.787383       0.000000
      0.325006       0.842791       0.000000
      0.229289       0.820711       0.000000
      0.380813       0.787383       0.000000
      0.468251       0.804752       0.000000
      0.432173       0.856962       0.000000
      0.325006       0.842791       0.000000
      0.229289       0.820711       0.000000
      0.325006       0.842791       0.000000
      0.270755       0.896655       0.000000
      0.152860       0.880474       0.000000
      0.325006       0.842791       0.000000
      0.432173       0.856962       0.000000
      0.397732       0.906804       0.000000
      0.270755       0.896655       0.000000
      0.468251       0.804752       0.000000
      0.563060       0.810819       0.000000
      0.546050       0.861851       0.000000
      0.432173       0.856962       0.000000
      0.563060       0.810819       0.000000
      0.658747       0.804752       0.000000
      0.660865       0.856962       0.000000
      0.546050       0.861851       0.000000
      0.432173       0.856962       0.000000
      0.546050       0.861851       0.000000
      0.529912       0.910264       0.000000
      0.397732       0.906804       0.000000
      0.546050       0.861851       0.000000
      0.660865       0.856962       0.000000
      0.662887       0.906804       0.000000
      0.529912       0.910264       0.000000
      0.658747       0.804752       0.000000
      0.748697       0.787383       0.000000
      0.770753       0.842791       0.000000
      0.660865       0.856962       0.000000
      0.748697       0.787383       0.000000
      0.827614       0.760948       0.000000
      0.870711       0.820711       0.000000
      0.770753       0.842791       0.000000
      0.660865       0.856962       0.000000
      0.770753       0.842791       0.000000
      0.792195       0.896655       0.000000
      0.662887       0.906804       0.000000
      0.770753       0.842791       0.000000
      0.870711       0.820711       0.000000
      0.913807       0.880474       0.000000
      0.792195       0.896655       0.000000
      0.152860       0.880474       0.000000
      0.270755       0.896655       0.000000
      0.217995       0.949038       0.000000
      0.076430       0.940237       0.000000
      0.270755       0.896655       0.000000
      0.397732       0.906804       0.000000
      0.364819       0.954435       0.000000
      0.217995       0.949038       0.000000
      0.076430       0.940237       0.000000
      0.217995       0.949038       0.000000
      0.166667       1.000000       0.000000
      0.000000       1.000000       0.000000
      0.217995       0.949038       0.000000
      0.364819       0.954435       0.000000
      0.333333       1.000000       0.000000
      0.166667       1.000000       0.000000
      0.397732       0.906804       0.000000
      0.529912       0.910264       0.000000
      0.514582       0.956255       0.000000
      0.364819       0.954435       0.000000
      0.529912       0.910264       0.000000
      0.662887       0.906804       0.000000
      0.664819       0.954435       0.000000
      0.514582       0.956255       0.000000
      0.364819       0.954435       0.000000
      0.514582       0.956255       0.000000
      0.500000       1.000000       0.000000
      0.333333       1.000000       0.000000
      0.514582       0.956255       0.000000
      0.664819       0.954435       0.000000
      0.666667       1.000000       0.000000
      0.500000       1.000000       0.000000
      0.662887       0.906804       0.000000
      0.792195       0.896655       0.000000
      0.813047       0.949038       0.000000
      0.664819       0.954435       0.000000
      0.792195       0.896655       0.000000
      0.913807       0.880474       0.000000
      0.956904       0.940237       0.000000
      0.813047       0.949038       0.000000
      0.664819       0.954435       0.000000
      0.813047       0.949038       0.000000
      0.833333       1.000000       0.000000
      0.666667       1.000000       0.000000
      0.813047       0.949038       0.000000
      0.956904       0.940237       0.000000
      1.000000       1.000000       0.000000
      0.833333       1.000000       0.000000
      0.458579       0.358579       0.000000
      0.428341       0.397369       0.000000
      0.351758       0.356122       0.000000
      0.382149       0.298816       0.000000
      0.428341       0.397369       0.000000
      0.407483       0.445805       0.000000
      0.331305       0.424779       0.000000
      0.351758       0.356122       0.000000
      0.382149       0.298816       0.000000
      0.351758       0.356122       0.000000
      0.277372       0.316058       0.000000
      0.305719       0.239052       0.000000
      0.351758       0.356122       0.000000
      0.331305       0.424779       0.000000
      0.258747       0.404752       0.000000
      0.277372       0.316058       0.000000
      0.407483       0.445805       0.000000
      0.400000       0.500000       0.000000
      0.324066       0.500000       0.000000
      0.331305       0.424779       0.000000
      0.400000       0.500000       0.000000
      0.407483       0.554195       0.000000
      0.331305       0.575221       0.000000
      0.324066       0.500000       0.000000
      0.331305       0.424779       0.000000
      0.324066       0.500000       0.000000
      0.252241       0.500000       0.000000
      0.258747       0.404752       0.000000
      0.324066       0.500000       0.000000
      0.331305       0.575221       0.000000
      0.258747       0.595248       0.000000
      0.252241       0.500000       0.000000
      0.407483       0.554195       0.000000
      0.428341       0.602631       0.000000
      0.351758       0.643878       0.000000
      0.331305       0.575221       0.000000
      0.428341       0.602631       0.000000
      0.458579       0.641421       0.000000
      0.382149       0.701184       0.000000
      0.351758       0.643878       0.000000
      0.331305       0.575221       0.000000
      0.351758       0.643878       0.000000
      0.277372       0.683942       0.000000
      0.258747       0.595248       0.000000
      0.351758       0.643878       0.000000
      0.382149       0.701184       0.000000
      0.305719       0.760948       0.000000
      0.277372       0.683942       0.000000
      0.305719       0.239052       0.000000
      0.277372       0.316058       0.000000
      0.205089       0.277126       0.000000
      0.229289       0.179289       0.000000
      0.277372       0.316058       0.000000
      0.258747       0.404752       0.000000
      0.189557       0.385654       0.000000
      0.205089       0.277126       0.000000
      0.229289       0.179289       0.000000
      0.205089       0.277126       0.000000
      0.134820       0.239280       0.000000
      0.152860       0.119526       0.000000
      0.205089       0.277126       0.000000
      0.189557       0.385654       0.000000
      0.123505       0.367423       0.000000
      0.134820       0.239280       0.000000
      0.258747       0.404752       0.000000
      0.252241       0.500000       0.000000
      0.184198       0.500000       0.000000
      0.189557       0.385654       0.000000
      0.252241       0.500000       0.000000
      0.258747       0.595248       0.000000
      0.189557       0.614346       0.000000
      0.184198       0.500000       0.000000
      0.189557       0.385654       0.000000
      0.184198       0.500000       0.000000
      0.119648       0.500000       0.000000
      0.123505       0.367423       0.000000
[...]
POINT_DATA   576
VECTORS U float 
      0.000364       0.004729       0.000000
      0.000188       0.005073       0.000000
      0.000031       0.004817       0.000000
      0.000242       0.004385       0.000000
      0.000188       0.005073       0.000000
      0.000001       0.005303       0.000000
     -0.000108       0.005203       0.000000
      0.000031       0.004817       0.000000
      0.000242       0.004385       0.000000
      0.000031       0.004817       0.000000
      0.000057       0.004795       0.000000
      0.000308       0.004436       0.000000
      0.000031       0.004817       0.000000
     -0.000108       0.005203       0.000000
     -0.000120       0.005163       0.000000
      0.000057       0.004795       0.000000
      0.000001       0.005303       0.000000
     -0.000193       0.005396       0.000000
     -0.000182       0.005420       0.000000
     -0.000108       0.005203       0.000000
     -0.000193       0.005396       0.000000
     -0.000405       0.005348       0.000000
     -0.000252       0.005382       0.000000
     -0.000182       0.005420       0.000000
     -0.000108       0.005203       0.000000
     -0.000182       0.005420       0.000000
     -0.000180       0.005418       0.000000
     -0.000120       0.005163       0.000000
     -0.000182       0.005420       0.000000
     -0.000252       0.005382       0.000000
     -0.000191       0.005408       0.000000
     -0.000180       0.005418       0.000000
     -0.000405       0.005348       0.000000
     -0.000644       0.005156       0.000000
     -0.000381       0.005094       0.000000
     -0.000252       0.005382       0.000000
     -0.000644       0.005156       0.000000
     -0.000902       0.004839       0.000000
     -0.000609       0.004653       0.000000
     -0.000381       0.005094       0.000000
     -0.000252       0.005382       0.000000
     -0.000381       0.005094       0.000000
     -0.000277       0.005118       0.000000
     -0.000191       0.005408       0.000000
     -0.000381       0.005094       0.000000
     -0.000609       0.004653       0.000000
     -0.000492       0.004685       0.000000
     -0.000277       0.005118       0.000000
      0.000308       0.004436       0.000000
      0.000057       0.004795       0.000000
      0.000118       0.004903       0.000000
      0.000403       0.004633       0.000000
      0.000057       0.004795       0.000000
     -0.000120       0.005163       0.000000
     -0.000099       0.005198       0.000000
      0.000118       0.004903       0.000000
      0.000403       0.004633       0.000000
      0.000118       0.004903       0.000000
      0.000193       0.005085       0.000000
      0.000515       0.004898       0.000000
      0.000118       0.004903       0.000000
     -0.000099       0.005198       0.000000
     -0.000069       0.005287       0.000000
      0.000193       0.005085       0.000000
     -0.000120       0.005163       0.000000
     -0.000180       0.005418       0.000000
     -0.000174       0.005433       0.000000
     -0.000099       0.005198       0.000000
     -0.000180       0.005418       0.000000
     -0.000191       0.005408       0.000000
     -0.000159       0.005442       0.000000
     -0.000174       0.005433       0.000000
     -0.000099       0.005198       0.000000
     -0.000174       0.005433       0.000000
     -0.000168       0.005468       0.000000
     -0.000069       0.005287       0.000000
     -0.000174       0.005433       0.000000
     -0.000159       0.005442       0.000000
     -0.000140       0.005485       0.000000
     -0.000168       0.005468       0.000000
     -0.000191       0.005408       0.000000
     -0.000277       0.005118       0.000000
     -0.000222       0.005187       0.000000
     -0.000159       0.005442       0.000000
     -0.000277       0.005118       0.000000
     -0.000492       0.004685       0.000000
     -0.000428       0.004800       0.000000
     -0.000222       0.005187       0.000000
     -0.000159       0.005442       0.000000
     -0.000222       0.005187       0.000000
     -0.000192       0.005289       0.000000
     -0.000140       0.005485       0.000000
     -0.000222       0.005187       0.000000
     -0.000428       0.004800       0.000000
     -0.000410       0.004983       0.000000
     -0.000192       0.005289       0.000000
      0.000515       0.004898       0.000000
      0.000193       0.005085       0.000000
      0.000284       0.005315       0.000000
      0.000658       0.005210       0.000000
      0.000193       0.005085       0.000000
     -0.000069       0.005287       0.000000
     -0.000031       0.005418       0.000000
      0.000284       0.005315       0.000000
      0.000658       0.005210       0.000000
      0.000284       0.005315       0.000000
      0.000400       0.005582       0.000000
      0.000854       0.005582       0.000000
      0.000284       0.005315       0.000000
     -0.000031       0.005418       0.000000
      0.000019       0.005582       0.000000
      0.000400       0.005582       0.000000
     -0.000069       0.005287       0.000000
     -0.000168       0.005468       0.000000
     -0.000162       0.005519       0.000000
     -0.000031       0.005418       0.000000
     -0.000168       0.005468       0.000000
     -0.000140       0.005485       0.000000
     -0.000130       0.005533       0.000000
     -0.000162       0.005519       0.000000
     -0.000031       0.005418       0.000000
     -0.000162       0.005519       0.000000
     -0.000159       0.005582       0.000000
      0.000019       0.005582       0.000000
     -0.000162       0.005519       0.000000
     -0.000130       0.005533       0.000000
     -0.000126       0.005582       0.000000
     -0.000159       0.005582       0.000000
     -0.000140       0.005485       0.000000
     -0.000192       0.005289       0.000000
     -0.000184       0.005420       0.000000
     -0.000130       0.005533       0.000000
     -0.000192       0.005289       0.000000
     -0.000410       0.004983       0.000000
     -0.000446       0.005244       0.000000
     -0.000184       0.005420       0.000000
     -0.000130       0.005533       0.000000
     -0.000184       0.005420       0.000000
     -0.000197       0.005582       0.000000
     -0.000126       0.005582       0.000000
     -0.000184       0.005420       0.000000
     -0.000446       0.005244       0.000000
     -0.000535       0.005582       0.000000
     -0.000197       0.005582       0.000000
      0.000316       0.000736       0.000000
      0.000481       0.001188       0.000000
      0.000472       0.001549       0.000000
      0.000192       0.001066       0.000000
      0.000481       0.001188       0.000000
      0.000610       0.001834       0.000000
      0.000779       0.002118       0.000000
      0.000472       0.001549       0.000000
      0.000192       0.001066       0.000000
      0.000472       0.001549       0.000000
      0.000539       0.001543       0.000000
      0.000232       0.001014       0.000000
      0.000472       0.001549       0.000000
      0.000779       0.002118       0.000000
      0.000879       0.002146       0.000000
      0.000539       0.001543       0.000000
      0.000610       0.001834       0.000000
      0.000653       0.002713       0.000000
      0.000938       0.002726       0.000000
      0.000779       0.002118       0.000000
      0.000653       0.002713       0.000000
      0.000635       0.003600       0.000000
      0.000811       0.003331       0.000000
      0.000938       0.002726       0.000000
      0.000779       0.002118       0.000000
      0.000938       0.002726       0.000000
      0.001054       0.002735       0.000000
      0.000879       0.002146       0.000000
      0.000938       0.002726       0.000000
      0.000811       0.003331       0.000000
      0.000914       0.003317       0.000000
      0.001054       0.002735       0.000000
      0.000635       0.003600       0.000000
      0.000525       0.004259       0.000000
      0.000522       0.003896       0.000000
      0.000811       0.003331       0.000000
      0.000525       0.004259       0.000000
      0.000364       0.004729       0.000000
      0.000242       0.004385       0.000000
      0.000522       0.003896       0.000000
      0.000811       0.003331       0.000000
      0.000522       0.003896       0.000000
      0.000600       0.003908       0.000000
      0.000914       0.003317       0.000000
      0.000522       0.003896       0.000000
      0.000242       0.004385       0.000000
      0.000308       0.004436       0.000000
      0.000600       0.003908       0.000000
      0.000232       0.001014       0.000000
      0.000539       0.001543       0.000000
      0.000614       0.001436       0.000000
      0.000273       0.000826       0.000000
      0.000539       0.001543       0.000000
      0.000879       0.002146       0.000000
      0.000979       0.002107       0.000000
      0.000614       0.001436       0.000000
      0.000273       0.000826       0.000000
      0.000614       0.001436       0.000000
      0.000684       0.001315       0.000000
      0.000282       0.000586       0.000000
      0.000614       0.001436       0.000000
      0.000979       0.002107       0.000000
      0.001082       0.002066       0.000000
      0.000684       0.001315       0.000000
      0.000879       0.002146       0.000000
      0.001054       0.002735       0.000000
      0.001161       0.002746       0.000000
      0.000979       0.002107       0.000000
      0.001054       0.002735       0.000000
      0.000914       0.003317       0.000000
      0.001017       0.003377       0.000000
      0.001161       0.002746       0.000000
      0.000979       0.002107       0.000000
      0.001161       0.002746       0.000000
      0.001275       0.002758       0.000000
      0.001082       0.002066       0.000000
      0.001161       0.002746       0.000000
      0.001017       0.003377       0.000000
      0.001123       0.003447       0.000000
      0.001275       0.002758       0.000000
      0.000914       0.003317       0.000000
      0.000600       0.003908       0.000000
      0.000694       0.004031       0.000000
      0.001017       0.003377       0.000000
      0.000600       0.003908       0.000000
      0.000308       0.004436       0.000000
      0.000403       0.004633       0.000000
      0.000694       0.004031       0.000000
      0.001017       0.003377       0.000000
      0.000694       0.004031       0.000000
      0.000790       0.004182       0.000000
      0.001123       0.003447       0.000000
      0.000694       0.004031       0.000000
      0.000403       0.004633       0.000000
      0.000515       0.004898       0.000000
      0.000790       0.004182       0.000000
      0.000282       0.000586       0.000000
      0.000684       0.001315       0.000000
      0.000745       0.001224       0.000000
      0.000228       0.000321       0.000000
      0.000684       0.001315       0.000000
      0.001082       0.002066       0.000000
      0.001179       0.002050       0.000000
      0.000745       0.001224       0.000000
      0.000228       0.000321       0.000000
      0.000745       0.001224       0.000000
      0.000798       0.001182       0.000000
      0.000000       0.000000       0.000000
      0.000745       0.001224       0.000000
      0.001179       0.002050       0.000000
      0.001266       0.002080       0.000000
      0.000798       0.001182       0.000000
      0.001082       0.002066       0.000000
      0.001275       0.002758       0.000000
      0.001392       0.002771       0.000000
      0.001179       0.002050       0.000000
      0.001275       0.002758       0.000000
      0.001123       0.003447       0.000000
      0.001227       0.003496       0.000000
      0.001392       0.002771       0.000000
      0.001179       0.002050       0.000000
      0.001392       0.002771       0.000000
      0.001498       0.002781       0.000000
      0.001266       0.002080       0.000000
      0.001392       0.002771       0.000000
      0.001227       0.003496       0.000000
      0.001325       0.003497       0.000000
      0.001498       0.002781       0.000000
      0.001123       0.003447       0.000000
      0.000790       0.004182       0.000000
      0.000888       0.004327       0.000000
      0.001227       0.003496       0.000000
      0.000790       0.004182       0.000000
      0.000515       0.004898       0.000000
      0.000658       0.005210       0.000000
      0.000888       0.004327       0.000000
      0.001227       0.003496       0.000000
      0.000888       0.004327       0.000000
      0.000998       0.004454       0.000000
      0.001325       0.003497       0.000000
      0.000888       0.004327       0.000000
      0.000658       0.005210       0.000000
      0.000854       0.005582       0.000000
      0.000998       0.004454       0.000000
     -0.000847       0.000690       0.000000
     -0.000584       0.000373       0.000000
     -0.000313       0.000441       0.000000
     -0.000540       0.000885       0.000000
     -0.000584       0.000373       0.000000
     -0.000355       0.000185       0.000000
     -0.000197       0.000158       0.000000
     -0.000313       0.000441       0.000000
     -0.000540       0.000885       0.000000
     -0.000313       0.000441       0.000000
     -0.000184       0.000425       0.000000
     -0.000398       0.000861       0.000000
     -0.000313       0.000441       0.000000
     -0.000197       0.000158       0.000000
     -0.000118       0.000142       0.000000
     -0.000184       0.000425       0.000000
     -0.000355       0.000185       0.000000
     -0.000169       0.000132       0.000000
     -0.000151       0.000115       0.000000
     -0.000197       0.000158       0.000000
     -0.000169       0.000132       0.000000
     -0.000008       0.000211       0.000000
     -0.000107       0.000303       0.000000
     -0.000151       0.000115       0.000000
     -0.000197       0.000158       0.000000
     -0.000151       0.000115       0.000000
     -0.000139       0.000123       0.000000
     -0.000118       0.000142       0.000000
     -0.000151       0.000115       0.000000
     -0.000107       0.000303       0.000000
     -0.000122       0.000343       0.000000
     -0.000139       0.000123       0.000000
     -0.000008       0.000211       0.000000
      0.000152       0.000416       0.000000
      0.000001       0.000656       0.000000
     -0.000107       0.000303       0.000000
      0.000152       0.000416       0.000000
      0.000316       0.000736       0.000000
      0.000192       0.001066       0.000000
      0.000001       0.000656       0.000000
     -0.000107       0.000303       0.000000
      0.000001       0.000656       0.000000
      0.000008       0.000674       0.000000
     -0.000122       0.000343       0.000000
      0.000001       0.000656       0.000000
      0.000192       0.001066       0.000000
      0.000232       0.001014       0.000000
      0.000008       0.000674       0.000000
     -0.000398       0.000861       0.000000
     -0.000184       0.000425       0.000000
     -0.000099       0.000360       0.000000
     -0.000301       0.000751       0.000000
     -0.000184       0.000425       0.000000
     -0.000118       0.000142       0.000000
     -0.000065       0.000118       0.000000
     -0.000099       0.000360       0.000000
     -0.000301       0.000751       0.000000
     -0.000099       0.000360       0.000000
     -0.000038       0.000262       0.000000
     -0.000237       0.000573       0.000000
     -0.000099       0.000360       0.000000
     -0.000065       0.000118       0.000000
     -0.000027       0.000087       0.000000
     -0.000038       0.000262       0.000000
     -0.000118       0.000142       0.000000
     -0.000139       0.000123       0.000000
     -0.000121       0.000117       0.000000
     -0.000065       0.000118       0.000000
     -0.000139       0.000123       0.000000
     -0.000122       0.000343       0.000000
     -0.000108       0.000313       0.000000
     -0.000121       0.000117       0.000000
     -0.000065       0.000118       0.000000
     -0.000121       0.000117       0.000000
     -0.000095       0.000094       0.000000
     -0.000027       0.000087       0.000000
     -0.000121       0.000117       0.000000
     -0.000108       0.000313       0.000000
     -0.000081       0.000234       0.000000
     -0.000095       0.000094       0.000000
     -0.000122       0.000343       0.000000
      0.000008       0.000674       0.000000
      0.000036       0.000568       0.000000
     -0.000108       0.000313       0.000000
      0.000008       0.000674       0.000000
      0.000232       0.001014       0.000000
      0.000273       0.000826       0.000000
      0.000036       0.000568       0.000000
     -0.000108       0.000313       0.000000
      0.000036       0.000568       0.000000
      0.000054       0.000399       0.000000
     -0.000081       0.000234       0.000000
      0.000036       0.000568       0.000000
      0.000273       0.000826       0.000000
      0.000282       0.000586       0.000000
      0.000054       0.000399       0.000000
     -0.000237       0.000573       0.000000
     -0.000038       0.000262       0.000000
     -0.000002       0.000139       0.000000
     -0.000182       0.000322       0.000000
     -0.000038       0.000262       0.000000
     -0.000027       0.000087       0.000000
     -0.000004       0.000048       0.000000
     -0.000002       0.000139       0.000000
     -0.000182       0.000322       0.000000
     -0.000002       0.000139       0.000000
      0.000000       0.000000       0.000000
      0.000000       0.000000       0.000000
     -0.000002       0.000139       0.000000
     -0.000004       0.000048       0.000000
      0.000000       0.000000       0.000000
      0.000000       0.000000       0.000000
     -0.000027       0.000087       0.000000
     -0.000095       0.000094       0.000000
     -0.000058       0.000054       0.000000
     -0.000004       0.000048       0.000000
     -0.000095       0.000094       0.000000
     -0.000081       0.000234       0.000000
     -0.000045       0.000124       0.000000
     -0.000058       0.000054       0.000000
     -0.000004       0.000048       0.000000
     -0.000058       0.000054       0.000000
      0.000000       0.000000       0.000000
      0.000000       0.000000       0.000000
     -0.000058       0.000054       0.000000
     -0.000045       0.000124       0.000000
      0.000000       0.000000       0.000000
      0.000000       0.000000       0.000000
     -0.000081       0.000234       0.000000
      0.000054       0.000399       0.000000
      0.000047       0.000201       0.000000
     -0.000045       0.000124       0.000000
      0.000054       0.000399       0.000000
      0.000282       0.000586       0.000000
      0.000228       0.000321       0.000000
      0.000047       0.000201       0.000000
     -0.000045       0.000124       0.000000
      0.000047       0.000201       0.000000
      0.000000       0.000000       0.000000
      0.000000       0.000000       0.000000
      0.000047       0.000201       0.000000
      0.000228       0.000321       0.000000
      0.000000       0.000000       0.000000
      0.000000       0.000000       0.000000
     -0.000847       0.000690       0.000000
     -0.001133       0.001152       0.000000
     -0.000938       0.001368       0.000000
     -0.000540       0.000885       0.000000
     -0.001133       0.001152       0.000000
     -0.001383       0.001821       0.000000
     -0.001421       0.001985       0.000000
     -0.000938       0.001368       0.000000
     -0.000540       0.000885       0.000000
     -0.000938       0.001368       0.000000
     -0.000820       0.001389       0.000000