# vtk DataFile Version 2.0
time_10.vtk
ASCII
DATASET UNSTRUCTURED_GRID
POINTS  2388 float
      0.458579       0.641421       0.000000
      0.497369       0.671659       0.000000
      0.438243       0.730363       0.000000
      0.382149       0.701184       0.000000
      0.497369       0.671659       0.000000
      0.545805       0.692517       0.000000
      0.506084       0.750000       0.000000
      0.438243       0.730363       0.000000
      0.382149       0.701184       0.000000
      0.438243       0.730363       0.000000
      0.380813       0.787383       0.000000
      0.305719       0.760948       0.000000
      0.438243       0.730363       0.000000
      0.506084       0.750000       0.000000
      0.468251       0.804752       0.000000
      0.380813       0.787383       0.000000
      0.545805       0.692517       0.000000
      0.600000       0.700000       0.000000
      0.581017       0.756950       0.000000
      0.506084       0.750000       0.000000
      0.600000       0.700000       0.000000
      0.654195       0.692517       0.000000
      0.656527       0.750000       0.000000
      0.581017       0.756950       0.000000
      0.506084       0.750000       0.000000
      0.581017       0.756950       0.000000
      0.563060       0.810819       0.000000
      0.468251       0.804752       0.000000
      0.581017       0.756950       0.000000
      0.656527       0.750000       0.000000
      0.658747       0.804752       0.000000
      0.563060       0.810819       0.000000
      0.654195       0.692517       0.000000
      0.702631       0.671659       0.000000
      0.725999       0.730363       0.000000
      0.656527       0.750000       0.000000
      0.702631       0.671659       0.000000
      0.741421       0.641421       0.000000
      0.784518       0.701184       0.000000
      0.725999       0.730363       0.000000
      0.656527       0.750000       0.000000
      0.725999       0.730363       0.000000
      0.748697       0.787383       0.000000
      0.658747       0.804752       0.000000
      0.725999       0.730363       0.000000
      0.784518       0.701184       0.000000
      0.827614       0.760948       0.000000
      0.748697       0.787383       0.000000
      0.305719       0.760948       0.000000
      0.380813       0.787383       0.000000
      0.325006       0.842791       0.000000
      0.229289       0.820711       0.000000
      0.380813       0.787383       0.000000
      0.468251       0.804752       0.000000
      0.432173       0.856962       0.000000
      0.325006       0.842791       0.000000
      0.229289       0.820711       0.000000
      0.325006       0.842791       0.000000
      0.270755       0.896655       0.000000
      0.152860       0.880474       0.000000
      0.325006       0.842791       0.000000
      0.432173       0.856962       0.000000
      0.397732       0.906804       0.000000
      0.270755       0.896655       0.000000
      0.468251       0.804752       0.000000
      0.563060       0.810819       0.000000
      0.546050       0.861851       0.000000
      0.432173       0.856962       0.000000
      0.563060       0.810819       0.000000
      0.658747       0.804752       0.000000
      0.660865       0.856962       0.000000
      0.546050       0.861851       0.000000
      0.432173       0.856962       0.000000
      0.546050       0.861851       0.000000
      0.529912       0.910264       0.000000
      0.397732       0.906804       0.000000
      0.546050       0.861851       0.000000
      0.660865       0.856962       0.000000
      0.662887       0.906804       0.000000
      0.529912       0.910264       0.000000
      0.658747       0.804752       0.000000
      0.748697       0.787383       0.000000
      0.770753       0.842791       0.000000
      0.660865       0.856962       0.000000
      0.748697       0.787383       0.000000
      0.827614       0.760948       0.000000
      0.870711       0.820711       0.000000
      0.770753       0.842791       0.000000
      0.660865       0.856962       0.000000
      0.770753       0.842791       0.000000
      0.792195       0.896655       0.000000
      0.662887       0.906804       0.000000
      0.770753       0.842791       0.000000
      0.870711       0.820711       0.000000
      0.913807       0.880474       0.000000
      0.792195       0.896655       0.000000
      0.152860       0.880474       0.000000
      0.270755       0.896655       0.000000
      0.217995       0.949038       0.000000
      0.076430       0.940237       0.000000
      0.270755       0.896655       0.000000
      0.397732       0.906804       0.000000
      0.364819       0.954435       0.000000
      0.217995       0.949038       0.000000
      0.076430       0.940237       0.000000
      0.217995       0.949038       0.000000
      0.166667       1.000000       0.000000
      0.000000       1.000000       0.000000
      0.217995       0.949038       0.000000
      0.364819       0.954435       0.000000
      0.333333       1.000000       0.000000
      0.166667       1.000000       0.000000
      0.397732       0.906804       0.000000
      0.529912       0.910264       0.000000
      0.514582       0.956255       0.000000
      0.364819       0.954435       0.000000
      0.529912       0.910264       0.000000
      0.662887       0.906804       0.000000
      0.664819       0.954435       0.000000
      0.514582       0.956255       0.000000
      0.364819       0.954435       0.000000
      0.514582       0.956255       0.000000
      0.500000       1.000000       0.000000
      0.333333       1.000000       0.000000
      0.514582       0.956255       0.000000
      0.664819       0.954435       0.000000
      0.666667       1.000000       0.000000
      0.500000       1.000000       0.000000
      0.662887       0.906804       0.000000
      0.792195       0.896655       0.000000
      0.813047       0.949038       0.000000
      0.664819       0.954435       0.000000
      0.792195       0.896655       0.000000
      0.913807       0.880474       0.000000
      0.956904       0.940237       0.000000
      0.813047       0.949038       0.000000
      0.664819       0.954435       0.000000
      0.813047       0.949038       0.000000
      0.833333       1.000000       0.000000
      0.666667       1.000000       0.000000
      0.813047       0.949038       0.000000
      0.956904       0.940237       0.000000
      1.000000       1.000000       0.000000
      0.833333       1.000000       0.000000
      0.458579       0.358579       0.000000
      0.428341       0.397369       0.000000
      0.351758       0.356122       0.000000
      0.382149       0.298816       0.000000
      0.382149       0.298816       0.000000
      0.351758       0.356122       0.000000
      0.277372       0.316058       0.000000
      0.305719       0.239052       0.000000
      0.351758       0.356122       0.000000
      0.331305       0.424779       0.000000
      0.258747       0.404752       0.000000
      0.277372       0.316058       0.000000
      0.428341       0.602631       0.000000
      0.458579       0.641421       0.000000
      0.382149       0.701184       0.000000
      0.351758       0.643878       0.000000
      0.331305       0.575221       0.000000
      0.351758       0.643878       0.000000
      0.277372       0.683942       0.000000
      0.258747       0.595248       0.000000
      0.351758       0.643878       0.000000
      0.382149       0.701184       0.000000
      0.305719       0.760948       0.000000
      0.277372       0.683942       0.000000
      0.305719       0.239052       0.000000
      0.277372       0.316058       0.000000
      0.205089       0.277126       0.000000
      0.229289       0.179289       0.000000
      0.277372       0.316058       0.000000
      0.258747       0.404752       0.000000
      0.189557       0.385654       0.000000
      0.205089       0.277126       0.000000
      0.229289       0.179289       0.000000
      0.205089       0.277126       0.000000
      0.134820       0.239280       0.000000
      0.152860       0.119526       0.000000
      0.205089       0.277126       0.000000
      0.189557       0.385654       0.000000
      0.123505       0.367423       0.000000
      0.134820       0.239280       0.000000
      0.258747       0.404752       0.000000
      0.252241       0.500000       0.000000
      0.184198       0.500000       0.000000
      0.189557       0.385654       0.000000
      0.252241       0.500000       0.000000
      0.258747       0.595248       0.000000
      0.189557       0.614346       0.000000
      0.184198       0.500000       0.000000
      0.189557       0.385654       0.000000
      0.184198       0.500000       0.000000
      0.119648       0.500000       0.000000
      0.123505       0.367423       0.000000
      0.184198       0.500000       0.000000
      0.189557       0.614346       0.000000
      0.123505       0.632577       0.000000
      0.119648       0.500000       0.000000
      0.258747       0.595248       0.000000
      0.277372       0.683942       0.000000
      0.205089       0.722874       0.000000
      0.189557       0.614346       0.000000
      0.277372       0.683942       0.000000
      0.305719       0.760948       0.000000
      0.229289       0.820711       0.000000
      0.205089       0.722874       0.000000
      0.189557       0.614346       0.000000
      0.205089       0.722874       0.000000
      0.134820       0.760720       0.000000
      0.123505       0.632577       0.000000
      0.205089       0.722874       0.000000
      0.229289       0.820711       0.000000
      0.152860       0.880474       0.000000
      0.134820       0.760720       0.000000
      0.152860       0.119526       0.000000
      0.134820       0.239280       0.000000
      0.066483       0.202474       0.000000
      0.076430       0.059763       0.000000
[...]
POINT_DATA  2388
VECTORS U float 
      0.000567       0.005884       0.000000
      0.000370       0.006271       0.000000
      0.000152       0.005956       0.000000
      0.000390       0.005456       0.000000
      0.000370       0.006271       0.000000
      0.000194       0.006544       0.000000
      0.000007       0.006399       0.000000
      0.000152       0.005956       0.000000
      0.000390       0.005456       0.000000
      0.000152       0.005956       0.000000
      0.000129       0.005909       0.000000
      0.000427       0.005474       0.000000
      0.000152       0.005956       0.000000
      0.000007       0.006399       0.000000
     -0.000073       0.006338       0.000000
      0.000129       0.005909       0.000000
      0.000194       0.006544       0.000000
      0.000059       0.006701       0.000000
     -0.000049       0.006682       0.000000
      0.000007       0.006399       0.000000
      0.000059       0.006701       0.000000
     -0.000027       0.006773       0.000000
     -0.000071       0.006793       0.000000
     -0.000049       0.006682       0.000000
      0.000007       0.006399       0.000000
     -0.000049       0.006682       0.000000
     -0.000142       0.006659       0.000000
     -0.000073       0.006338       0.000000
     -0.000049       0.006682       0.000000
     -0.000071       0.006793       0.000000
     -0.000139       0.006801       0.000000
     -0.000142       0.006659       0.000000
     -0.000027       0.006773       0.000000
     -0.000077       0.006797       0.000000
     -0.000089       0.006812       0.000000
     -0.000071       0.006793       0.000000
     -0.000077       0.006797       0.000000
     -0.000104       0.006798       0.000000
     -0.000103       0.006802       0.000000
     -0.000089       0.006812       0.000000
     -0.000071       0.006793       0.000000
     -0.000089       0.006812       0.000000
     -0.000132       0.006824       0.000000
     -0.000139       0.006801       0.000000
     -0.000089       0.006812       0.000000
     -0.000103       0.006802       0.000000
     -0.000131       0.006812       0.000000
     -0.000132       0.006824       0.000000
      0.000427       0.005474       0.000000
      0.000129       0.005909       0.000000
      0.000166       0.006023       0.000000
      0.000515       0.005685       0.000000
      0.000129       0.005909       0.000000
     -0.000073       0.006338       0.000000
     -0.000097       0.006372       0.000000
      0.000166       0.006023       0.000000
      0.000515       0.005685       0.000000
      0.000166       0.006023       0.000000
      0.000236       0.006234       0.000000
      0.000632       0.005991       0.000000
      0.000166       0.006023       0.000000
     -0.000097       0.006372       0.000000
     -0.000087       0.006477       0.000000
      0.000236       0.006234       0.000000
     -0.000073       0.006338       0.000000
     -0.000142       0.006659       0.000000
     -0.000202       0.006665       0.000000
     -0.000097       0.006372       0.000000
     -0.000142       0.006659       0.000000
     -0.000139       0.006801       0.000000
     -0.000194       0.006807       0.000000
     -0.000202       0.006665       0.000000
     -0.000097       0.006372       0.000000
     -0.000202       0.006665       0.000000
     -0.000236       0.006699       0.000000
     -0.000087       0.006477       0.000000
     -0.000202       0.006665       0.000000
     -0.000194       0.006807       0.000000
     -0.000232       0.006814       0.000000
     -0.000236       0.006699       0.000000
     -0.000139       0.006801       0.000000
     -0.000132       0.006824       0.000000
     -0.000172       0.006830       0.000000
     -0.000194       0.006807       0.000000
     -0.000132       0.006824       0.000000
     -0.000131       0.006812       0.000000
     -0.000163       0.006819       0.000000
     -0.000172       0.006830       0.000000
     -0.000194       0.006807       0.000000
     -0.000172       0.006830       0.000000
     -0.000200       0.006832       0.000000
     -0.000232       0.006814       0.000000
     -0.000172       0.006830       0.000000
     -0.000163       0.006819       0.000000
     -0.000188       0.006825       0.000000
     -0.000200       0.006832       0.000000
      0.000632       0.005991       0.000000
      0.000236       0.006234       0.000000
      0.000336       0.006508       0.000000
      0.000799       0.006365       0.000000
      0.000236       0.006234       0.000000
     -0.000087       0.006477       0.000000
     -0.000053       0.006634       0.000000
      0.000336       0.006508       0.000000
      0.000799       0.006365       0.000000
      0.000336       0.006508       0.000000
      0.000475       0.006832       0.000000
      0.001044       0.006832       0.000000
      0.000336       0.006508       0.000000
     -0.000053       0.006634       0.000000
      0.000006       0.006832       0.000000
      0.000475       0.006832       0.000000
     -0.000087       0.006477       0.000000
     -0.000236       0.006699       0.000000
     -0.000250       0.006756       0.000000
     -0.000053       0.006634       0.000000
     -0.000236       0.006699       0.000000
     -0.000232       0.006814       0.000000
     -0.000253       0.006823       0.000000
     -0.000250       0.006756       0.000000
     -0.000053       0.006634       0.000000
     -0.000250       0.006756       0.000000
     -0.000248       0.006832       0.000000
      0.000006       0.006832       0.000000
     -0.000250       0.006756       0.000000
     -0.000253       0.006823       0.000000
     -0.000260       0.006832       0.000000
     -0.000248       0.006832       0.000000
     -0.000232       0.006814       0.000000
     -0.000200       0.006832       0.000000
     -0.000215       0.006832       0.000000
     -0.000253       0.006823       0.000000
     -0.000200       0.006832       0.000000
     -0.000188       0.006825       0.000000
     -0.000204       0.006831       0.000000
     -0.000215       0.006832       0.000000
     -0.000253       0.006823       0.000000
     -0.000215       0.006832       0.000000
     -0.000218       0.006832       0.000000
     -0.000260       0.006832       0.000000
     -0.000215       0.006832       0.000000
     -0.000204       0.006831       0.000000
     -0.000209       0.006832       0.000000
     -0.000218       0.006832       0.000000
      0.000511       0.000801       0.000000
      0.000716       0.001298       0.000000
      0.000675       0.001771       0.000000
      0.000338       0.001207       0.000000
      0.000338       0.001207       0.000000
      0.000675       0.001771       0.000000
      0.000742       0.001824       0.000000
      0.000348       0.001183       0.000000
      0.000675       0.001771       0.000000
      0.001076       0.002479       0.000000
      0.001204       0.002588       0.000000
      0.000742       0.001824       0.000000
      0.000769       0.005364       0.000000
      0.000567       0.005884       0.000000
      0.000390       0.005456       0.000000
      0.000731       0.004882       0.000000
      0.001116       0.004177       0.000000
      0.000731       0.004882       0.000000
      0.000809       0.004833       0.000000
      0.001243       0.004085       0.000000
      0.000731       0.004882       0.000000
      0.000390       0.005456       0.000000
      0.000427       0.005474       0.000000
      0.000809       0.004833       0.000000
      0.000348       0.001183       0.000000
      0.000742       0.001824       0.000000
      0.000824       0.001728       0.000000
      0.000372       0.000980       0.000000
      0.000742       0.001824       0.000000
      0.001204       0.002588       0.000000
      0.001324       0.002567       0.000000
      0.000824       0.001728       0.000000
      0.000372       0.000980       0.000000
      0.000824       0.001728       0.000000
      0.000897       0.001605       0.000000
      0.000361       0.000706       0.000000
      0.000824       0.001728       0.000000
      0.001324       0.002567       0.000000
      0.001443       0.002531       0.000000
      0.000897       0.001605       0.000000
      0.001204       0.002588       0.000000
      0.001466       0.003341       0.000000
      0.001582       0.003353       0.000000
      0.001324       0.002567       0.000000
      0.001466       0.003341       0.000000
      0.001243       0.004085       0.000000
      0.001364       0.004129       0.000000
      0.001582       0.003353       0.000000
      0.001324       0.002567       0.000000
      0.001582       0.003353       0.000000
      0.001712       0.003367       0.000000
      0.001443       0.002531       0.000000
      0.001582       0.003353       0.000000
      0.001364       0.004129       0.000000
      0.001487       0.004197       0.000000
      0.001712       0.003367       0.000000
      0.001243       0.004085       0.000000
      0.000809       0.004833       0.000000
      0.000911       0.004946       0.000000
      0.001364       0.004129       0.000000
      0.000809       0.004833       0.000000
      0.000427       0.005474       0.000000
      0.000515       0.005685       0.000000
      0.000911       0.004946       0.000000
      0.001364       0.004129       0.000000
      0.000911       0.004946       0.000000
      0.001014       0.005106       0.000000
      0.001487       0.004197       0.000000
      0.000911       0.004946       0.000000
      0.000515       0.005685       0.000000
      0.000632       0.005991       0.000000
      0.001014       0.005106       0.000000
      0.000361       0.000706       0.000000
      0.000897       0.001605       0.000000
      0.000960       0.001517       0.000000
      0.000282       0.000392       0.000000
      0.000897       0.001605       0.000000
      0.001443       0.002531       0.000000
      0.001554       0.002527       0.000000
      0.000960       0.001517       0.000000
      0.000282       0.000392       0.000000
      0.000960       0.001517       0.000000
      0.001015       0.001486       0.000000
      0.000000       0.000000       0.000000
      0.000960       0.001517       0.000000
      0.001554       0.002527       0.000000
      0.001651       0.002585       0.000000
      0.001015       0.001486       0.000000
      0.001443       0.002531       0.000000
      0.001712       0.003367       0.000000
      0.001847       0.003381       0.000000
      0.001554       0.002527       0.000000
      0.001712       0.003367       0.000000
      0.001487       0.004197       0.000000
      0.001605       0.004240       0.000000
      0.001847       0.003381       0.000000
      0.001554       0.002527       0.000000
      0.001847       0.003381       0.000000
      0.001969       0.003392       0.000000
      0.001651       0.002585       0.000000
      0.001847       0.003381       0.000000
      0.001605       0.004240       0.000000
      0.001715       0.004218       0.000000
      0.001969       0.003392       0.000000
      0.001487       0.004197       0.000000
      0.001014       0.005106       0.000000
      0.001121       0.005261       0.000000
      0.001605       0.004240       0.000000
      0.001014       0.005106       0.000000
      0.000632       0.005991       0.000000
      0.000799       0.006365       0.000000
      0.001121       0.005261       0.000000
      0.001605       0.004240       0.000000
      0.001121       0.005261       0.000000
      0.001247       0.005399       0.000000
      0.001715       0.004218       0.000000
      0.001121       0.005261       0.000000
      0.000799       0.006365       0.000000
      0.001044       0.006832       0.000000
      0.001247       0.005399       0.000000
      0.001163       0.003906       0.000000
      0.001040       0.004355       0.000000
      0.001116       0.004177       0.000000
      0.001276       0.003768       0.000000
      0.001002       0.002297       0.000000
      0.001140       0.002741       0.000000
      0.001253       0.002891       0.000000
      0.001076       0.002479       0.000000
      0.001049       0.002621       0.000000
      0.001076       0.002932       0.000000
      0.001191       0.003015       0.000000
      0.001140       0.002741       0.000000
      0.000860       0.003307       0.000000
      0.000868       0.003539       0.000000
      0.000993       0.003532       0.000000
      0.000989       0.003310       0.000000
      0.000868       0.003539       0.000000
      0.000887       0.003757       0.000000
      0.000999       0.003738       0.000000
      0.000993       0.003532       0.000000
      0.000989       0.003310       0.000000
      0.000993       0.003532       0.000000
      0.001089       0.003513       0.000000
      0.001088       0.003314       0.000000
      0.000993       0.003532       0.000000
      0.000999       0.003738       0.000000
      0.001086       0.003700       0.000000
      0.001089       0.003513       0.000000
      0.000883       0.002865       0.000000
      0.000867       0.003077       0.000000
      0.000989       0.003090       0.000000
      0.000991       0.002889       0.000000
      0.000867       0.003077       0.000000
      0.000860       0.003307       0.000000
      0.000989       0.003310       0.000000
      0.000989       0.003090       0.000000
      0.000991       0.002889       0.000000
      0.000989       0.003090       0.000000
      0.001084       0.003116       0.000000
      0.001076       0.002932       0.000000
      0.000989       0.003090       0.000000
      0.000989       0.003310       0.000000
      0.001088       0.003314       0.000000
      0.001084       0.003116       0.000000
      0.000924       0.004638       0.000000
      0.000860       0.005033       0.000000
      0.000890       0.004719       0.000000
      0.001040       0.004355       0.000000
      0.000860       0.005033       0.000000
      0.000769       0.005364       0.000000
      0.000727       0.005037       0.000000
      0.000890       0.004719       0.000000
      0.001040       0.004355       0.000000
      0.000890       0.004719       0.000000
      0.000926       0.004547       0.000000
      0.001116       0.004177       0.000000
      0.000890       0.004719       0.000000
      0.000727       0.005037       0.000000
      0.000731       0.004882       0.000000
      0.000926       0.004547       0.000000
      0.000924       0.004119       0.000000
      0.000935       0.004403       0.000000
      0.001038       0.004275       0.000000
      0.001069       0.004020       0.000000
      0.000935       0.004403       0.000000
      0.000924       0.004638       0.000000
      0.000994       0.004489       0.000000
      0.001038       0.004275       0.000000
      0.001069       0.004020       0.000000
      0.001038       0.004275       0.000000
      0.001107       0.004146       0.000000
      0.001163       0.003906       0.000000
      0.001038       0.004275       0.000000
      0.000994       0.004489       0.000000
      0.001040       0.004355       0.000000
      0.001107       0.004146       0.000000
      0.000887       0.003757       0.000000
      0.000908       0.003950       0.000000
      0.001005       0.003920       0.000000
      0.000999       0.003738       0.000000
      0.000908       0.003950       0.000000
      0.000924       0.004119       0.000000
      0.001006       0.004078       0.000000
      0.001005       0.003920       0.000000
      0.000999       0.003738       0.000000
      0.001005       0.003920       0.000000
      0.001080       0.003870       0.000000
      0.001086       0.003700       0.000000
      0.001005       0.003920       0.000000
      0.001006       0.004078       0.000000
      0.001069       0.004020       0.000000
      0.001080       0.003870       0.000000
      0.000716       0.001298       0.000000
      0.000815       0.001621       0.000000
      0.000840       0.001935       0.000000
      0.000672       0.001619       0.000000
      0.000815       0.001621       0.000000
      0.000892       0.002007       0.000000
      0.001002       0.002297       0.000000
      0.000840       0.001935       0.000000
      0.000672       0.001619       0.000000
      0.000840       0.001935       0.000000
      0.000875       0.002107       0.000000
      0.000675       0.001771       0.000000
      0.000840       0.001935       0.000000
      0.001002       0.002297       0.000000
      0.001076       0.002479       0.000000
      0.000875       0.002107       0.000000
      0.000892       0.002007       0.000000
      0.000911       0.002238       0.000000
      0.001009       0.002372       0.000000
      0.000958       0.002161       0.000000
      0.000911       0.002238       0.000000
      0.000910       0.002514       0.000000
      0.001049       0.002621       0.000000
      0.001009       0.002372       0.000000
      0.000958       0.002161       0.000000
      0.001009       0.002372       0.000000
      0.001075       0.002504       0.000000
      0.001002       0.002297       0.000000
      0.001009       0.002372       0.000000
      0.001049       0.002621       0.000000
      0.001140       0.002741       0.000000
      0.001075       0.002504       0.000000
      0.000910       0.002514       0.000000
      0.000899       0.002678       0.000000
      0.000992       0.002713       0.000000
      0.000988       0.002560       0.000000
      0.000899       0.002678       0.000000
      0.000883       0.002865       0.000000
      0.000991       0.002889       0.000000
      0.000992       0.002713       0.000000
      0.000988       0.002560       0.000000
      0.000992       0.002713       0.000000
      0.001064       0.002767       0.000000
      0.001049       0.002621       0.000000
      0.000992       0.002713       0.000000
      0.000991       0.002889       0.000000
      0.001076       0.002932       0.000000
      0.001064       0.002767       0.000000
      0.001076       0.002479       0.000000
      0.001253       0.002891       0.000000
      0.001326       0.002952       0.000000
      0.001142       0.002562       0.000000
      0.001253       0.002891       0.000000
      0.001341       0.003330       0.000000
      0.001409       0.003336       0.000000
      0.001326       0.002952       0.000000
      0.001142       0.002562       0.000000
      0.001326       0.002952       0.000000
      0.001386       0.002972       0.000000
      0.001204       0.002588       0.000000
      0.001326       0.002952       0.000000
      0.001409       0.003336       0.000000
      0.001466       0.003341       0.000000
      0.001386       0.002972       0.000000
      0.001341       0.003330       0.000000
      0.001276       0.003768       0.000000
      0.001348       0.003717       0.000000
      0.001409       0.003336       0.000000
      0.001276       0.003768       0.000000
      0.001116       0.004177       0.000000
      0.001181       0.004101       0.000000
      0.001348       0.003717       0.000000
      0.001409       0.003336       0.000000
      0.001348       0.003717       0.000000
      0.001407       0.003707       0.000000
      0.001466       0.003341       0.000000
      0.001348       0.003717       0.000000
      0.001181       0.004101       0.000000
      0.001243       0.004085       0.000000
      0.001407       0.003707       0.000000
      0.001216       0.003321       0.000000
      0.001204       0.003628       0.000000
      0.001277       0.003580       0.000000
      0.001291       0.003326       0.000000
      0.001204       0.003628       0.000000
      0.001163       0.003906       0.000000
      0.001228       0.003822       0.000000