# vtk DataFile Version 2.0
time_10.vtk
ASCII
DATASET UNSTRUCTURED_GRID
POINTS   792 float
      0.458579       0.641421       0.000000
      0.497369       0.671659       0.000000
      0.438243       0.730363       0.000000
      0.382149       0.701184       0.000000
      0.497369       0.671659       0.000000
      0.545805       0.692517       0.000000
      0.506084       0.750000       0.000000
      0.438243       0.730363       0.000000
      0.382149       0.701184       0.000000
      0.438243       0.730363       0.000000
      0.380813       0.787383       0.000000
      0.305719       0.760948       0.000000
      0.438243       0.730363       0.000000
      0.506084       0.750000       0.000000
      0.468251       0.804752       0.000000
      0.380813       0.787383       0.000000
      0.545805       0.692517       0.000000
      0.600000       0.700000       0.000000
      0.581017       0.756950       0.000000
      0.506084       0.750000       0.000000
      0.600000       0.700000       0.000000
      0.654195       0.692517       0.000000
      0.656527       0.750000       0.000000
      0.581017       0.756950       0.000000
      0.506084       0.750000       0.000000
      0.581017       0.756950       0.000000
      0.563060       0.810819       0.000000
      0.468251       0.804752       0.000000
      0.581017       0.756950       0.000000
      0.656527       0.750000       0.000000
      0.658747       0.804752       0.000000
      0.563060       0.810819       0.000000
      0.654195       0.692517       0.000000
      0.702631       0.671659       0.000000
      0.725999       0.730363       0.000000
      0.656527       0.750000       0.000000
      0.702631       0.671659       0.000000
      0.741421       0.641421       0.000000
      0.784518       0.701184       0.000000
      0.725999       0.730363       0.000000
      0.656527       0.750000       0.000000
      0.725999       0.730363       0.000000
      0.748697       0.787383       0.000000
      0.658747       0.804752       0.000000
      0.725999       0.730363       0.000000
      0.784518       0.701184       0.000000
      0.827614       0.760948       0.000000
      0.748697       0.787383       0.000000
      0.305719       0.760948       0.000000
      0.380813       0.787383       0.000000
      0.325006       0.842791       0.000000
      0.229289       0.820711       0.000000
      0.380813       0.787383       0.000000
      0.468251       0.804752       0.000000
      0.432173       0.856962       0.000000
      0.325006       0.842791       0.000000
      0.229289       0.820711       0.000000
      0.325006       0.842791       0.000000
      0.270755       0.896655       0.000000
      0.152860       0.880474       0.000000
      0.325006       0.842791       0.000000
      0.432173       0.856962       0.000000
      0.397732       0.906804       0.000000
      0.270755       0.896655       0.000000
      0.468251       0.804752       0.000000
      0.563060       0.810819       0.000000
      0.546050       0.861851       0.000000
      0.432173       0.856962       0.000000
      0.563060       0.810819       0.000000
      0.658747       0.804752       0.000000
      0.660865       0.856962       0.000000
      0.546050       0.861851       0.000000
      0.432173       0.856962       0.000000
      0.546050       0.861851       0.000000
      0.529912       0.910264       0.000000
      0.397732       0.906804       0.000000
      0.546050       0.861851       0.000000
      0.660865       0.856962       0.000000
      0.662887       0.906804       0.000000
      0.529912       0.910264       0.000000
      0.658747       0.804752       0.000000
      0.748697       0.787383       0.000000
      0.770753       0.842791       0.000000
      0.660865       0.856962       0.000000
      0.748697       0.787383       0.000000
      0.827614       0.760948       0.000000
      0.870711       0.820711       0.000000
      0.770753       0.842791       0.000000
      0.660865       0.856962       0.000000
      0.770753       0.842791       0.000000
      0.792195       0.896655       0.000000
      0.662887       0.906804       0.000000
      0.770753       0.842791       0.000000
      0.870711       0.820711       0.000000
      0.913807       0.880474       0.000000
      0.792195       0.896655       0.000000
      0.152860       0.880474       0.000000
      0.270755       0.896655       0.000000
      0.217995       0.949038       0.000000
      0.076430       0.940237       0.000000
      0.270755       0.896655       0.000000
      0.397732       0.906804       0.000000
      0.364819       0.954435       0.000000
      0.217995       0.949038       0.000000
      0.076430       0.940237       0.000000
      0.217995       0.949038       0.000000
      0.166667       1.000000       0.000000
      0.000000       1.000000       0.000000
      0.217995       0.949038       0.000000
      0.364819       0.954435       0.000000
      0.333333       1.000000       0.000000
      0.166667       1.000000       0.000000
      0.397732       0.906804       0.000000
      0.529912       0.910264       0.000000
      0.514582       0.956255       0.000000
      0.364819       0.954435       0.000000
      0.529912       0.910264       0.000000
      0.662887       0.906804       0.000000
      0.664819       0.954435       0.000000
      0.514582       0.956255       0.000000
      0.364819       0.954435       0.000000
      0.514582       0.956255       0.000000
      0.500000       1.000000       0.000000
      0.333333       1.000000       0.000000
      0.514582       0.956255       0.000000
      0.664819       0.954435       0.000000
      0.666667       1.000000       0.000000
      0.500000       1.000000       0.000000
      0.662887       0.906804       0.000000
      0.792195       0.896655       0.000000
      0.813047       0.949038       0.000000
      0.664819       0.954435       0.000000
      0.792195       0.896655       0.000000
      0.913807       0.880474       0.000000
      0.956904       0.940237       0.000000
      0.813047       0.949038       0.000000
      0.664819       0.954435       0.000000
      0.813047       0.949038       0.000000
      0.833333       1.000000       0.000000
      0.666667       1.000000       0.000000
      0.813047       0.949038       0.000000
      0.956904       0.940237       0.000000
      1.000000       1.000000       0.000000
      0.833333       1.000000       0.000000
      0.458579       0.358579       0.000000
      0.428341       0.397369       0.000000
      0.351758       0.356122       0.000000
      0.382149       0.298816       0.000000
      0.428341       0.397369       0.000000
      0.407483       0.445805       0.000000
      0.331305       0.424779       0.000000
      0.351758       0.356122       0.000000
      0.382149       0.298816       0.000000
      0.351758       0.356122       0.000000
      0.277372       0.316058       0.000000
      0.305719       0.239052       0.000000
      0.351758       0.356122       0.000000
      0.331305       0.424779       0.000000
      0.258747       0.404752       0.000000
      0.277372       0.316058       0.000000
      0.407483       0.445805       0.000000
      0.400000       0.500000       0.000000
      0.324066       0.500000       0.000000
      0.331305       0.424779       0.000000
      0.400000       0.500000       0.000000
      0.407483       0.554195       0.000000
      0.331305       0.575221       0.000000
      0.324066       0.500000       0.000000
      0.331305       0.424779       0.000000
      0.324066       0.500000       0.000000
      0.252241       0.500000       0.000000
      0.258747       0.404752       0.000000
      0.324066       0.500000       0.000000
      0.331305       0.575221       0.000000
      0.258747       0.595248       0.000000
      0.252241       0.500000       0.000000
      0.407483       0.554195       0.000000
      0.428341       0.602631       0.000000
      0.351758       0.643878       0.000000
      0.331305       0.575221       0.000000
      0.428341       0.602631       0.000000
      0.458579       0.641421       0.000000
      0.382149       0.701184       0.000000
      0.351758       0.643878       0.000000
      0.331305       0.575221       0.000000
      0.351758       0.643878       0.000000
      0.277372       0.683942       0.000000
      0.258747       0.595248       0.000000
      0.351758       0.643878       0.000000
      0.382149       0.701184       0.000000
      0.305719       0.760948       0.000000
      0.277372       0.683942       0.000000
      0.305719       0.239052       0.000000
      0.277372       0.316058       0.000000
      0.205089       0.277126       0.000000
      0.229289       0.179289       0.000000
      0.277372       0.316058       0.000000
      0.258747       0.404752       0.000000
      0.189557       0.385654       0.000000
      0.205089       0.277126       0.000000
      0.229289       0.179289       0.000000
      0.205089       0.277126       0.000000
      0.134820       0.239280       0.000000
      0.152860       0.119526       0.000000
      0.205089       0.277126       0.000000
      0.189557       0.385654       0.000000
      0.123505       0.367423       0.000000
      0.134820       0.239280       0.000000
      0.258747       0.404752       0.000000
      0.252241       0.500000       0.000000
      0.184198       0.500000       0.000000
      0.189557       0.385654       0.000000
      0.252241       0.500000       0.000000
      0.258747       0.595248       0.000000
      0.189557       0.614346       0.000000
      0.184198       0.500000       0.000000
      0.189557       0.385654       0.000000
      0.184198       0.500000       0.000000
      0.119648       0.500000       0.000000
      0.123505       0.367423       0.000000
[...]
POINT_DATA   792
VECTORS U float 
      0.000434       0.005631       0.000000
      0.000223       0.006013       0.000000
      0.000038       0.005720       0.000000
      0.000280       0.005224       0.000000
      0.000223       0.006013       0.000000
      0.000006       0.006268       0.000000
     -0.000120       0.006156       0.000000
      0.000038       0.005720       0.000000
      0.000280       0.005224       0.000000
      0.000038       0.005720       0.000000
      0.000059       0.005684       0.000000
      0.000348       0.005259       0.000000
      0.000038       0.005720       0.000000
     -0.000120       0.006156       0.000000
     -0.000139       0.006107       0.000000
      0.000059       0.005684       0.000000
      0.000006       0.006268       0.000000
     -0.000218       0.006373       0.000000
     -0.000205       0.006400       0.000000
     -0.000120       0.006156       0.000000
     -0.000218       0.006373       0.000000
     -0.000461       0.006321       0.000000
     -0.000286       0.006360       0.000000
     -0.000205       0.006400       0.000000
     -0.000120       0.006156       0.000000
     -0.000205       0.006400       0.000000
     -0.000204       0.006395       0.000000
     -0.000139       0.006107       0.000000
     -0.000205       0.006400       0.000000
     -0.000286       0.006360       0.000000
     -0.000215       0.006386       0.000000
     -0.000204       0.006395       0.000000
     -0.000461       0.006321       0.000000
     -0.000739       0.006114       0.000000
     -0.000434       0.006041       0.000000
     -0.000286       0.006360       0.000000
     -0.000739       0.006114       0.000000
     -0.001047       0.005766       0.000000
     -0.000695       0.005544       0.000000
     -0.000434       0.006041       0.000000
     -0.000286       0.006360       0.000000
     -0.000434       0.006041       0.000000
     -0.000307       0.006060       0.000000
     -0.000215       0.006386       0.000000
     -0.000434       0.006041       0.000000
     -0.000695       0.005544       0.000000
     -0.000548       0.005562       0.000000
     -0.000307       0.006060       0.000000
      0.000348       0.005259       0.000000
      0.000059       0.005684       0.000000
      0.000122       0.005796       0.000000
      0.000451       0.005468       0.000000
      0.000059       0.005684       0.000000
     -0.000139       0.006107       0.000000
     -0.000121       0.006140       0.000000
      0.000122       0.005796       0.000000
      0.000451       0.005468       0.000000
      0.000122       0.005796       0.000000
      0.000201       0.005995       0.000000
      0.000574       0.005763       0.000000
      0.000122       0.005796       0.000000
     -0.000121       0.006140       0.000000
     -0.000091       0.006235       0.000000
      0.000201       0.005995       0.000000
     -0.000139       0.006107       0.000000
     -0.000204       0.006395       0.000000
     -0.000199       0.006408       0.000000
     -0.000121       0.006140       0.000000
     -0.000204       0.006395       0.000000
     -0.000215       0.006386       0.000000
     -0.000176       0.006420       0.000000
     -0.000199       0.006408       0.000000
     -0.000121       0.006140       0.000000
     -0.000199       0.006408       0.000000
     -0.000194       0.006443       0.000000
     -0.000091       0.006235       0.000000
     -0.000199       0.006408       0.000000
     -0.000176       0.006420       0.000000
     -0.000153       0.006463       0.000000
     -0.000194       0.006443       0.000000
     -0.000215       0.006386       0.000000
     -0.000307       0.006060       0.000000
     -0.000239       0.006130       0.000000
     -0.000176       0.006420       0.000000
     -0.000307       0.006060       0.000000
     -0.000548       0.005562       0.000000
     -0.000467       0.005678       0.000000
     -0.000239       0.006130       0.000000
     -0.000176       0.006420       0.000000
     -0.000239       0.006130       0.000000
     -0.000202       0.006238       0.000000
     -0.000153       0.006463       0.000000
     -0.000239       0.006130       0.000000
     -0.000467       0.005678       0.000000
     -0.000445       0.005880       0.000000
     -0.000202       0.006238       0.000000
      0.000574       0.005763       0.000000
      0.000201       0.005995       0.000000
      0.000302       0.006255       0.000000
      0.000738       0.006121       0.000000
      0.000201       0.005995       0.000000
     -0.000091       0.006235       0.000000
     -0.000051       0.006379       0.000000
      0.000302       0.006255       0.000000
      0.000738       0.006121       0.000000
      0.000302       0.006255       0.000000
      0.000434       0.006562       0.000000
      0.000970       0.006562       0.000000
      0.000302       0.006255       0.000000
     -0.000051       0.006379       0.000000
      0.000002       0.006562       0.000000
      0.000434       0.006562       0.000000
     -0.000091       0.006235       0.000000
     -0.000194       0.006443       0.000000
     -0.000190       0.006495       0.000000
     -0.000051       0.006379       0.000000
     -0.000194       0.006443       0.000000
     -0.000153       0.006463       0.000000
     -0.000141       0.006511       0.000000
     -0.000190       0.006495       0.000000
     -0.000051       0.006379       0.000000
     -0.000190       0.006495       0.000000
     -0.000187       0.006562       0.000000
      0.000002       0.006562       0.000000
     -0.000190       0.006495       0.000000
     -0.000141       0.006511       0.000000
     -0.000137       0.006562       0.000000
     -0.000187       0.006562       0.000000
     -0.000153       0.006463       0.000000
     -0.000202       0.006238       0.000000
     -0.000191       0.006382       0.000000
     -0.000141       0.006511       0.000000
     -0.000202       0.006238       0.000000
     -0.000445       0.005880       0.000000
     -0.000485       0.006175       0.000000
     -0.000191       0.006382       0.000000
     -0.000141       0.006511       0.000000
     -0.000191       0.006382       0.000000
     -0.000205       0.006562       0.000000
     -0.000137       0.006562       0.000000
     -0.000191       0.006382       0.000000
     -0.000485       0.006175       0.000000
     -0.000586       0.006562       0.000000
     -0.000205       0.006562       0.000000
      0.000381       0.000803       0.000000
      0.000584       0.001303       0.000000
      0.000557       0.001749       0.000000
      0.000227       0.001191       0.000000
      0.000584       0.001303       0.000000
      0.000744       0.002028       0.000000
      0.000937       0.002432       0.000000
      0.000557       0.001749       0.000000
      0.000227       0.001191       0.000000
      0.000557       0.001749       0.000000
      0.000634       0.001775       0.000000
      0.000267       0.001151       0.000000
      0.000557       0.001749       0.000000
      0.000937       0.002432       0.000000
      0.001059       0.002503       0.000000
      0.000634       0.001775       0.000000
      0.000744       0.002028       0.000000
      0.000765       0.003189       0.000000
      0.001158       0.003206       0.000000
      0.000937       0.002432       0.000000
      0.000765       0.003189       0.000000
      0.000774       0.004367       0.000000
      0.000974       0.003976       0.000000
      0.001158       0.003206       0.000000
      0.000937       0.002432       0.000000
      0.001158       0.003206       0.000000
      0.001289       0.003216       0.000000
      0.001059       0.002503       0.000000
      0.001158       0.003206       0.000000
      0.000974       0.003976       0.000000
      0.001097       0.003920       0.000000
      0.001289       0.003216       0.000000
      0.000774       0.004367       0.000000
      0.000634       0.005109       0.000000
      0.000612       0.004656       0.000000
      0.000974       0.003976       0.000000
      0.000634       0.005109       0.000000
      0.000434       0.005631       0.000000
      0.000280       0.005224       0.000000
      0.000612       0.004656       0.000000
      0.000974       0.003976       0.000000
      0.000612       0.004656       0.000000
      0.000700       0.004634       0.000000
      0.001097       0.003920       0.000000
      0.000612       0.004656       0.000000
      0.000280       0.005224       0.000000
      0.000348       0.005259       0.000000
      0.000700       0.004634       0.000000
      0.000267       0.001151       0.000000
      0.000634       0.001775       0.000000
      0.000723       0.001668       0.000000
      0.000312       0.000947       0.000000
      0.000634       0.001775       0.000000
      0.001059       0.002503       0.000000
      0.001178       0.002472       0.000000
      0.000723       0.001668       0.000000
      0.000312       0.000947       0.000000
      0.000723       0.001668       0.000000
      0.000804       0.001540       0.000000
      0.000321       0.000678       0.000000
      0.000723       0.001668       0.000000
      0.001178       0.002472       0.000000
      0.001296       0.002429       0.000000
      0.000804       0.001540       0.000000
      0.001059       0.002503       0.000000
      0.001289       0.003216       0.000000
      0.001409       0.003227       0.000000
      0.001178       0.002472       0.000000
      0.001289       0.003216       0.000000
      0.001097       0.003920       0.000000
      0.001218       0.003973       0.000000
      0.001409       0.003227       0.000000
      0.001178       0.002472       0.000000
      0.001409       0.003227       0.000000
      0.001539       0.003240       0.000000
      0.001296       0.002429       0.000000
      0.001409       0.003227       0.000000
      0.001218       0.003973       0.000000
      0.001340       0.004045       0.000000
      0.001539       0.003240       0.000000
      0.001097       0.003920       0.000000
      0.000700       0.004634       0.000000
      0.000809       0.004756       0.000000
      0.001218       0.003973       0.000000
      0.000700       0.004634       0.000000
      0.000348       0.005259       0.000000
      0.000451       0.005468       0.000000
      0.000809       0.004756       0.000000
      0.001218       0.003973       0.000000
      0.000809       0.004756       0.000000
      0.000917       0.004917       0.000000
      0.001340       0.004045       0.000000
      0.000809       0.004756       0.000000
      0.000451       0.005468       0.000000
      0.000574       0.005763       0.000000
      0.000917       0.004917       0.000000
      0.000321       0.000678       0.000000
      0.000804       0.001540       0.000000
      0.000873       0.001444       0.000000
      0.000260       0.000374       0.000000
      0.000804       0.001540       0.000000
      0.001296       0.002429       0.000000
      0.001408       0.002417       0.000000
      0.000873       0.001444       0.000000
      0.000260       0.000374       0.000000
      0.000873       0.001444       0.000000
      0.000934       0.001400       0.000000
      0.000000       0.000000       0.000000
      0.000873       0.001444       0.000000
      0.001408       0.002417       0.000000
      0.001506       0.002462       0.000000
      0.000934       0.001400       0.000000
      0.001296       0.002429       0.000000
      0.001539       0.003240       0.000000
      0.001673       0.003253       0.000000
      0.001408       0.002417       0.000000
      0.001539       0.003240       0.000000
      0.001340       0.004045       0.000000
      0.001459       0.004092       0.000000
      0.001673       0.003253       0.000000
      0.001408       0.002417       0.000000
      0.001673       0.003253       0.000000
      0.001794       0.003264       0.000000
      0.001506       0.002462       0.000000
      0.001673       0.003253       0.000000
      0.001459       0.004092       0.000000
      0.001569       0.004082       0.000000
      0.001794       0.003264       0.000000
      0.001340       0.004045       0.000000
      0.000917       0.004917       0.000000
      0.001026       0.005073       0.000000
      0.001459       0.004092       0.000000
      0.000917       0.004917       0.000000
      0.000574       0.005763       0.000000
      0.000738       0.006121       0.000000
      0.001026       0.005073       0.000000
      0.001459       0.004092       0.000000
      0.001026       0.005073       0.000000
      0.001151       0.005213       0.000000
      0.001569       0.004082       0.000000
      0.001026       0.005073       0.000000
      0.000738       0.006121       0.000000
      0.000970       0.006562       0.000000
      0.001151       0.005213       0.000000
     -0.000984       0.000740       0.000000
     -0.000671       0.000394       0.000000
     -0.000357       0.000472       0.000000
     -0.000616       0.000971       0.000000
     -0.000671       0.000394       0.000000
     -0.000403       0.000190       0.000000
     -0.000224       0.000160       0.000000
     -0.000357       0.000472       0.000000
     -0.000616       0.000971       0.000000
     -0.000357       0.000472       0.000000
     -0.000205       0.000461       0.000000
     -0.000443       0.000961       0.000000
     -0.000357       0.000472       0.000000
     -0.000224       0.000160       0.000000
     -0.000133       0.000145       0.000000
     -0.000205       0.000461       0.000000
     -0.000403       0.000190       0.000000
     -0.000189       0.000135       0.000000
     -0.000168       0.000115       0.000000
     -0.000224       0.000160       0.000000
     -0.000189       0.000135       0.000000
     -0.000003       0.000223       0.000000
     -0.000116       0.000326       0.000000
     -0.000168       0.000115       0.000000
     -0.000224       0.000160       0.000000
     -0.000168       0.000115       0.000000
     -0.000155       0.000126       0.000000
     -0.000133       0.000145       0.000000
     -0.000168       0.000115       0.000000
     -0.000116       0.000326       0.000000
     -0.000136       0.000374       0.000000
     -0.000155       0.000126       0.000000
     -0.000003       0.000223       0.000000
      0.000184       0.000449       0.000000
      0.000008       0.000722       0.000000
     -0.000116       0.000326       0.000000
      0.000184       0.000449       0.000000
      0.000381       0.000803       0.000000
      0.000227       0.001191       0.000000
      0.000008       0.000722       0.000000
     -0.000116       0.000326       0.000000
      0.000008       0.000722       0.000000
      0.000010       0.000751       0.000000
     -0.000136       0.000374       0.000000
      0.000008       0.000722       0.000000
      0.000227       0.001191       0.000000
      0.000267       0.001151       0.000000
      0.000010       0.000751       0.000000
     -0.000443       0.000961       0.000000
     -0.000205       0.000461       0.000000
     -0.000105       0.000396       0.000000
     -0.000329       0.000849       0.000000
     -0.000205       0.000461       0.000000
     -0.000133       0.000145       0.000000
     -0.000072       0.000122       0.000000
     -0.000105       0.000396       0.000000
     -0.000329       0.000849       0.000000
     -0.000105       0.000396       0.000000
     -0.000036       0.000291       0.000000
     -0.000257       0.000651       0.000000
     -0.000105       0.000396       0.000000
     -0.000072       0.000122       0.000000
     -0.000028       0.000091       0.000000
     -0.000036       0.000291       0.000000
     -0.000133       0.000145       0.000000
     -0.000155       0.000126       0.000000
     -0.000136       0.000123       0.000000
     -0.000072       0.000122       0.000000
     -0.000155       0.000126       0.000000
     -0.000136       0.000374       0.000000
     -0.000123       0.000345       0.000000
     -0.000136       0.000123       0.000000
     -0.000072       0.000122       0.000000
     -0.000136       0.000123       0.000000
     -0.000108       0.000100       0.000000
     -0.000028       0.000091       0.000000
     -0.000136       0.000123       0.000000
     -0.000123       0.000345       0.000000
     -0.000095       0.000259       0.000000
     -0.000108       0.000100       0.000000
     -0.000136       0.000374       0.000000
      0.000010       0.000751       0.000000
      0.000038       0.000639       0.000000
     -0.000123       0.000345       0.000000
      0.000010       0.000751       0.000000
      0.000267       0.001151       0.000000
      0.000312       0.000947       0.000000
      0.000038       0.000639       0.000000
     -0.000123       0.000345       0.000000
      0.000038       0.000639       0.000000
      0.000057       0.000452       0.000000
     -0.000095       0.000259       0.000000
      0.000038       0.000639       0.000000
      0.000312       0.000947       0.000000
      0.000321       0.000678       0.000000
      0.000057       0.000452       0.000000
     -0.000257       0.000651       0.000000
     -0.000036       0.000291       0.000000
      0.000002       0.000155       0.000000
     -0.000200       0.000364       0.000000
     -0.000036       0.000291       0.000000
     -0.000028       0.000091       0.000000
     -0.000003       0.000051       0.000000
      0.000002       0.000155       0.000000
     -0.000200       0.000364       0.000000
      0.000002       0.000155       0.000000
      0.000000       0.000000       0.000000
      0.000000       0.000000       0.000000
      0.000002       0.000155       0.000000
     -0.000003       0.000051       0.000000
      0.000000       0.000000       0.000000
      0.000000       0.000000       0.000000
     -0.000028       0.000091       0.000000
     -0.000108       0.000100       0.000000
     -0.000066       0.000058       0.000000
     -0.000003       0.000051       0.000000
     -0.000108       0.000100       0.000000
     -0.000095       0.000259       0.000000
     -0.000053       0.000138       0.000000
     -0.000066       0.000058       0.000000
     -0.000003       0.000051       0.000000
     -0.000066       0.000058       0.000000
      0.000000       0.000000       0.000000
      0.000000       0.000000       0.000000
     -0.000066       0.000058       0.000000
     -0.000053       0.000138       0.000000
      0.000000       0.000000       0.000000
      0.000000       0.000000       0.000000
     -0.000095       0.000259       0.000000
      0.000057       0.000452       0.000000
      0.000050       0.000229       0.000000
     -0.000053       0.000138       0.000000
      0.000057       0.000452       0.000000
      0.000321       0.000678       0.000000
      0.000260       0.000374       0.000000
      0.000050       0.000229       0.000000
     -0.000053       0.000138       0.000000
      0.000050       0.000229       0.000000
      0.000000       0.000000       0.000000
      0.000000       0.000000       0.000000
      0.000050       0.000229       0.000000
      0.000260       0.000374       0.000000
      0.000000       0.000000       0.000000
      0.000000       0.000000       0.000000
     -0.000984       0.000740       0.000000
     -0.001334       0.001243       0.000000
     -0.001085       0.001514       0.000000
     -0.000616       0.000971       0.000000
     -0.000616       0.000971       0.000000
     -0.001085       0.001514       0.000000
     -0.000936       0.001562       0.000000
     -0.000443       0.000961       0.000000
     -0.001085       0.001514       0.000000
     -0.001676       0.002213       0.000000
     -0.001658       0.002333       0.000000