# vtk DataFile Version 2.0
time_10.vtk
ASCII
DATASET UNSTRUCTURED_GRID
POINTS   576 float
      0.458579       0.641421       0.000000
      0.497369       0.671659       0.000000
      0.438243       0.730363       0.000000
      0.382149       0.701184       0.000000
      0.497369       0.671659       0.000000
      0.545805       0.692517       0.000000
      0.506084       0.750000       0.000000
      0.438243       0.730363       0.000000
      0.382149       0.701184       0.000000
      0.438243       0.730363       0.000000
      0.380813       0.787383       0.000000
      0.305719       0.760948       0.000000
      0.438243       0.730363       0.000000
      0.506084       0.750000       0.000000
      0.468251       0.804752       0.000000
      0.380813       0.787383       0.000000
      0.545805       0.692517       0.000000
      0.600000       0.700000       0.000000
      0.581017       0.756950       0.000000
      0.506084       0.750000       0.000000
      0.600000       0.700000       0.000000
      0.654195       0.692517       0.000000
      0.656527       0.750000       0.000000
      0.581017       0.756950       0.000000
      0.506084       0.750000       0.000000
      0.581017       0.756950       0.000000
      0.563060       0.810819       0.000000
      0.468251       0.804752       0.000000
      0.581017       0.756950       0.000000
      0.656527       0.750000       0.000000
      0.658747       0.804752       0.000000
      0.563060       0.810819       0.000000
      0.654195       0.692517       0.000000
      0.702631       0.671659       0.000000
      0.725999       0.730363       0.000000
      0.656527       0.750000       0.000000
      0.702631       0.671659       0.000000
      0.741421       0.641421       0.000000
      0.784518       0.701184       0.000000
      0.725999       0.730363       0.000000
      0.656527       0.750000       0.000000
      0.725999       0.730363       0.000000
      0.748697       0.787383       0.000000
      0.658747       0.804752       0.000000
      0.725999       0.730363       0.000000
      0.784518       0.701184       0.000000
      0.827614       0.760948       0.000000
      0.748697       0.787383       0.000000
      0.305719       0.760948       0.000000
      0.380813       0.787383       0.000000
      0.325006       0.842791       0.000000
      0.229289       0.820711       0.000000
      0.380813       0.787383       0.000000
      0.468251       0.804752       0.000000
      0.432173       0.856962       0.000000
      0.325006       0.842791       0.000000
      0.229289       0.820711       0.000000
      0.325006       0.842791       0.000000
      0.270755       0.896655       0.000000
      0.152860       0.880474       0.000000
      0.325006       0.842791       0.000000
      0.432173       0.856962       0.000000
      0.397732       0.906804       0.000000
      0.270755       0.896655       0.000000
      0.468251       0.804752       0.000000
      0.563060       0.810819       0.000000
      0.546050       0.861851       0.000000
      0.432173       0.856962       0.000000
      0.563060       0.810819       0.000000
      0.658747       0.804752       0.000000
      0.660865       0.856962       0.000000
      0.546050       0.861851       0.000000
      0.432173       0.856962       0.000000
      0.546050       0.861851       0.000000
      0.529912       0.910264       0.000000
      0.397732       0.906804       0.000000
      0.546050       0.861851       0.000000
      0.660865       0.856962       0.000000
      0.662887       0.906804       0.000000
      0.529912       0.910264       0.000000
      0.658747       0.804752       0.000000
      0.748697       0.787383       0.000000
      0.770753       0.842791       0.000000
      0.660865       0.856962       0.000000
      0.748697       0.787383       0.000000
      0.827614       0.760948       0.000000
      0.870711       0.820711       0.000000
      0.770753       0.842791       0.000000
      0.660865       0.856962       0.000000
      0.770753       0.842791       0.000000
      0.792195       0.896655       0.000000
      0.662887       0.906804       0.000000
      0.770753       0.842791       0.000000
      0.870711       0.820711       0.000000
      0.913807       0.880474       0.000000
      0.792195       0.896655       0.000000
      0.152860       0.880474       0.000000
      0.270755       0.896655       0.000000
      0.217995       0.949038       0.000000
      0.076430       0.940237       0.000000
      0.270755       0.896655       0.000000
      0.397732       0.906804       0.000000
      0.364819       0.954435       0.000000
      0.217995       0.949038       0.000000
      0.076430       0.940237       0.000000
      0.217995       0.949038       0.000000
      0.166667       1.000000       0.000000
      0.000000       1.000000       0.000000
      0.217995       0.949038       0.000000
      0.364819       0.954435       0.000000
      0.333333       1.000000       0.000000
      0.166667       1.000000       0.000000
      0.397732       0.906804       0.000000
      0.529912       0.910264       0.000000
      0.514582       0.956255       0.000000
      0.364819       0.954435       0.000000
      0.529912       0.910264       0.000000
      0.662887       0.906804       0.000000
      0.664819       0.954435       0.000000
      0.514582       0.956255       0.000000
      0.364819       0.954435       0.000000
      0.514582       0.956255       0.000000
      0.500000       1.000000       0.000000
      0.333333       1.000000       0.000000
      0.514582       0.956255       0.000000
      0.664819       0.954435       0.000000
      0.666667       1.000000       0.000000
      0.500000       1.000000       0.000000
      0.662887       0.906804       0.000000
      0.792195       0.896655       0.000000
      0.813047       0.949038       0.000000
      0.664819       0.954435       0.000000
      0.792195       0.896655       0.000000
      0.913807       0.880474       0.000000
      0.956904       0.940237       0.000000
      0.813047       0.949038       0.000000
      0.664819       0.954435       0.000000
      0.813047       0.949038       0.000000
      0.833333       1.000000       0.000000
      0.666667       1.000000       0.000000
      0.813047       0.949038       0.000000
      0.956904       0.940237       0.000000
      1.000000       1.000000       0.000000
      0.833333       1.000000       0.000000
      0.458579       0.358579       0.000000
      0.428341       0.397369       0.000000
      0.351758       0.356122       0.000000
      0.382149       0.298816       0.000000
      0.428341       0.397369       0.000000
      0.407483       0.445805       0.000000
      0.331305       0.424779       0.000000
      0.351758       0.356122       0.000000
      0.382149       0.298816       0.000000
      0.351758       0.356122       0.000000
      0.277372       0.316058       0.000000
      0.305719       0.239052       0.000000
      0.351758       0.356122       0.000000
      0.331305       0.424779       0.000000
      0.258747       0.404752       0.000000
      0.277372       0.316058       0.000000
      0.407483       0.445805       0.000000
      0.400000       0.500000       0.000000
      0.324066       0.500000       0.000000
      0.331305       0.424779       0.000000
      0.400000       0.500000       0.000000
      0.407483       0.554195       0.000000
      0.331305       0.575221       0.000000
      0.324066       0.500000       0.000000
      0.331305       0.424779       0.000000
      0.324066       0.500000       0.000000
      0.252241       0.500000       0.000000
      0.258747       0.404752       0.000000
      0.324066       0.500000       0.000000
      0.331305       0.575221       0.000000
      0.258747       0.595248       0.000000
      0.252241       0.500000       0.000000
      0.407483       0.554195       0.000000
      0.428341       0.602631       0.000000
      0.351758       0.643878       0.000000
      0.331305       0.575221       0.000000
      0.428341       0.602631       0.000000
      0.458579       0.641421       0.000000
      0.382149       0.701184       0.000000
      0.351758       0.643878       0.000000
      0.331305       0.575221       0.000000
      0.351758       0.643878       0.000000
      0.277372       0.683942       0.000000
      0.258747       0.595248       0.000000
      0.351758       0.643878       0.000000
      0.382149       0.701184       0.000000
      0.305719       0.760948       0.000000
      0.277372       0.683942       0.000000
      0.305719       0.239052       0.000000
      0.277372       0.316058       0.000000
      0.205089       0.277126       0.000000
      0.229289       0.179289       0.000000
      0.277372       0.316058       0.000000
      0.258747       0.404752       0.000000
      0.189557       0.385654       0.000000
      0.205089       0.277126       0.000000
      0.229289       0.179289       0.000000
      0.205089       0.277126       0.000000
      0.134820       0.239280       0.000000
      0.152860       0.119526       0.000000
      0.205089       0.277126       0.000000
      0.189557       0.385654       0.000000
      0.123505       0.367423       0.000000
      0.134820       0.239280       0.000000
      0.258747       0.404752       0.000000
      0.252241       0.500000       0.000000
      0.184198       0.500000       0.000000
      0.189557       0.385654       0.000000
      0.252241       0.500000       0.000000
      0.258747       0.595248       0.000000
      0.189557       0.614346       0.000000
      0.184198       0.500000       0.000000
      0.189557       0.385654       0.000000
      0.184198       0.500000       0.000000
      0.119648       0.500000       0.000000
      0.123505       0.367423       0.000000
[...]
POINT_DATA   576
VECTORS U float 
      0.000379       0.004918       0.000000
      0.000195       0.005272       0.000000
      0.000032       0.005007       0.000000
      0.000250       0.004561       0.000000
      0.000195       0.005272       0.000000
      0.000002       0.005508       0.000000
     -0.000111       0.005405       0.000000
      0.000032       0.005007       0.000000
      0.000250       0.004561       0.000000
      0.000032       0.005007       0.000000
      0.000058       0.004983       0.000000
      0.000318       0.004610       0.000000
      0.000032       0.005007       0.000000
     -0.000111       0.005405       0.000000
     -0.000124       0.005363       0.000000
      0.000058       0.004983       0.000000
      0.000002       0.005508       0.000000
     -0.000199       0.005604       0.000000
     -0.000187       0.005628       0.000000
     -0.000111       0.005405       0.000000
     -0.000199       0.005604       0.000000
     -0.000418       0.005554       0.000000
     -0.000260       0.005590       0.000000
     -0.000187       0.005628       0.000000
     -0.000111       0.005405       0.000000
     -0.000187       0.005628       0.000000
     -0.000186       0.005626       0.000000
     -0.000124       0.005363       0.000000
     -0.000187       0.005628       0.000000
     -0.000260       0.005590       0.000000
     -0.000197       0.005616       0.000000
     -0.000186       0.005626       0.000000
     -0.000418       0.005554       0.000000
     -0.000665       0.005358       0.000000
     -0.000393       0.005293       0.000000
     -0.000260       0.005590       0.000000
     -0.000665       0.005358       0.000000
     -0.000934       0.005032       0.000000
     -0.000629       0.004838       0.000000
     -0.000393       0.005293       0.000000
     -0.000260       0.005590       0.000000
     -0.000393       0.005293       0.000000
     -0.000284       0.005316       0.000000
     -0.000197       0.005616       0.000000
     -0.000393       0.005293       0.000000
     -0.000629       0.004838       0.000000
     -0.000506       0.004869       0.000000
     -0.000284       0.005316       0.000000
      0.000318       0.004610       0.000000
      0.000058       0.004983       0.000000
      0.000120       0.005092       0.000000
      0.000415       0.004810       0.000000
      0.000058       0.004983       0.000000
     -0.000124       0.005363       0.000000
     -0.000104       0.005398       0.000000
      0.000120       0.005092       0.000000
      0.000415       0.004810       0.000000
      0.000120       0.005092       0.000000
      0.000196       0.005279       0.000000
      0.000530       0.005083       0.000000
      0.000120       0.005092       0.000000
     -0.000104       0.005398       0.000000
     -0.000073       0.005489       0.000000
      0.000196       0.005279       0.000000
     -0.000124       0.005363       0.000000
     -0.000186       0.005626       0.000000
     -0.000180       0.005641       0.000000
     -0.000104       0.005398       0.000000
     -0.000186       0.005626       0.000000
     -0.000197       0.005616       0.000000
     -0.000163       0.005650       0.000000
     -0.000180       0.005641       0.000000
     -0.000104       0.005398       0.000000
     -0.000180       0.005641       0.000000
     -0.000173       0.005676       0.000000
     -0.000073       0.005489       0.000000
     -0.000180       0.005641       0.000000
     -0.000163       0.005650       0.000000
     -0.000144       0.005694       0.000000
     -0.000173       0.005676       0.000000
     -0.000197       0.005616       0.000000
     -0.000284       0.005316       0.000000
     -0.000227       0.005387       0.000000
     -0.000163       0.005650       0.000000
     -0.000284       0.005316       0.000000
     -0.000506       0.004869       0.000000
     -0.000439       0.004986       0.000000
     -0.000227       0.005387       0.000000
     -0.000163       0.005650       0.000000
     -0.000227       0.005387       0.000000
     -0.000196       0.005491       0.000000
     -0.000144       0.005694       0.000000
     -0.000227       0.005387       0.000000
     -0.000439       0.004986       0.000000
     -0.000420       0.005174       0.000000
     -0.000196       0.005491       0.000000
      0.000530       0.005083       0.000000
      0.000196       0.005279       0.000000
      0.000290       0.005516       0.000000
      0.000678       0.005405       0.000000
      0.000196       0.005279       0.000000
     -0.000073       0.005489       0.000000
     -0.000034       0.005623       0.000000
      0.000290       0.005516       0.000000
      0.000678       0.005405       0.000000
      0.000290       0.005516       0.000000
      0.000409       0.005792       0.000000
      0.000881       0.005792       0.000000
      0.000290       0.005516       0.000000
     -0.000034       0.005623       0.000000
      0.000016       0.005792       0.000000
      0.000409       0.005792       0.000000
     -0.000073       0.005489       0.000000
     -0.000173       0.005676       0.000000
     -0.000168       0.005727       0.000000
     -0.000034       0.005623       0.000000
     -0.000173       0.005676       0.000000
     -0.000144       0.005694       0.000000
     -0.000133       0.005742       0.000000
     -0.000168       0.005727       0.000000
     -0.000034       0.005623       0.000000
     -0.000168       0.005727       0.000000
     -0.000165       0.005792       0.000000
      0.000016       0.005792       0.000000
     -0.000168       0.005727       0.000000
     -0.000133       0.005742       0.000000
     -0.000129       0.005792       0.000000
     -0.000165       0.005792       0.000000
     -0.000144       0.005694       0.000000
     -0.000196       0.005491       0.000000
     -0.000187       0.005626       0.000000
     -0.000133       0.005742       0.000000
     -0.000196       0.005491       0.000000
     -0.000420       0.005174       0.000000
     -0.000457       0.005443       0.000000
     -0.000187       0.005626       0.000000
     -0.000133       0.005742       0.000000
     -0.000187       0.005626       0.000000
     -0.000201       0.005792       0.000000
     -0.000129       0.005792       0.000000
     -0.000187       0.005626       0.000000
     -0.000457       0.005443       0.000000
     -0.000549       0.005792       0.000000
     -0.000201       0.005792       0.000000
      0.000330       0.000754       0.000000
      0.000502       0.001218       0.000000
      0.000490       0.001596       0.000000
      0.000200       0.001096       0.000000
      0.000502       0.001218       0.000000
      0.000636       0.001886       0.000000
      0.000812       0.002190       0.000000
      0.000490       0.001596       0.000000
      0.000200       0.001096       0.000000
      0.000490       0.001596       0.000000
      0.000559       0.001596       0.000000
      0.000240       0.001046       0.000000
      0.000490       0.001596       0.000000
      0.000812       0.002190       0.000000
      0.000916       0.002224       0.000000
      0.000559       0.001596       0.000000
      0.000636       0.001886       0.000000
      0.000678       0.002815       0.000000
      0.000981       0.002829       0.000000
      0.000812       0.002190       0.000000
      0.000678       0.002815       0.000000
      0.000662       0.003753       0.000000
      0.000845       0.003464       0.000000
      0.000981       0.002829       0.000000
      0.000812       0.002190       0.000000
      0.000981       0.002829       0.000000
      0.001101       0.002838       0.000000
      0.000916       0.002224       0.000000
      0.000981       0.002829       0.000000
      0.000845       0.003464       0.000000
      0.000952       0.003445       0.000000
      0.001101       0.002838       0.000000
      0.000662       0.003753       0.000000
      0.000547       0.004434       0.000000
      0.000542       0.004054       0.000000
      0.000845       0.003464       0.000000
      0.000547       0.004434       0.000000
      0.000379       0.004918       0.000000
      0.000250       0.004561       0.000000
      0.000542       0.004054       0.000000
      0.000845       0.003464       0.000000
      0.000542       0.004054       0.000000
      0.000622       0.004060       0.000000
      0.000952       0.003445       0.000000
      0.000542       0.004054       0.000000
      0.000250       0.004561       0.000000
      0.000318       0.004610       0.000000
      0.000622       0.004060       0.000000
      0.000240       0.001046       0.000000
      0.000559       0.001596       0.000000
      0.000638       0.001487       0.000000
      0.000282       0.000853       0.000000
      0.000559       0.001596       0.000000
      0.000916       0.002224       0.000000
      0.001020       0.002186       0.000000
      0.000638       0.001487       0.000000
      0.000282       0.000853       0.000000
      0.000638       0.001487       0.000000
      0.000710       0.001364       0.000000
      0.000291       0.000606       0.000000
      0.000638       0.001487       0.000000
      0.001020       0.002186       0.000000
      0.001126       0.002144       0.000000
      0.000710       0.001364       0.000000
      0.000916       0.002224       0.000000
      0.001101       0.002838       0.000000
      0.001211       0.002849       0.000000
      0.001020       0.002186       0.000000
      0.001101       0.002838       0.000000
      0.000952       0.003445       0.000000
      0.001059       0.003504       0.000000
      0.001211       0.002849       0.000000
      0.001020       0.002186       0.000000
      0.001211       0.002849       0.000000
      0.001329       0.002862       0.000000
      0.001126       0.002144       0.000000
      0.001211       0.002849       0.000000
      0.001059       0.003504       0.000000
      0.001169       0.003575       0.000000
      0.001329       0.002862       0.000000
      0.000952       0.003445       0.000000
      0.000622       0.004060       0.000000
      0.000720       0.004185       0.000000
      0.001059       0.003504       0.000000
      0.000622       0.004060       0.000000
      0.000318       0.004610       0.000000
      0.000415       0.004810       0.000000
      0.000720       0.004185       0.000000
      0.001059       0.003504       0.000000
      0.000720       0.004185       0.000000
      0.000818       0.004340       0.000000
      0.001169       0.003575       0.000000
      0.000720       0.004185       0.000000
      0.000415       0.004810       0.000000
      0.000530       0.005083       0.000000
      0.000818       0.004340       0.000000
      0.000291       0.000606       0.000000
      0.000710       0.001364       0.000000
      0.000773       0.001271       0.000000
      0.000235       0.000333       0.000000
      0.000710       0.001364       0.000000
      0.001126       0.002144       0.000000
      0.001227       0.002128       0.000000
      0.000773       0.001271       0.000000
      0.000235       0.000333       0.000000
      0.000773       0.001271       0.000000
      0.000828       0.001228       0.000000
      0.000000       0.000000       0.000000
      0.000773       0.001271       0.000000
      0.001227       0.002128       0.000000
      0.001317       0.002161       0.000000
      0.000828       0.001228       0.000000
      0.001126       0.002144       0.000000
      0.001329       0.002862       0.000000
      0.001450       0.002875       0.000000
      0.001227       0.002128       0.000000
      0.001329       0.002862       0.000000
      0.001169       0.003575       0.000000
      0.001276       0.003625       0.000000
      0.001450       0.002875       0.000000
      0.001227       0.002128       0.000000
      0.001450       0.002875       0.000000
      0.001559       0.002885       0.000000
      0.001317       0.002161       0.000000
      0.001450       0.002875       0.000000
      0.001276       0.003625       0.000000
      0.001377       0.003624       0.000000
      0.001559       0.002885       0.000000
      0.001169       0.003575       0.000000
      0.000818       0.004340       0.000000
      0.000919       0.004488       0.000000
      0.001276       0.003625       0.000000
      0.000818       0.004340       0.000000
      0.000530       0.005083       0.000000
      0.000678       0.005405       0.000000
      0.000919       0.004488       0.000000
      0.001276       0.003625       0.000000
      0.000919       0.004488       0.000000
      0.001032       0.004618       0.000000
      0.001377       0.003624       0.000000
      0.000919       0.004488       0.000000
      0.000678       0.005405       0.000000
      0.000881       0.005792       0.000000
      0.001032       0.004618       0.000000
     -0.000877       0.000706       0.000000
     -0.000604       0.000381       0.000000
     -0.000323       0.000451       0.000000
     -0.000557       0.000908       0.000000
     -0.000604       0.000381       0.000000
     -0.000366       0.000188       0.000000
     -0.000203       0.000160       0.000000
     -0.000323       0.000451       0.000000
     -0.000557       0.000908       0.000000
     -0.000323       0.000451       0.000000
     -0.000190       0.000435       0.000000
     -0.000410       0.000886       0.000000
     -0.000323       0.000451       0.000000
     -0.000203       0.000160       0.000000
     -0.000122       0.000144       0.000000
     -0.000190       0.000435       0.000000
     -0.000366       0.000188       0.000000
     -0.000174       0.000134       0.000000
     -0.000155       0.000116       0.000000
     -0.000203       0.000160       0.000000
     -0.000174       0.000134       0.000000
     -0.000008       0.000215       0.000000
     -0.000110       0.000310       0.000000
     -0.000155       0.000116       0.000000
     -0.000203       0.000160       0.000000
     -0.000155       0.000116       0.000000
     -0.000143       0.000124       0.000000
     -0.000122       0.000144       0.000000
     -0.000155       0.000116       0.000000
     -0.000110       0.000310       0.000000
     -0.000125       0.000351       0.000000
     -0.000143       0.000124       0.000000
     -0.000008       0.000215       0.000000
      0.000158       0.000425       0.000000
      0.000002       0.000673       0.000000
     -0.000110       0.000310       0.000000
      0.000158       0.000425       0.000000
      0.000330       0.000754       0.000000
      0.000200       0.001096       0.000000
      0.000002       0.000673       0.000000
     -0.000110       0.000310       0.000000
      0.000002       0.000673       0.000000
      0.000009       0.000693       0.000000
     -0.000125       0.000351       0.000000
      0.000002       0.000673       0.000000
      0.000200       0.001096       0.000000
      0.000240       0.001046       0.000000
      0.000009       0.000693       0.000000
     -0.000410       0.000886       0.000000
     -0.000190       0.000435       0.000000
     -0.000101       0.000370       0.000000
     -0.000309       0.000775       0.000000
     -0.000190       0.000435       0.000000
     -0.000122       0.000144       0.000000
     -0.000067       0.000120       0.000000
     -0.000101       0.000370       0.000000
     -0.000309       0.000775       0.000000
     -0.000101       0.000370       0.000000
     -0.000038       0.000270       0.000000
     -0.000243       0.000591       0.000000
     -0.000101       0.000370       0.000000
     -0.000067       0.000120       0.000000
     -0.000028       0.000089       0.000000
     -0.000038       0.000270       0.000000
     -0.000122       0.000144       0.000000
     -0.000143       0.000124       0.000000
     -0.000124       0.000119       0.000000
     -0.000067       0.000120       0.000000
     -0.000143       0.000124       0.000000
     -0.000125       0.000351       0.000000
     -0.000111       0.000321       0.000000
     -0.000124       0.000119       0.000000
     -0.000067       0.000120       0.000000
     -0.000124       0.000119       0.000000
     -0.000098       0.000096       0.000000
     -0.000028       0.000089       0.000000
     -0.000124       0.000119       0.000000
     -0.000111       0.000321       0.000000
     -0.000084       0.000240       0.000000
     -0.000098       0.000096       0.000000
     -0.000125       0.000351       0.000000
      0.000009       0.000693       0.000000
      0.000037       0.000585       0.000000
     -0.000111       0.000321       0.000000
      0.000009       0.000693       0.000000
      0.000240       0.001046       0.000000
      0.000282       0.000853       0.000000
      0.000037       0.000585       0.000000
     -0.000111       0.000321       0.000000
      0.000037       0.000585       0.000000
      0.000055       0.000411       0.000000
     -0.000084       0.000240       0.000000
      0.000037       0.000585       0.000000
      0.000282       0.000853       0.000000
      0.000291       0.000606       0.000000
      0.000055       0.000411       0.000000
     -0.000243       0.000591       0.000000
     -0.000038       0.000270       0.000000
     -0.000002       0.000143       0.000000
     -0.000187       0.000332       0.000000
     -0.000038       0.000270       0.000000
     -0.000028       0.000089       0.000000
     -0.000004       0.000049       0.000000
     -0.000002       0.000143       0.000000
     -0.000187       0.000332       0.000000
     -0.000002       0.000143       0.000000
      0.000000       0.000000       0.000000
      0.000000       0.000000       0.000000
     -0.000002       0.000143       0.000000
     -0.000004       0.000049       0.000000
      0.000000       0.000000       0.000000
      0.000000       0.000000       0.000000
     -0.000028       0.000089       0.000000
     -0.000098       0.000096       0.000000
     -0.000060       0.000055       0.000000
     -0.000004       0.000049       0.000000
     -0.000098       0.000096       0.000000
     -0.000084       0.000240       0.000000
     -0.000047       0.000127       0.000000
     -0.000060       0.000055       0.000000
     -0.000004       0.000049       0.000000
     -0.000060       0.000055       0.000000
      0.000000       0.000000       0.000000
      0.000000       0.000000       0.000000
     -0.000060       0.000055       0.000000
     -0.000047       0.000127       0.000000
      0.000000       0.000000       0.000000
      0.000000       0.000000       0.000000
     -0.000084       0.000240       0.000000
      0.000055       0.000411       0.000000
      0.000048       0.000208       0.000000
     -0.000047       0.000127       0.000000
      0.000055       0.000411       0.000000
      0.000291       0.000606       0.000000
      0.000235       0.000333       0.000000
      0.000048       0.000208       0.000000
     -0.000047       0.000127       0.000000
      0.000048       0.000208       0.000000
      0.000000       0.000000       0.000000
      0.000000       0.000000       0.000000
      0.000048       0.000208       0.000000
      0.000235       0.000333       0.000000
      0.000000       0.000000       0.000000
      0.000000       0.000000       0.000000
     -0.000877       0.000706       0.000000
     -0.001176       0.001180       0.000000
     -0.000971       0.001407       0.000000
     -0.000557       0.000908       0.000000
     -0.001176       0.001180       0.000000
     -0.001438       0.001870       0.000000
     -0.001476       0.002045       0.000000
     -0.000971       0.001407       0.000000
     -0.000557       0.000908       0.000000
     -0.000971       0.001407       0.000000
     -0.000847       0.001431       0.000000