# vtk DataFile Version 2.0
time_10.vtk
ASCII
DATASET UNSTRUCTURED_GRID
POINTS   576 float
      0.458579       0.641421       0.000000
      0.497369       0.671659       0.000000
      0.438243       0.730363       0.000000
      0.382149       0.701184       0.000000
      0.497369       0.671659       0.000000
      0.545805       0.692517       0.000000
      0.506084       0.750000       0.000000
      0.438243       0.730363       0.000000
      0.382149       0.701184       0.000000
      0.438243       0.730363       0.000000
      0.380813       0.787383       0.000000
      0.305719       0.760948       0.000000
      0.438243       0.730363       0.000000
      0.506084       0.750000       0.000000
      0.468251       0.804752       0.000000
      0.380813       0.787383       0.000000
      0.545805       0.692517       0.000000
      0.600000       0.700000       0.000000
      0.581017       0.756950       0.000000
      0.506084       0.750000       0.000000
      0.600000       0.700000       0.000000
      0.654195       0.692517       0.000000
      0.656527       0.750000       0.000000
      0.581017       0.756950       0.000000
      0.506084       0.750000       0.000000
      0.581017       0.756950       0.000000
      0.563060       0.810819       0.000000
      0.468251       0.804752       0.000000
      0.581017       0.756950       0.000000
      0.656527       0.750000       0.000000
      0.658747       0.804752       0.000000
      0.563060       0.810819       0.000000
      0.654195       0.692517       0.000000
      0.702631       0.671659       0.000000
      0.725999       0.730363       0.000000
      0.656527       0.750000       0.000000
      0.702631       0.671659       0.000000
      0.741421       0.641421       0.000000
      0.784518       0.701184       0.000000
      0.725999       0.730363       0.000000
      0.656527       0.750000       0.000000
      0.725999       0.730363       0.000000
      0.748697       0.787383       0.000000
      0.658747       0.804752       0.000000
      0.725999       0.730363       0.000000
      0.784518       0.701184       0.000000
      0.827614       0.760948       0.000000
      0.748697       0.787383       0.000000
      0.305719       0.760948       0.000000
      0.380813       0.787383       0.000000
      0.325006       0.842791       0.000000
      0.229289       0.820711       0.000000
      0.380813       0.787383       0.000000
      0.468251       0.804752       0.000000
      0.432173       0.856962       0.000000
      0.325006       0.842791       0.000000
      0.229289       0.820711       0.000000
      0.325006       0.842791       0.000000
      0.270755       0.896655       0.000000
      0.152860       0.880474       0.000000
      0.325006       0.842791       0.000000
      0.432173       0.856962       0.000000
      0.397732       0.906804       0.000000
      0.270755       0.896655       0.000000
      0.468251       0.804752       0.000000
      0.563060       0.810819       0.000000
      0.546050       0.861851       0.000000
      0.432173       0.856962       0.000000
      0.563060       0.810819       0.000000
      0.658747       0.804752       0.000000
      0.660865       0.856962       0.000000
      0.546050       0.861851       0.000000
      0.432173       0.856962       0.000000
      0.546050       0.861851       0.000000
      0.529912       0.910264       0.000000
      0.397732       0.906804       0.000000
      0.546050       0.861851       0.000000
      0.660865       0.856962       0.000000
      0.662887       0.906804       0.000000
      0.529912       0.910264       0.000000
      0.658747       0.804752       0.000000
      0.748697       0.787383       0.000000
      0.770753       0.842791       0.000000
      0.660865       0.856962       0.000000
      0.748697       0.787383       0.000000
      0.827614       0.760948       0.000000
      0.870711       0.820711       0.000000
      0.770753       0.842791       0.000000
      0.660865       0.856962       0.000000
      0.770753       0.842791       0.000000
      0.792195       0.896655       0.000000
      0.662887       0.906804       0.000000
      0.770753       0.842791       0.000000
      0.870711       0.820711       0.000000
      0.913807       0.880474       0.000000
      0.792195       0.896655       0.000000
      0.152860       0.880474       0.000000
      0.270755       0.896655       0.000000
      0.217995       0.949038       0.000000
      0.076430       0.940237       0.000000
      0.270755       0.896655       0.000000
      0.397732       0.906804       0.000000
      0.364819       0.954435       0.000000
      0.217995       0.949038       0.000000
      0.076430       0.940237       0.000000
      0.217995       0.949038       0.000000
      0.166667       1.000000       0.000000
      0.000000       1.000000       0.000000
      0.217995       0.949038       0.000000
      0.364819       0.954435       0.000000
      0.333333       1.000000       0.000000
      0.166667       1.000000       0.000000
      0.397732       0.906804       0.000000
      0.529912       0.910264       0.000000
      0.514582       0.956255       0.000000
      0.364819       0.954435       0.000000
      0.529912       0.910264       0.000000
      0.662887       0.906804       0.000000
      0.664819       0.954435       0.000000
      0.514582       0.956255       0.000000
      0.364819       0.954435       0.000000
      0.514582       0.956255       0.000000
      0.500000       1.000000       0.000000
      0.333333       1.000000       0.000000
      0.514582       0.956255       0.000000
      0.664819       0.954435       0.000000
      0.666667       1.000000       0.000000
      0.500000       1.000000       0.000000
      0.662887       0.906804       0.000000
      0.792195       0.896655       0.000000
      0.813047       0.949038       0.000000
      0.664819       0.954435       0.000000
      0.792195       0.896655       0.000000
      0.913807       0.880474       0.000000
      0.956904       0.940237       0.000000
      0.813047       0.949038       0.000000
      0.664819       0.954435       0.000000
      0.813047       0.949038       0.000000
      0.833333       1.000000       0.000000
      0.666667       1.000000       0.000000
      0.813047       0.949038       0.000000
      0.956904       0.940237       0.000000
      1.000000       1.000000       0.000000
      0.833333       1.000000       0.000000
      0.458579       0.358579       0.000000
      0.428341       0.397369       0.000000
      0.351758       0.356122       0.000000
      0.382149       0.298816       0.000000
      0.428341       0.397369       0.000000
      0.407483       0.445805       0.000000
      0.331305       0.424779       0.000000
      0.351758       0.356122       0.000000
      0.382149       0.298816       0.000000
      0.351758       0.356122       0.000000
      0.277372       0.316058       0.000000
      0.305719       0.239052       0.000000
      0.351758       0.356122       0.000000
      0.331305       0.424779       0.000000
      0.258747       0.404752       0.000000
      0.277372       0.316058       0.000000
      0.407483       0.445805       0.000000
      0.400000       0.500000       0.000000
      0.324066       0.500000       0.000000
      0.331305       0.424779       0.000000
      0.400000       0.500000       0.000000
      0.407483       0.554195       0.000000
      0.331305       0.575221       0.000000
      0.324066       0.500000       0.000000
      0.331305       0.424779       0.000000
      0.324066       0.500000       0.000000
      0.252241       0.500000       0.000000
      0.258747       0.404752       0.000000
      0.324066       0.500000       0.000000
      0.331305       0.575221       0.000000
      0.258747       0.595248       0.000000
      0.252241       0.500000       0.000000
      0.407483       0.554195       0.000000
      0.428341       0.602631       0.000000
      0.351758       0.643878       0.000000
      0.331305       0.575221       0.000000
      0.428341       0.602631       0.000000
      0.458579       0.641421       0.000000
      0.382149       0.701184       0.000000
      0.351758       0.643878       0.000000
      0.331305       0.575221       0.000000
      0.351758       0.643878       0.000000
      0.277372       0.683942       0.000000
      0.258747       0.595248       0.000000
      0.351758       0.643878       0.000000
      0.382149       0.701184       0.000000
      0.305719       0.760948       0.000000
      0.277372       0.683942       0.000000
      0.305719       0.239052       0.000000
      0.277372       0.316058       0.000000
      0.205089       0.277126       0.000000
      0.229289       0.179289       0.000000
      0.277372       0.316058       0.000000
      0.258747       0.404752       0.000000
      0.189557       0.385654       0.000000
      0.205089       0.277126       0.000000
      0.229289       0.179289       0.000000
      0.205089       0.277126       0.000000
      0.134820       0.239280       0.000000
      0.152860       0.119526       0.000000
      0.205089       0.277126       0.000000
      0.189557       0.385654       0.000000
      0.123505       0.367423       0.000000
      0.134820       0.239280       0.000000
      0.258747       0.404752       0.000000
      0.252241       0.500000       0.000000
      0.184198       0.500000       0.000000
      0.189557       0.385654       0.000000
      0.252241       0.500000       0.000000
      0.258747       0.595248       0.000000
      0.189557       0.614346       0.000000
      0.184198       0.500000       0.000000
      0.189557       0.385654       0.000000
      0.184198       0.500000       0.000000
      0.119648       0.500000       0.000000
      0.123505       0.367423       0.000000
[...]
POINT_DATA   576
VECTORS U float 
      0.000358       0.004649       0.000000
      0.000185       0.004988       0.000000
      0.000030       0.004736       0.000000
      0.000238       0.004311       0.000000
      0.000185       0.004988       0.000000
      0.000001       0.005215       0.000000
     -0.000107       0.005117       0.000000
      0.000030       0.004736       0.000000
      0.000238       0.004311       0.000000
      0.000030       0.004736       0.000000
      0.000056       0.004715       0.000000
      0.000304       0.004362       0.000000
      0.000030       0.004736       0.000000
     -0.000107       0.005117       0.000000
     -0.000118       0.005078       0.000000
      0.000056       0.004715       0.000000
      0.000001       0.005215       0.000000
     -0.000190       0.005308       0.000000
     -0.000179       0.005331       0.000000
     -0.000107       0.005117       0.000000
     -0.000190       0.005308       0.000000
     -0.000399       0.005259       0.000000
     -0.000248       0.005294       0.000000
     -0.000179       0.005331       0.000000
     -0.000107       0.005117       0.000000
     -0.000179       0.005331       0.000000
     -0.000178       0.005329       0.000000
     -0.000118       0.005078       0.000000
     -0.000179       0.005331       0.000000
     -0.000248       0.005294       0.000000
     -0.000189       0.005319       0.000000
     -0.000178       0.005329       0.000000
     -0.000399       0.005259       0.000000
     -0.000634       0.005070       0.000000
     -0.000376       0.005009       0.000000
     -0.000248       0.005294       0.000000
     -0.000634       0.005070       0.000000
     -0.000888       0.004756       0.000000
     -0.000601       0.004574       0.000000
     -0.000376       0.005009       0.000000
     -0.000248       0.005294       0.000000
     -0.000376       0.005009       0.000000
     -0.000273       0.005033       0.000000
     -0.000189       0.005319       0.000000
     -0.000376       0.005009       0.000000
     -0.000601       0.004574       0.000000
     -0.000486       0.004606       0.000000
     -0.000273       0.005033       0.000000
      0.000304       0.004362       0.000000
      0.000056       0.004715       0.000000
      0.000117       0.004822       0.000000
      0.000398       0.004557       0.000000
      0.000056       0.004715       0.000000
     -0.000118       0.005078       0.000000
     -0.000097       0.005112       0.000000
      0.000117       0.004822       0.000000
      0.000398       0.004557       0.000000
      0.000117       0.004822       0.000000
      0.000191       0.005002       0.000000
      0.000508       0.004819       0.000000
      0.000117       0.004822       0.000000
     -0.000097       0.005112       0.000000
     -0.000067       0.005201       0.000000
      0.000191       0.005002       0.000000
     -0.000118       0.005078       0.000000
     -0.000178       0.005329       0.000000
     -0.000172       0.005345       0.000000
     -0.000097       0.005112       0.000000
     -0.000178       0.005329       0.000000
     -0.000189       0.005319       0.000000
     -0.000157       0.005353       0.000000
     -0.000172       0.005345       0.000000
     -0.000097       0.005112       0.000000
     -0.000172       0.005345       0.000000
     -0.000165       0.005379       0.000000
     -0.000067       0.005201       0.000000
     -0.000172       0.005345       0.000000
     -0.000157       0.005353       0.000000
     -0.000139       0.005396       0.000000
     -0.000165       0.005379       0.000000
     -0.000189       0.005319       0.000000
     -0.000273       0.005033       0.000000
     -0.000219       0.005101       0.000000
     -0.000157       0.005353       0.000000
     -0.000273       0.005033       0.000000
     -0.000486       0.004606       0.000000
     -0.000423       0.004721       0.000000
     -0.000219       0.005101       0.000000
     -0.000157       0.005353       0.000000
     -0.000219       0.005101       0.000000
     -0.000191       0.005202       0.000000
     -0.000139       0.005396       0.000000
     -0.000219       0.005101       0.000000
     -0.000423       0.004721       0.000000
     -0.000406       0.004902       0.000000
     -0.000191       0.005202       0.000000
      0.000508       0.004819       0.000000
      0.000191       0.005002       0.000000
      0.000281       0.005229       0.000000
      0.000650       0.005126       0.000000
      0.000191       0.005002       0.000000
     -0.000067       0.005201       0.000000
     -0.000029       0.005330       0.000000
      0.000281       0.005229       0.000000
      0.000650       0.005126       0.000000
      0.000281       0.005229       0.000000
      0.000395       0.005492       0.000000
      0.000842       0.005492       0.000000
      0.000281       0.005229       0.000000
     -0.000029       0.005330       0.000000
      0.000019       0.005492       0.000000
      0.000395       0.005492       0.000000
     -0.000067       0.005201       0.000000
     -0.000165       0.005379       0.000000
     -0.000160       0.005429       0.000000
     -0.000029       0.005330       0.000000
     -0.000165       0.005379       0.000000
     -0.000139       0.005396       0.000000
     -0.000129       0.005443       0.000000
     -0.000160       0.005429       0.000000
     -0.000029       0.005330       0.000000
     -0.000160       0.005429       0.000000
     -0.000156       0.005492       0.000000
      0.000019       0.005492       0.000000
     -0.000160       0.005429       0.000000
     -0.000129       0.005443       0.000000
     -0.000125       0.005492       0.000000
     -0.000156       0.005492       0.000000
     -0.000139       0.005396       0.000000
     -0.000191       0.005202       0.000000
     -0.000183       0.005332       0.000000
     -0.000129       0.005443       0.000000
     -0.000191       0.005202       0.000000
     -0.000406       0.004902       0.000000
     -0.000441       0.005159       0.000000
     -0.000183       0.005332       0.000000
     -0.000129       0.005443       0.000000
     -0.000183       0.005332       0.000000
     -0.000196       0.005492       0.000000
     -0.000125       0.005492       0.000000
     -0.000183       0.005332       0.000000
     -0.000441       0.005159       0.000000
     -0.000529       0.005492       0.000000
     -0.000196       0.005492       0.000000
      0.000310       0.000728       0.000000
      0.000472       0.001174       0.000000
      0.000464       0.001528       0.000000
      0.000189       0.001052       0.000000
      0.000472       0.001174       0.000000
      0.000598       0.001811       0.000000
      0.000765       0.002087       0.000000
      0.000464       0.001528       0.000000
      0.000189       0.001052       0.000000
      0.000464       0.001528       0.000000
      0.000530       0.001521       0.000000
      0.000228       0.001000       0.000000
      0.000464       0.001528       0.000000
      0.000765       0.002087       0.000000
      0.000863       0.002112       0.000000
      0.000530       0.001521       0.000000
      0.000598       0.001811       0.000000
      0.000642       0.002669       0.000000
      0.000920       0.002682       0.000000
      0.000765       0.002087       0.000000
      0.000642       0.002669       0.000000
      0.000623       0.003535       0.000000
      0.000796       0.003274       0.000000
      0.000920       0.002682       0.000000
      0.000765       0.002087       0.000000
      0.000920       0.002682       0.000000
      0.001034       0.002691       0.000000
      0.000863       0.002112       0.000000
      0.000920       0.002682       0.000000
      0.000796       0.003274       0.000000
      0.000897       0.003263       0.000000
      0.001034       0.002691       0.000000
      0.000623       0.003535       0.000000
      0.000515       0.004184       0.000000
      0.000513       0.003829       0.000000
      0.000796       0.003274       0.000000
      0.000515       0.004184       0.000000
      0.000358       0.004649       0.000000
      0.000238       0.004311       0.000000
      0.000513       0.003829       0.000000
      0.000796       0.003274       0.000000
      0.000513       0.003829       0.000000
      0.000590       0.003843       0.000000
      0.000897       0.003263       0.000000
      0.000513       0.003829       0.000000
      0.000238       0.004311       0.000000
      0.000304       0.004362       0.000000
      0.000590       0.003843       0.000000
      0.000228       0.001000       0.000000
      0.000530       0.001521       0.000000
      0.000604       0.001414       0.000000
      0.000269       0.000814       0.000000
      0.000530       0.001521       0.000000
      0.000863       0.002112       0.000000
      0.000962       0.002074       0.000000
      0.000604       0.001414       0.000000
      0.000269       0.000814       0.000000
      0.000604       0.001414       0.000000
      0.000673       0.001294       0.000000
      0.000278       0.000577       0.000000
      0.000604       0.001414       0.000000
      0.000962       0.002074       0.000000
      0.001063       0.002032       0.000000
      0.000673       0.001294       0.000000
      0.000863       0.002112       0.000000
      0.001034       0.002691       0.000000
      0.001139       0.002702       0.000000
      0.000962       0.002074       0.000000
      0.001034       0.002691       0.000000
      0.000897       0.003263       0.000000
      0.000999       0.003322       0.000000
      0.001139       0.002702       0.000000
      0.000962       0.002074       0.000000
      0.001139       0.002702       0.000000
      0.001252       0.002714       0.000000
      0.001063       0.002032       0.000000
      0.001139       0.002702       0.000000
      0.000999       0.003322       0.000000
      0.001104       0.003392       0.000000
      0.001252       0.002714       0.000000
      0.000897       0.003263       0.000000
      0.000590       0.003843       0.000000
      0.000683       0.003965       0.000000
      0.000999       0.003322       0.000000
      0.000590       0.003843       0.000000
      0.000304       0.004362       0.000000
      0.000398       0.004557       0.000000
      0.000683       0.003965       0.000000
      0.000999       0.003322       0.000000
      0.000683       0.003965       0.000000
      0.000778       0.004115       0.000000
      0.001104       0.003392       0.000000
      0.000683       0.003965       0.000000
      0.000398       0.004557       0.000000
      0.000508       0.004819       0.000000
      0.000778       0.004115       0.000000
      0.000278       0.000577       0.000000
      0.000673       0.001294       0.000000
      0.000733       0.001204       0.000000
      0.000225       0.000316       0.000000
      0.000673       0.001294       0.000000
      0.001063       0.002032       0.000000
      0.001159       0.002016       0.000000
      0.000733       0.001204       0.000000
      0.000225       0.000316       0.000000
      0.000733       0.001204       0.000000
      0.000785       0.001162       0.000000
      0.000000       0.000000       0.000000
      0.000733       0.001204       0.000000
      0.001159       0.002016       0.000000
      0.001244       0.002046       0.000000
      0.000785       0.001162       0.000000
      0.001063       0.002032       0.000000
      0.001252       0.002714       0.000000
      0.001367       0.002727       0.000000
      0.001159       0.002016       0.000000
      0.001252       0.002714       0.000000
      0.001104       0.003392       0.000000
      0.001206       0.003441       0.000000
      0.001367       0.002727       0.000000
      0.001159       0.002016       0.000000
      0.001367       0.002727       0.000000
      0.001472       0.002737       0.000000
      0.001244       0.002046       0.000000
      0.001367       0.002727       0.000000
      0.001206       0.003441       0.000000
      0.001303       0.003443       0.000000
      0.001472       0.002737       0.000000
      0.001104       0.003392       0.000000
      0.000778       0.004115       0.000000
      0.000874       0.004259       0.000000
      0.001206       0.003441       0.000000
      0.000778       0.004115       0.000000
      0.000508       0.004819       0.000000
      0.000650       0.005126       0.000000
      0.000874       0.004259       0.000000
      0.001206       0.003441       0.000000
      0.000874       0.004259       0.000000
      0.000983       0.004384       0.000000
      0.001303       0.003443       0.000000
      0.000874       0.004259       0.000000
      0.000650       0.005126       0.000000
      0.000842       0.005492       0.000000
      0.000983       0.004384       0.000000
     -0.000834       0.000683       0.000000
     -0.000575       0.000370       0.000000
     -0.000308       0.000436       0.000000
     -0.000532       0.000874       0.000000
     -0.000575       0.000370       0.000000
     -0.000350       0.000183       0.000000
     -0.000194       0.000157       0.000000
     -0.000308       0.000436       0.000000
     -0.000532       0.000874       0.000000
     -0.000308       0.000436       0.000000
     -0.000182       0.000420       0.000000
     -0.000393       0.000850       0.000000
     -0.000308       0.000436       0.000000
     -0.000194       0.000157       0.000000
     -0.000117       0.000141       0.000000
     -0.000182       0.000420       0.000000
     -0.000350       0.000183       0.000000
     -0.000167       0.000131       0.000000
     -0.000149       0.000114       0.000000
     -0.000194       0.000157       0.000000
     -0.000167       0.000131       0.000000
     -0.000009       0.000209       0.000000
     -0.000106       0.000300       0.000000
     -0.000149       0.000114       0.000000
     -0.000194       0.000157       0.000000
     -0.000149       0.000114       0.000000
     -0.000137       0.000122       0.000000
     -0.000117       0.000141       0.000000
     -0.000149       0.000114       0.000000
     -0.000106       0.000300       0.000000
     -0.000120       0.000339       0.000000
     -0.000137       0.000122       0.000000
     -0.000009       0.000209       0.000000
      0.000149       0.000411       0.000000
      0.000001       0.000648       0.000000
     -0.000106       0.000300       0.000000
      0.000149       0.000411       0.000000
      0.000310       0.000728       0.000000
      0.000189       0.001052       0.000000
      0.000001       0.000648       0.000000
     -0.000106       0.000300       0.000000
      0.000001       0.000648       0.000000
      0.000008       0.000665       0.000000
     -0.000120       0.000339       0.000000
      0.000001       0.000648       0.000000
      0.000189       0.001052       0.000000
      0.000228       0.001000       0.000000
      0.000008       0.000665       0.000000
     -0.000393       0.000850       0.000000
     -0.000182       0.000420       0.000000
     -0.000098       0.000356       0.000000
     -0.000298       0.000741       0.000000
     -0.000182       0.000420       0.000000
     -0.000117       0.000141       0.000000
     -0.000065       0.000117       0.000000
     -0.000098       0.000356       0.000000
     -0.000298       0.000741       0.000000
     -0.000098       0.000356       0.000000
     -0.000038       0.000259       0.000000
     -0.000234       0.000565       0.000000
     -0.000098       0.000356       0.000000
     -0.000065       0.000117       0.000000
     -0.000027       0.000086       0.000000
     -0.000038       0.000259       0.000000
     -0.000117       0.000141       0.000000
     -0.000137       0.000122       0.000000
     -0.000119       0.000116       0.000000
     -0.000065       0.000117       0.000000
     -0.000137       0.000122       0.000000
     -0.000120       0.000339       0.000000
     -0.000106       0.000309       0.000000
     -0.000119       0.000116       0.000000
     -0.000065       0.000117       0.000000
     -0.000119       0.000116       0.000000
     -0.000094       0.000093       0.000000
     -0.000027       0.000086       0.000000
     -0.000119       0.000116       0.000000
     -0.000106       0.000309       0.000000
     -0.000080       0.000231       0.000000
     -0.000094       0.000093       0.000000
     -0.000120       0.000339       0.000000
      0.000008       0.000665       0.000000
      0.000036       0.000561       0.000000
     -0.000106       0.000309       0.000000
      0.000008       0.000665       0.000000
      0.000228       0.001000       0.000000
      0.000269       0.000814       0.000000
      0.000036       0.000561       0.000000
     -0.000106       0.000309       0.000000
      0.000036       0.000561       0.000000
      0.000053       0.000394       0.000000
     -0.000080       0.000231       0.000000
      0.000036       0.000561       0.000000
      0.000269       0.000814       0.000000
      0.000278       0.000577       0.000000
      0.000053       0.000394       0.000000
     -0.000234       0.000565       0.000000
     -0.000038       0.000259       0.000000
     -0.000002       0.000137       0.000000
     -0.000180       0.000318       0.000000
     -0.000038       0.000259       0.000000
     -0.000027       0.000086       0.000000
     -0.000004       0.000048       0.000000
     -0.000002       0.000137       0.000000
     -0.000180       0.000318       0.000000
     -0.000002       0.000137       0.000000
      0.000000       0.000000       0.000000
      0.000000       0.000000       0.000000
     -0.000002       0.000137       0.000000
     -0.000004       0.000048       0.000000
      0.000000       0.000000       0.000000
      0.000000       0.000000       0.000000
     -0.000027       0.000086       0.000000
     -0.000094       0.000093       0.000000
     -0.000057       0.000054       0.000000
     -0.000004       0.000048       0.000000
     -0.000094       0.000093       0.000000
     -0.000080       0.000231       0.000000
     -0.000045       0.000122       0.000000
     -0.000057       0.000054       0.000000
     -0.000004       0.000048       0.000000
     -0.000057       0.000054       0.000000
      0.000000       0.000000       0.000000
      0.000000       0.000000       0.000000
     -0.000057       0.000054       0.000000
     -0.000045       0.000122       0.000000
      0.000000       0.000000       0.000000
      0.000000       0.000000       0.000000
     -0.000080       0.000231       0.000000
      0.000053       0.000394       0.000000
      0.000046       0.000199       0.000000
     -0.000045       0.000122       0.000000
      0.000053       0.000394       0.000000
      0.000278       0.000577       0.000000
      0.000225       0.000316       0.000000
      0.000046       0.000199       0.000000
     -0.000045       0.000122       0.000000
      0.000046       0.000199       0.000000
      0.000000       0.000000       0.000000
      0.000000       0.000000       0.000000
      0.000046       0.000199       0.000000
      0.000225       0.000316       0.000000
      0.000000       0.000000       0.000000
      0.000000       0.000000       0.000000
     -0.000834       0.000683       0.000000
     -0.001115       0.001139       0.000000
     -0.000924       0.001351       0.000000
     -0.000532       0.000874       0.000000
     -0.001115       0.001139       0.000000
     -0.001360       0.001799       0.000000
     -0.001398       0.001958       0.000000
     -0.000924       0.001351       0.000000
     -0.000532       0.000874       0.000000
     -0.000924       0.001351       0.000000
     -0.000808       0.001370       0.000000