# vtk DataFile Version 2.0
time_10.vtk
ASCII
DATASET UNSTRUCTURED_GRID
POINTS   576 float
      0.458579       0.641421       0.000000
      0.497369       0.671659       0.000000
      0.438243       0.730363       0.000000
      0.382149       0.701184       0.000000
      0.497369       0.671659       0.000000
      0.545805       0.692517       0.000000
      0.506084       0.750000       0.000000
      0.438243       0.730363       0.000000
      0.382149       0.701184       0.000000
      0.438243       0.730363       0.000000
      0.380813       0.787383       0.000000
      0.305719       0.760948       0.000000
      0.438243       0.730363       0.000000
      0.506084       0.750000       0.000000
      0.468251       0.804752       0.000000
      0.380813       0.787383       0.000000
      0.545805       0.692517       0.000000
      0.600000       0.700000       0.000000
      0.581017       0.756950       0.000000
      0.506084       0.750000       0.000000
      0.600000       0.700000       0.000000
      0.654195       0.692517       0.000000
      0.656527       0.750000       0.000000
      0.581017       0.756950       0.000000
      0.506084       0.750000       0.000000
      0.581017       0.756950       0.000000
      0.563060       0.810819       0.000000
      0.468251       0.804752       0.000000
      0.581017       0.756950       0.000000
      0.656527       0.750000       0.000000
      0.658747       0.804752       0.000000
      0.563060       0.810819       0.000000
      0.654195       0.692517       0.000000
      0.702631       0.671659       0.000000
      0.725999       0.730363       0.000000
      0.656527       0.750000       0.000000
      0.702631       0.671659       0.000000
      0.741421       0.641421       0.000000
      0.784518       0.701184       0.000000
      0.725999       0.730363       0.000000
      0.656527       0.750000       0.000000
      0.725999       0.730363       0.000000
      0.748697       0.787383       0.000000
      0.658747       0.804752       0.000000
      0.725999       0.730363       0.000000
      0.784518       0.701184       0.000000
      0.827614       0.760948       0.000000
      0.748697       0.787383       0.000000
      0.305719       0.760948       0.000000
      0.380813       0.787383       0.000000
      0.325006       0.842791       0.000000
      0.229289       0.820711       0.000000
      0.380813       0.787383       0.000000
      0.468251       0.804752       0.000000
      0.432173       0.856962       0.000000
      0.325006       0.842791       0.000000
      0.229289       0.820711       0.000000
      0.325006       0.842791       0.000000
      0.270755       0.896655       0.000000
      0.152860       0.880474       0.000000
      0.325006       0.842791       0.000000
      0.432173       0.856962       0.000000
      0.397732       0.906804       0.000000
      0.270755       0.896655       0.000000
      0.468251       0.804752       0.000000
      0.563060       0.810819       0.000000
      0.546050       0.861851       0.000000
      0.432173       0.856962       0.000000
      0.563060       0.810819       0.000000
      0.658747       0.804752       0.000000
      0.660865       0.856962       0.000000
      0.546050       0.861851       0.000000
      0.432173       0.856962       0.000000
      0.546050       0.861851       0.000000
      0.529912       0.910264       0.000000
      0.397732       0.906804       0.000000
      0.546050       0.861851       0.000000
      0.660865       0.856962       0.000000
      0.662887       0.906804       0.000000
      0.529912       0.910264       0.000000
      0.658747       0.804752       0.000000
      0.748697       0.787383       0.000000
      0.770753       0.842791       0.000000
      0.660865       0.856962       0.000000
      0.748697       0.787383       0.000000
      0.827614       0.760948       0.000000
      0.870711       0.820711       0.000000
      0.770753       0.842791       0.000000
      0.660865       0.856962       0.000000
      0.770753       0.842791       0.000000
      0.792195       0.896655       0.000000
      0.662887       0.906804       0.000000
      0.770753       0.842791       0.000000
      0.870711       0.820711       0.000000
      0.913807       0.880474       0.000000
      0.792195       0.896655       0.000000
      0.152860       0.880474       0.000000
      0.270755       0.896655       0.000000
      0.217995       0.949038       0.000000
      0.076430       0.940237       0.000000
      0.270755       0.896655       0.000000
      0.397732       0.906804       0.000000
      0.364819       0.954435       0.000000
      0.217995       0.949038       0.000000
      0.076430       0.940237       0.000000
      0.217995       0.949038       0.000000
      0.166667       1.000000       0.000000
      0.000000       1.000000       0.000000
      0.217995       0.949038       0.000000
      0.364819       0.954435       0.000000
      0.333333       1.000000       0.000000
      0.166667       1.000000       0.000000
      0.397732       0.906804       0.000000
      0.529912       0.910264       0.000000
      0.514582       0.956255       0.000000
      0.364819       0.954435       0.000000
      0.529912       0.910264       0.000000
      0.662887       0.906804       0.000000
      0.664819       0.954435       0.000000
      0.514582       0.956255       0.000000
      0.364819       0.954435       0.000000
      0.514582       0.956255       0.000000
      0.500000       1.000000       0.000000
      0.333333       1.000000       0.000000
      0.514582       0.956255       0.000000
      0.664819       0.954435       0.000000
      0.666667       1.000000       0.000000
      0.500000       1.000000       0.000000
      0.662887       0.906804       0.000000
      0.792195       0.896655       0.000000
      0.813047       0.949038       0.000000
      0.664819       0.954435       0.000000
      0.792195       0.896655       0.000000
      0.913807       0.880474       0.000000
      0.956904       0.940237       0.000000
      0.813047       0.949038       0.000000
      0.664819       0.954435       0.000000
      0.813047       0.949038       0.000000
      0.833333       1.000000       0.000000
      0.666667       1.000000       0.000000
      0.813047       0.949038       0.000000
      0.956904       0.940237       0.000000
      1.000000       1.000000       0.000000
      0.833333       1.000000       0.000000
      0.458579       0.358579       0.000000
      0.428341       0.397369       0.000000
      0.351758       0.356122       0.000000
      0.382149       0.298816       0.000000
      0.428341       0.397369       0.000000
      0.407483       0.445805       0.000000
      0.331305       0.424779       0.000000
      0.351758       0.356122       0.000000
      0.382149       0.298816       0.000000
      0.351758       0.356122       0.000000
      0.277372       0.316058       0.000000
      0.305719       0.239052       0.000000
      0.351758       0.356122       0.000000
      0.331305       0.424779       0.000000
      0.258747       0.404752       0.000000
      0.277372       0.316058       0.000000
      0.407483       0.445805       0.000000
      0.400000       0.500000       0.000000
      0.324066       0.500000       0.000000
      0.331305       0.424779       0.000000
      0.400000       0.500000       0.000000
      0.407483       0.554195       0.000000
      0.331305       0.575221       0.000000
      0.324066       0.500000       0.000000
      0.331305       0.424779       0.000000
      0.324066       0.500000       0.000000
      0.252241       0.500000       0.000000
      0.258747       0.404752       0.000000
      0.324066       0.500000       0.000000
      0.331305       0.575221       0.000000
      0.258747       0.595248       0.000000
      0.252241       0.500000       0.000000
      0.407483       0.554195       0.000000
      0.428341       0.602631       0.000000
      0.351758       0.643878       0.000000
      0.331305       0.575221       0.000000
      0.428341       0.602631       0.000000
      0.458579       0.641421       0.000000
      0.382149       0.701184       0.000000
      0.351758       0.643878       0.000000
      0.331305       0.575221       0.000000
      0.351758       0.643878       0.000000
      0.277372       0.683942       0.000000
      0.258747       0.595248       0.000000
      0.351758       0.643878       0.000000
      0.382149       0.701184       0.000000
      0.305719       0.760948       0.000000
      0.277372       0.683942       0.000000
      0.305719       0.239052       0.000000
      0.277372       0.316058       0.000000
      0.205089       0.277126       0.000000
      0.229289       0.179289       0.000000
      0.277372       0.316058       0.000000
      0.258747       0.404752       0.000000
      0.189557       0.385654       0.000000
      0.205089       0.277126       0.000000
      0.229289       0.179289       0.000000
      0.205089       0.277126       0.000000
      0.134820       0.239280       0.000000
      0.152860       0.119526       0.000000
      0.205089       0.277126       0.000000
      0.189557       0.385654       0.000000
      0.123505       0.367423       0.000000
      0.134820       0.239280       0.000000
      0.258747       0.404752       0.000000
      0.252241       0.500000       0.000000
      0.184198       0.500000       0.000000
      0.189557       0.385654       0.000000
      0.252241       0.500000       0.000000
      0.258747       0.595248       0.000000
      0.189557       0.614346       0.000000
      0.184198       0.500000       0.000000
      0.189557       0.385654       0.000000
      0.184198       0.500000       0.000000
      0.119648       0.500000       0.000000
      0.123505       0.367423       0.000000
[...]
POINT_DATA   576
VECTORS U float 
      0.000409       0.005311       0.000000
      0.000211       0.005682       0.000000
      0.000035       0.005401       0.000000
      0.000267       0.004926       0.000000
      0.000211       0.005682       0.000000
      0.000004       0.005930       0.000000
     -0.000117       0.005822       0.000000
      0.000035       0.005401       0.000000
      0.000267       0.004926       0.000000
      0.000035       0.005401       0.000000
      0.000059       0.005372       0.000000
      0.000336       0.004969       0.000000
      0.000035       0.005401       0.000000
     -0.000117       0.005822       0.000000
     -0.000132       0.005776       0.000000
      0.000059       0.005372       0.000000
      0.000004       0.005930       0.000000
     -0.000210       0.006031       0.000000
     -0.000197       0.006057       0.000000
     -0.000117       0.005822       0.000000
     -0.000210       0.006031       0.000000
     -0.000443       0.005979       0.000000
     -0.000275       0.006017       0.000000
     -0.000197       0.006057       0.000000
     -0.000117       0.005822       0.000000
     -0.000197       0.006057       0.000000
     -0.000196       0.006053       0.000000
     -0.000132       0.005776       0.000000
     -0.000197       0.006057       0.000000
     -0.000275       0.006017       0.000000
     -0.000207       0.006043       0.000000
     -0.000196       0.006053       0.000000
     -0.000443       0.005979       0.000000
     -0.000708       0.005775       0.000000
     -0.000417       0.005706       0.000000
     -0.000275       0.006017       0.000000
     -0.000708       0.005775       0.000000
     -0.000999       0.005434       0.000000
     -0.000668       0.005225       0.000000
     -0.000417       0.005706       0.000000
     -0.000275       0.006017       0.000000
     -0.000417       0.005706       0.000000
     -0.000299       0.005727       0.000000
     -0.000207       0.006043       0.000000
     -0.000417       0.005706       0.000000
     -0.000668       0.005225       0.000000
     -0.000532       0.005250       0.000000
     -0.000299       0.005727       0.000000
      0.000336       0.004969       0.000000
      0.000059       0.005372       0.000000
      0.000122       0.005483       0.000000
      0.000437       0.005176       0.000000
      0.000059       0.005372       0.000000
     -0.000132       0.005776       0.000000
     -0.000113       0.005810       0.000000
      0.000122       0.005483       0.000000
      0.000437       0.005176       0.000000
      0.000122       0.005483       0.000000
      0.000201       0.005678       0.000000
      0.000557       0.005462       0.000000
      0.000122       0.005483       0.000000
     -0.000113       0.005810       0.000000
     -0.000082       0.005905       0.000000
      0.000201       0.005678       0.000000
     -0.000132       0.005776       0.000000
     -0.000196       0.006053       0.000000
     -0.000191       0.006068       0.000000
     -0.000113       0.005810       0.000000
     -0.000196       0.006053       0.000000
     -0.000207       0.006043       0.000000
     -0.000171       0.006078       0.000000
     -0.000191       0.006068       0.000000
     -0.000113       0.005810       0.000000
     -0.000191       0.006068       0.000000
     -0.000185       0.006103       0.000000
     -0.000082       0.005905       0.000000
     -0.000191       0.006068       0.000000
     -0.000171       0.006078       0.000000
     -0.000150       0.006122       0.000000
     -0.000185       0.006103       0.000000
     -0.000207       0.006043       0.000000
     -0.000299       0.005727       0.000000
     -0.000235       0.005799       0.000000
     -0.000171       0.006078       0.000000
     -0.000299       0.005727       0.000000
     -0.000532       0.005250       0.000000
     -0.000458       0.005369       0.000000
     -0.000235       0.005799       0.000000
     -0.000171       0.006078       0.000000
     -0.000235       0.005799       0.000000
     -0.000201       0.005906       0.000000
     -0.000150       0.006122       0.000000
     -0.000235       0.005799       0.000000
     -0.000458       0.005369       0.000000
     -0.000437       0.005566       0.000000
     -0.000201       0.005906       0.000000
      0.000557       0.005462       0.000000
      0.000201       0.005678       0.000000
      0.000299       0.005928       0.000000
      0.000714       0.005805       0.000000
      0.000201       0.005678       0.000000
     -0.000082       0.005905       0.000000
     -0.000043       0.006045       0.000000
      0.000299       0.005928       0.000000
      0.000714       0.005805       0.000000
      0.000299       0.005928       0.000000
      0.000425       0.006222       0.000000
      0.000933       0.006222       0.000000
      0.000299       0.005928       0.000000
     -0.000043       0.006045       0.000000
      0.000010       0.006222       0.000000
      0.000425       0.006222       0.000000
     -0.000082       0.005905       0.000000
     -0.000185       0.006103       0.000000
     -0.000180       0.006156       0.000000
     -0.000043       0.006045       0.000000
     -0.000185       0.006103       0.000000
     -0.000150       0.006122       0.000000
     -0.000138       0.006171       0.000000
     -0.000180       0.006156       0.000000
     -0.000043       0.006045       0.000000
     -0.000180       0.006156       0.000000
     -0.000177       0.006222       0.000000
      0.000010       0.006222       0.000000
     -0.000180       0.006156       0.000000
     -0.000138       0.006171       0.000000
     -0.000134       0.006222       0.000000
     -0.000177       0.006222       0.000000
     -0.000150       0.006122       0.000000
     -0.000201       0.005906       0.000000
     -0.000191       0.006047       0.000000
     -0.000138       0.006171       0.000000
     -0.000201       0.005906       0.000000
     -0.000437       0.005566       0.000000
     -0.000476       0.005851       0.000000
     -0.000191       0.006047       0.000000
     -0.000138       0.006171       0.000000
     -0.000191       0.006047       0.000000
     -0.000205       0.006222       0.000000
     -0.000134       0.006222       0.000000
     -0.000191       0.006047       0.000000
     -0.000476       0.005851       0.000000
     -0.000573       0.006222       0.000000
     -0.000205       0.006222       0.000000
      0.000358       0.000786       0.000000
      0.000547       0.001273       0.000000
      0.000528       0.001687       0.000000
      0.000215       0.001153       0.000000
      0.000547       0.001273       0.000000
      0.000694       0.001978       0.000000
      0.000881       0.002330       0.000000
      0.000528       0.001687       0.000000
      0.000215       0.001153       0.000000
      0.000528       0.001687       0.000000
      0.000601       0.001699       0.000000
      0.000255       0.001107       0.000000
      0.000528       0.001687       0.000000
      0.000881       0.002330       0.000000
      0.000995       0.002381       0.000000
      0.000601       0.001699       0.000000
      0.000694       0.001978       0.000000
      0.000729       0.003024       0.000000
      0.001075       0.003039       0.000000
      0.000881       0.002330       0.000000
      0.000729       0.003024       0.000000
      0.000722       0.004082       0.000000
      0.000917       0.003744       0.000000
      0.001075       0.003039       0.000000
      0.000881       0.002330       0.000000
      0.001075       0.003039       0.000000
      0.001202       0.003049       0.000000
      0.000995       0.002381       0.000000
      0.001075       0.003039       0.000000
      0.000917       0.003744       0.000000
      0.001032       0.003708       0.000000
      0.001202       0.003049       0.000000
      0.000722       0.004082       0.000000
      0.000595       0.004803       0.000000
      0.000581       0.004384       0.000000
      0.000917       0.003744       0.000000
      0.000595       0.004803       0.000000
      0.000409       0.005311       0.000000
      0.000267       0.004926       0.000000
      0.000581       0.004384       0.000000
      0.000917       0.003744       0.000000
      0.000581       0.004384       0.000000
      0.000667       0.004377       0.000000
      0.001032       0.003708       0.000000
      0.000581       0.004384       0.000000
      0.000267       0.004926       0.000000
      0.000336       0.004969       0.000000
      0.000667       0.004377       0.000000
      0.000255       0.001107       0.000000
      0.000601       0.001699       0.000000
      0.000686       0.001590       0.000000
      0.000300       0.000907       0.000000
      0.000601       0.001699       0.000000
      0.000995       0.002381       0.000000
      0.001107       0.002346       0.000000
      0.000686       0.001590       0.000000
      0.000300       0.000907       0.000000
      0.000686       0.001590       0.000000
      0.000763       0.001463       0.000000
      0.000308       0.000647       0.000000
      0.000686       0.001590       0.000000
      0.001107       0.002346       0.000000
      0.001220       0.002303       0.000000
      0.000763       0.001463       0.000000
      0.000995       0.002381       0.000000
      0.001202       0.003049       0.000000
      0.001318       0.003060       0.000000
      0.001107       0.002346       0.000000
      0.001202       0.003049       0.000000
      0.001032       0.003708       0.000000
      0.001146       0.003766       0.000000
      0.001318       0.003060       0.000000
      0.001107       0.002346       0.000000
      0.001318       0.003060       0.000000
      0.001444       0.003073       0.000000
      0.001220       0.002303       0.000000
      0.001318       0.003060       0.000000
      0.001146       0.003766       0.000000
      0.001263       0.003838       0.000000
      0.001444       0.003073       0.000000
      0.001032       0.003708       0.000000
      0.000667       0.004377       0.000000
      0.000771       0.004502       0.000000
      0.001146       0.003766       0.000000
      0.000667       0.004377       0.000000
      0.000336       0.004969       0.000000
      0.000437       0.005176       0.000000
      0.000771       0.004502       0.000000
      0.001146       0.003766       0.000000
      0.000771       0.004502       0.000000
      0.000875       0.004662       0.000000
      0.001263       0.003838       0.000000
      0.000771       0.004502       0.000000
      0.000437       0.005176       0.000000
      0.000557       0.005462       0.000000
      0.000875       0.004662       0.000000
      0.000308       0.000647       0.000000
      0.000763       0.001463       0.000000
      0.000830       0.001368       0.000000
      0.000250       0.000356       0.000000
      0.000763       0.001463       0.000000
      0.001220       0.002303       0.000000
      0.001327       0.002289       0.000000
      0.000830       0.001368       0.000000
      0.000250       0.000356       0.000000
      0.000830       0.001368       0.000000
      0.000888       0.001324       0.000000
      0.000000       0.000000       0.000000
      0.000830       0.001368       0.000000
      0.001327       0.002289       0.000000
      0.001422       0.002328       0.000000
      0.000888       0.001324       0.000000
      0.001220       0.002303       0.000000
      0.001444       0.003073       0.000000
      0.001572       0.003086       0.000000
      0.001327       0.002289       0.000000
      0.001444       0.003073       0.000000
      0.001263       0.003838       0.000000
      0.001377       0.003887       0.000000
      0.001572       0.003086       0.000000
      0.001327       0.002289       0.000000
      0.001572       0.003086       0.000000
      0.001688       0.003097       0.000000
      0.001422       0.002328       0.000000
      0.001572       0.003086       0.000000
      0.001377       0.003887       0.000000
      0.001484       0.003882       0.000000
      0.001688       0.003097       0.000000
      0.001263       0.003838       0.000000
      0.000875       0.004662       0.000000
      0.000980       0.004815       0.000000
      0.001377       0.003887       0.000000
      0.000875       0.004662       0.000000
      0.000557       0.005462       0.000000
      0.000714       0.005805       0.000000
      0.000980       0.004815       0.000000
      0.001377       0.003887       0.000000
      0.000980       0.004815       0.000000
      0.001101       0.004952       0.000000
      0.001484       0.003882       0.000000
      0.000980       0.004815       0.000000
      0.000714       0.005805       0.000000
      0.000933       0.006222       0.000000
      0.001101       0.004952       0.000000
     -0.000938       0.000732       0.000000
     -0.000642       0.000393       0.000000
     -0.000343       0.000467       0.000000
     -0.000592       0.000950       0.000000
     -0.000642       0.000393       0.000000
     -0.000388       0.000191       0.000000
     -0.000215       0.000162       0.000000
     -0.000343       0.000467       0.000000
     -0.000592       0.000950       0.000000
     -0.000343       0.000467       0.000000
     -0.000199       0.000453       0.000000
     -0.000431       0.000933       0.000000
     -0.000343       0.000467       0.000000
     -0.000215       0.000162       0.000000
     -0.000128       0.000146       0.000000
     -0.000199       0.000453       0.000000
     -0.000388       0.000191       0.000000
     -0.000183       0.000136       0.000000
     -0.000163       0.000117       0.000000
     -0.000215       0.000162       0.000000
     -0.000183       0.000136       0.000000
     -0.000005       0.000221       0.000000
     -0.000114       0.000321       0.000000
     -0.000163       0.000117       0.000000
     -0.000215       0.000162       0.000000
     -0.000163       0.000117       0.000000
     -0.000150       0.000127       0.000000
     -0.000128       0.000146       0.000000
     -0.000163       0.000117       0.000000
     -0.000114       0.000321       0.000000
     -0.000132       0.000366       0.000000
     -0.000150       0.000127       0.000000
     -0.000005       0.000221       0.000000
      0.000173       0.000441       0.000000
      0.000005       0.000703       0.000000
     -0.000114       0.000321       0.000000
      0.000173       0.000441       0.000000
      0.000358       0.000786       0.000000
      0.000215       0.001153       0.000000
      0.000005       0.000703       0.000000
     -0.000114       0.000321       0.000000
      0.000005       0.000703       0.000000
      0.000010       0.000728       0.000000
     -0.000132       0.000366       0.000000
      0.000005       0.000703       0.000000
      0.000215       0.001153       0.000000
      0.000255       0.001107       0.000000
      0.000010       0.000728       0.000000
     -0.000431       0.000933       0.000000
     -0.000199       0.000453       0.000000
     -0.000104       0.000387       0.000000
     -0.000322       0.000819       0.000000
     -0.000199       0.000453       0.000000
     -0.000128       0.000146       0.000000
     -0.000070       0.000123       0.000000
     -0.000104       0.000387       0.000000
     -0.000322       0.000819       0.000000
     -0.000104       0.000387       0.000000
     -0.000038       0.000283       0.000000
     -0.000253       0.000627       0.000000
     -0.000104       0.000387       0.000000
     -0.000070       0.000123       0.000000
     -0.000028       0.000091       0.000000
     -0.000038       0.000283       0.000000
     -0.000128       0.000146       0.000000
     -0.000150       0.000127       0.000000
     -0.000131       0.000122       0.000000
     -0.000070       0.000123       0.000000
     -0.000150       0.000127       0.000000
     -0.000132       0.000366       0.000000
     -0.000118       0.000336       0.000000
     -0.000131       0.000122       0.000000
     -0.000070       0.000123       0.000000
     -0.000131       0.000122       0.000000
     -0.000104       0.000099       0.000000
     -0.000028       0.000091       0.000000
     -0.000131       0.000122       0.000000
     -0.000118       0.000336       0.000000
     -0.000090       0.000252       0.000000
     -0.000104       0.000099       0.000000
     -0.000132       0.000366       0.000000
      0.000010       0.000728       0.000000
      0.000038       0.000617       0.000000
     -0.000118       0.000336       0.000000
      0.000010       0.000728       0.000000
      0.000255       0.001107       0.000000
      0.000300       0.000907       0.000000
      0.000038       0.000617       0.000000
     -0.000118       0.000336       0.000000
      0.000038       0.000617       0.000000
      0.000056       0.000435       0.000000
     -0.000090       0.000252       0.000000
      0.000038       0.000617       0.000000
      0.000300       0.000907       0.000000
      0.000308       0.000647       0.000000
      0.000056       0.000435       0.000000
     -0.000253       0.000627       0.000000
     -0.000038       0.000283       0.000000
      0.000000       0.000150       0.000000
     -0.000195       0.000351       0.000000
     -0.000038       0.000283       0.000000
     -0.000028       0.000091       0.000000
     -0.000003       0.000051       0.000000
      0.000000       0.000150       0.000000
     -0.000195       0.000351       0.000000
      0.000000       0.000150       0.000000
      0.000000       0.000000       0.000000
      0.000000       0.000000       0.000000
      0.000000       0.000150       0.000000
     -0.000003       0.000051       0.000000
      0.000000       0.000000       0.000000
      0.000000       0.000000       0.000000
     -0.000028       0.000091       0.000000
     -0.000104       0.000099       0.000000
     -0.000063       0.000057       0.000000
     -0.000003       0.000051       0.000000
     -0.000104       0.000099       0.000000
     -0.000090       0.000252       0.000000
     -0.000050       0.000134       0.000000
     -0.000063       0.000057       0.000000
     -0.000003       0.000051       0.000000
     -0.000063       0.000057       0.000000
      0.000000       0.000000       0.000000
      0.000000       0.000000       0.000000
     -0.000063       0.000057       0.000000
     -0.000050       0.000134       0.000000
      0.000000       0.000000       0.000000
      0.000000       0.000000       0.000000
     -0.000090       0.000252       0.000000
      0.000056       0.000435       0.000000
      0.000049       0.000220       0.000000
     -0.000050       0.000134       0.000000
      0.000056       0.000435       0.000000
      0.000308       0.000647       0.000000
      0.000250       0.000356       0.000000
      0.000049       0.000220       0.000000
     -0.000050       0.000134       0.000000
      0.000049       0.000220       0.000000
      0.000000       0.000000       0.000000
      0.000000       0.000000       0.000000
      0.000049       0.000220       0.000000
      0.000250       0.000356       0.000000
      0.000000       0.000000       0.000000
      0.000000       0.000000       0.000000
     -0.000938       0.000732       0.000000
     -0.001264       0.001227       0.000000
     -0.001037       0.001477       0.000000
     -0.000592       0.000950       0.000000
     -0.001264       0.001227       0.000000
     -0.001554       0.001950       0.000000
     -0.001588       0.002155       0.000000
     -0.001037       0.001477       0.000000
     -0.000592       0.000950       0.000000
     -0.001037       0.001477       0.000000
     -0.000900       0.001512       0.000000