# vtk DataFile Version 2.0
time_10.vtk
ASCII
DATASET UNSTRUCTURED_GRID
POINTS  3648 float
      0.458579       0.641421       0.000000
      0.497369       0.671659       0.000000
      0.438243       0.730363       0.000000
      0.382149       0.701184       0.000000
      0.497369       0.671659       0.000000
      0.545805       0.692517       0.000000
      0.506084       0.750000       0.000000
      0.438243       0.730363       0.000000
      0.382149       0.701184       0.000000
      0.438243       0.730363       0.000000
      0.380813       0.787383       0.000000
      0.305719       0.760948       0.000000
      0.438243       0.730363       0.000000
      0.506084       0.750000       0.000000
      0.468251       0.804752       0.000000
      0.380813       0.787383       0.000000
      0.545805       0.692517       0.000000
      0.600000       0.700000       0.000000
      0.581017       0.756950       0.000000
      0.506084       0.750000       0.000000
      0.600000       0.700000       0.000000
      0.654195       0.692517       0.000000
      0.656527       0.750000       0.000000
      0.581017       0.756950       0.000000
      0.506084       0.750000       0.000000
      0.581017       0.756950       0.000000
      0.563060       0.810819       0.000000
      0.468251       0.804752       0.000000
      0.581017       0.756950       0.000000
      0.656527       0.750000       0.000000
      0.658747       0.804752       0.000000
      0.563060       0.810819       0.000000
      0.654195       0.692517       0.000000
      0.702631       0.671659       0.000000
      0.725999       0.730363       0.000000
      0.656527       0.750000       0.000000
      0.702631       0.671659       0.000000
      0.741421       0.641421       0.000000
      0.784518       0.701184       0.000000
      0.725999       0.730363       0.000000
      0.656527       0.750000       0.000000
      0.725999       0.730363       0.000000
      0.748697       0.787383       0.000000
      0.658747       0.804752       0.000000
      0.725999       0.730363       0.000000
      0.784518       0.701184       0.000000
      0.827614       0.760948       0.000000
      0.748697       0.787383       0.000000
      0.305719       0.760948       0.000000
      0.380813       0.787383       0.000000
      0.325006       0.842791       0.000000
      0.229289       0.820711       0.000000
      0.380813       0.787383       0.000000
      0.468251       0.804752       0.000000
      0.432173       0.856962       0.000000
      0.325006       0.842791       0.000000
      0.229289       0.820711       0.000000
      0.325006       0.842791       0.000000
      0.270755       0.896655       0.000000
      0.152860       0.880474       0.000000
      0.325006       0.842791       0.000000
      0.432173       0.856962       0.000000
      0.397732       0.906804       0.000000
      0.270755       0.896655       0.000000
      0.468251       0.804752       0.000000
      0.563060       0.810819       0.000000
      0.546050       0.861851       0.000000
      0.432173       0.856962       0.000000
      0.563060       0.810819       0.000000
      0.658747       0.804752       0.000000
      0.660865       0.856962       0.000000
      0.546050       0.861851       0.000000
      0.432173       0.856962       0.000000
      0.546050       0.861851       0.000000
      0.529912       0.910264       0.000000
      0.397732       0.906804       0.000000
      0.546050       0.861851       0.000000
      0.660865       0.856962       0.000000
      0.662887       0.906804       0.000000
      0.529912       0.910264       0.000000
      0.658747       0.804752       0.000000
      0.748697       0.787383       0.000000
      0.770753       0.842791       0.000000
      0.660865       0.856962       0.000000
      0.748697       0.787383       0.000000
      0.827614       0.760948       0.000000
      0.870711       0.820711       0.000000
      0.770753       0.842791       0.000000
      0.660865       0.856962       0.000000
      0.770753       0.842791       0.000000
      0.792195       0.896655       0.000000
      0.662887       0.906804       0.000000
      0.770753       0.842791       0.000000
      0.870711       0.820711       0.000000
      0.913807       0.880474       0.000000
      0.792195       0.896655       0.000000
      0.152860       0.880474       0.000000
      0.270755       0.896655       0.000000
      0.217995       0.949038       0.000000
      0.076430       0.940237       0.000000
      0.270755       0.896655       0.000000
      0.397732       0.906804       0.000000
      0.364819       0.954435       0.000000
      0.217995       0.949038       0.000000
      0.076430       0.940237       0.000000
      0.217995       0.949038       0.000000
      0.166667       1.000000       0.000000
      0.000000       1.000000       0.000000
      0.217995       0.949038       0.000000
      0.364819       0.954435       0.000000
      0.333333       1.000000       0.000000
      0.166667       1.000000       0.000000
      0.397732       0.906804       0.000000
      0.529912       0.910264       0.000000
      0.514582       0.956255       0.000000
      0.364819       0.954435       0.000000
      0.529912       0.910264       0.000000
      0.662887       0.906804       0.000000
      0.664819       0.954435       0.000000
      0.514582       0.956255       0.000000
      0.364819       0.954435       0.000000
      0.514582       0.956255       0.000000
      0.500000       1.000000       0.000000
      0.333333       1.000000       0.000000
      0.514582       0.956255       0.000000
      0.664819       0.954435       0.000000
      0.666667       1.000000       0.000000
      0.500000       1.000000       0.000000
      0.662887       0.906804       0.000000
      0.792195       0.896655       0.000000
      0.813047       0.949038       0.000000
      0.664819       0.954435       0.000000
      0.792195       0.896655       0.000000
      0.913807       0.880474       0.000000
      0.956904       0.940237       0.000000
      0.813047       0.949038       0.000000
      0.664819       0.954435       0.000000
      0.813047       0.949038       0.000000
      0.833333       1.000000       0.000000
      0.666667       1.000000       0.000000
      0.813047       0.949038       0.000000
      0.956904       0.940237       0.000000
      1.000000       1.000000       0.000000
      0.833333       1.000000       0.000000
      0.458579       0.358579       0.000000
      0.428341       0.397369       0.000000
      0.351758       0.356122       0.000000
      0.382149       0.298816       0.000000
      0.382149       0.298816       0.000000
      0.351758       0.356122       0.000000
      0.277372       0.316058       0.000000
      0.305719       0.239052       0.000000
      0.428341       0.602631       0.000000
      0.458579       0.641421       0.000000
      0.382149       0.701184       0.000000
      0.351758       0.643878       0.000000
      0.351758       0.643878       0.000000
      0.382149       0.701184       0.000000
      0.305719       0.760948       0.000000
      0.277372       0.683942       0.000000
      0.305719       0.239052       0.000000
      0.277372       0.316058       0.000000
      0.205089       0.277126       0.000000
      0.229289       0.179289       0.000000
      0.229289       0.179289       0.000000
      0.205089       0.277126       0.000000
      0.134820       0.239280       0.000000
      0.152860       0.119526       0.000000
      0.205089       0.277126       0.000000
      0.189557       0.385654       0.000000
      0.123505       0.367423       0.000000
      0.134820       0.239280       0.000000
      0.277372       0.683942       0.000000
      0.305719       0.760948       0.000000
      0.229289       0.820711       0.000000
      0.205089       0.722874       0.000000
      0.189557       0.614346       0.000000
      0.205089       0.722874       0.000000
      0.134820       0.760720       0.000000
      0.123505       0.632577       0.000000
      0.205089       0.722874       0.000000
      0.229289       0.820711       0.000000
      0.152860       0.880474       0.000000
      0.134820       0.760720       0.000000
      0.152860       0.119526       0.000000
      0.134820       0.239280       0.000000
      0.066483       0.202474       0.000000
      0.076430       0.059763       0.000000
      0.076430       0.059763       0.000000
      0.066483       0.202474       0.000000
      0.000000       0.166667       0.000000
      0.000000       0.000000       0.000000
      0.066483       0.202474       0.000000
      0.060383       0.350000       0.000000
      0.000000       0.333333       0.000000
      0.000000       0.166667       0.000000
      0.134820       0.760720       0.000000
      0.152860       0.880474       0.000000
      0.076430       0.940237       0.000000
      0.066483       0.797526       0.000000
      0.060383       0.650000       0.000000
      0.066483       0.797526       0.000000
      0.000000       0.833333       0.000000
      0.000000       0.666667       0.000000
      0.066483       0.797526       0.000000
      0.076430       0.940237       0.000000
      0.000000       1.000000       0.000000
      0.000000       0.833333       0.000000
      0.400000       0.500000       0.000000
      0.400119       0.506902       0.000000
      0.390391       0.507240       0.000000
      0.390272       0.500000       0.000000
      0.400119       0.506902       0.000000
      0.400476       0.513791       0.000000
      0.390747       0.514468       0.000000
      0.390391       0.507240       0.000000
      0.390272       0.500000       0.000000
      0.390391       0.507240       0.000000
      0.380731       0.507577       0.000000
      0.380612       0.500000       0.000000
[...]
POINT_DATA  3648
VECTORS U float 
      0.000053       0.006848       0.000000
      0.000032       0.006857       0.000000
      0.000016       0.006844       0.000000
      0.000032       0.006822       0.000000
      0.000032       0.006857       0.000000
      0.000014       0.006861       0.000000
      0.000007       0.006859       0.000000
      0.000016       0.006844       0.000000
      0.000032       0.006822       0.000000
      0.000016       0.006844       0.000000
      0.000005       0.006833       0.000000
      0.000018       0.006805       0.000000
      0.000016       0.006844       0.000000
      0.000007       0.006859       0.000000
     -0.000000       0.006854       0.000000
      0.000005       0.006833       0.000000
      0.000014       0.006861       0.000000
     -0.000000       0.006861       0.000000
      0.000002       0.006864       0.000000
      0.000007       0.006859       0.000000
     -0.000000       0.006861       0.000000
     -0.000014       0.006857       0.000000
     -0.000004       0.006859       0.000000
      0.000002       0.006864       0.000000
      0.000007       0.006859       0.000000
      0.000002       0.006864       0.000000
     -0.000000       0.006863       0.000000
     -0.000000       0.006854       0.000000
      0.000002       0.006864       0.000000
     -0.000004       0.006859       0.000000
      0.000001       0.006859       0.000000
     -0.000000       0.006863       0.000000
     -0.000014       0.006857       0.000000
     -0.000030       0.006850       0.000000
     -0.000012       0.006845       0.000000
     -0.000004       0.006859       0.000000
     -0.000030       0.006850       0.000000
     -0.000050       0.006838       0.000000
     -0.000026       0.006823       0.000000
     -0.000012       0.006845       0.000000
     -0.000004       0.006859       0.000000
     -0.000012       0.006845       0.000000
     -0.000003       0.006842       0.000000
      0.000001       0.006859       0.000000
     -0.000012       0.006845       0.000000
     -0.000026       0.006823       0.000000
     -0.000012       0.006816       0.000000
     -0.000003       0.006842       0.000000
      0.000018       0.006805       0.000000
      0.000005       0.006833       0.000000
     -0.000003       0.006827       0.000000
      0.000009       0.006796       0.000000
      0.000005       0.006833       0.000000
     -0.000000       0.006854       0.000000
     -0.000007       0.006849       0.000000
     -0.000003       0.006827       0.000000
      0.000009       0.006796       0.000000
     -0.000003       0.006827       0.000000
     -0.000008       0.006828       0.000000
      0.000009       0.006799       0.000000
     -0.000003       0.006827       0.000000
     -0.000007       0.006849       0.000000
     -0.000012       0.006847       0.000000
     -0.000008       0.006828       0.000000
     -0.000000       0.006854       0.000000
     -0.000000       0.006863       0.000000
     -0.000003       0.006860       0.000000
     -0.000007       0.006849       0.000000
     -0.000000       0.006863       0.000000
      0.000001       0.006859       0.000000
      0.000003       0.006858       0.000000
     -0.000003       0.006860       0.000000
     -0.000007       0.006849       0.000000
     -0.000003       0.006860       0.000000
     -0.000006       0.006858       0.000000
     -0.000012       0.006847       0.000000
     -0.000003       0.006860       0.000000
      0.000003       0.006858       0.000000
      0.000004       0.006856       0.000000
     -0.000006       0.006858       0.000000
      0.000001       0.006859       0.000000
     -0.000003       0.006842       0.000000
      0.000003       0.006841       0.000000
      0.000003       0.006858       0.000000
     -0.000003       0.006842       0.000000
     -0.000012       0.006816       0.000000
     -0.000005       0.006815       0.000000
      0.000003       0.006841       0.000000
      0.000003       0.006858       0.000000
      0.000003       0.006841       0.000000
      0.000007       0.006843       0.000000
      0.000004       0.006856       0.000000
      0.000003       0.006841       0.000000
     -0.000005       0.006815       0.000000
     -0.000002       0.006821       0.000000
      0.000007       0.006843       0.000000
      0.000009       0.006799       0.000000
     -0.000008       0.006828       0.000000
     -0.000008       0.006836       0.000000
      0.000019       0.006818       0.000000
     -0.000008       0.006828       0.000000
     -0.000012       0.006847       0.000000
     -0.000016       0.006849       0.000000
     -0.000008       0.006836       0.000000
      0.000019       0.006818       0.000000
     -0.000008       0.006836       0.000000
     -0.000002       0.006854       0.000000
      0.000038       0.006854       0.000000
     -0.000008       0.006836       0.000000
     -0.000016       0.006849       0.000000
     -0.000016       0.006854       0.000000
     -0.000002       0.006854       0.000000
     -0.000012       0.006847       0.000000
     -0.000006       0.006858       0.000000
     -0.000008       0.006856       0.000000
     -0.000016       0.006849       0.000000
     -0.000006       0.006858       0.000000
      0.000004       0.006856       0.000000
      0.000005       0.006855       0.000000
     -0.000008       0.006856       0.000000
     -0.000016       0.006849       0.000000
     -0.000008       0.006856       0.000000
     -0.000010       0.006854       0.000000
     -0.000016       0.006854       0.000000
     -0.000008       0.006856       0.000000
      0.000005       0.006855       0.000000
      0.000005       0.006854       0.000000
     -0.000010       0.006854       0.000000
      0.000004       0.006856       0.000000
      0.000007       0.006843       0.000000
      0.000009       0.006847       0.000000
      0.000005       0.006855       0.000000
      0.000007       0.006843       0.000000
     -0.000002       0.006821       0.000000
     -0.000004       0.006835       0.000000
      0.000009       0.006847       0.000000
      0.000005       0.006855       0.000000
      0.000009       0.006847       0.000000
      0.000009       0.006854       0.000000
      0.000005       0.006854       0.000000
      0.000009       0.006847       0.000000
     -0.000004       0.006835       0.000000
     -0.000009       0.006854       0.000000
      0.000009       0.006854       0.000000
      0.000052       0.000007       0.000000
      0.000078       0.000020       0.000000
      0.000062       0.000053       0.000000
      0.000032       0.000031       0.000000
      0.000032       0.000031       0.000000
      0.000062       0.000053       0.000000
      0.000052       0.000075       0.000000
      0.000019       0.000046       0.000000
      0.000080       0.006834       0.000000
      0.000053       0.006848       0.000000
      0.000032       0.006822       0.000000
      0.000063       0.006800       0.000000
      0.000063       0.006800       0.000000
      0.000032       0.006822       0.000000
      0.000018       0.006805       0.000000
      0.000053       0.006776       0.000000
      0.000019       0.000046       0.000000
      0.000052       0.000075       0.000000
      0.000044       0.000096       0.000000
      0.000010       0.000054       0.000000
      0.000010       0.000054       0.000000
      0.000044       0.000096       0.000000
      0.000041       0.000114       0.000000
      0.000008       0.000050       0.000000
      0.000044       0.000096       0.000000
      0.000107       0.000142       0.000000
      0.000108       0.000181       0.000000
      0.000041       0.000114       0.000000
      0.000053       0.006776       0.000000
      0.000018       0.006805       0.000000
      0.000009       0.006796       0.000000
      0.000044       0.006754       0.000000
      0.000108       0.006708       0.000000
      0.000044       0.006754       0.000000
      0.000040       0.006736       0.000000
      0.000108       0.006668       0.000000
      0.000044       0.006754       0.000000
      0.000009       0.006796       0.000000
      0.000009       0.006799       0.000000
      0.000040       0.006736       0.000000
      0.000008       0.000050       0.000000
      0.000041       0.000114       0.000000
      0.000046       0.000123       0.000000
      0.000011       0.000031       0.000000
      0.000011       0.000031       0.000000
      0.000046       0.000123       0.000000
      0.000055       0.000120       0.000000
      0.000000       0.000000       0.000000
      0.000046       0.000123       0.000000
      0.000111       0.000227       0.000000
      0.000120       0.000261       0.000000
      0.000055       0.000120       0.000000
      0.000040       0.006736       0.000000
      0.000009       0.006799       0.000000
      0.000019       0.006818       0.000000
      0.000045       0.006727       0.000000
      0.000111       0.006623       0.000000
      0.000045       0.006727       0.000000
      0.000056       0.006732       0.000000
      0.000120       0.006589       0.000000
      0.000045       0.006727       0.000000
      0.000019       0.006818       0.000000
      0.000038       0.006854       0.000000
      0.000056       0.006732       0.000000
     -0.000444       0.003427       0.000000
      0.000118       0.006745       0.000000
      0.000122       0.006762       0.000000
      0.000101       0.003427       0.000000
      0.000118       0.006745       0.000000
      0.000125       0.006791       0.000000
      0.000126       0.006793       0.000000
      0.000122       0.006762       0.000000
      0.000101       0.003427       0.000000
      0.000122       0.006762       0.000000
      0.000132       0.006757       0.000000
      0.000126       0.003427       0.000000
      0.000122       0.006762       0.000000
      0.000126       0.006793       0.000000
      0.000130       0.006787       0.000000
      0.000132       0.006757       0.000000
      0.000122       0.000063       0.000000
      0.000115       0.000108       0.000000
      0.000119       0.000091       0.000000
      0.000123       0.000061       0.000000
      0.000115       0.000108       0.000000
     -0.000444       0.003427       0.000000
      0.000101       0.003427       0.000000
      0.000119       0.000091       0.000000
      0.000123       0.000061       0.000000
      0.000119       0.000091       0.000000
      0.000129       0.000096       0.000000
      0.000127       0.000066       0.000000
      0.000119       0.000091       0.000000
      0.000101       0.003427       0.000000
      0.000126       0.003427       0.000000
      0.000129       0.000096       0.000000
      0.000110       0.006816       0.000000
      0.000095       0.006825       0.000000
      0.000088       0.006804       0.000000
      0.000107       0.006794       0.000000
      0.000095       0.006825       0.000000
      0.000080       0.006834       0.000000
      0.000069       0.006814       0.000000
      0.000088       0.006804       0.000000
      0.000107       0.006794       0.000000
      0.000088       0.006804       0.000000
      0.000083       0.006788       0.000000
      0.000105       0.006776       0.000000
      0.000088       0.006804       0.000000
      0.000069       0.006814       0.000000
      0.000063       0.006800       0.000000
      0.000083       0.006788       0.000000
      0.000123       0.006805       0.000000
      0.000117       0.006811       0.000000
      0.000116       0.006800       0.000000
      0.000124       0.006796       0.000000
      0.000117       0.006811       0.000000
      0.000110       0.006816       0.000000
      0.000108       0.006805       0.000000
      0.000116       0.006800       0.000000
      0.000124       0.006796       0.000000
      0.000116       0.006800       0.000000
      0.000116       0.006790       0.000000
      0.000125       0.006785       0.000000
      0.000116       0.006800       0.000000
      0.000108       0.006805       0.000000
      0.000107       0.006794       0.000000
      0.000116       0.006790       0.000000
      0.000125       0.006791       0.000000
      0.000124       0.006800       0.000000
      0.000126       0.006798       0.000000
      0.000126       0.006793       0.000000
      0.000124       0.006800       0.000000
      0.000123       0.006805       0.000000
      0.000123       0.006801       0.000000
      0.000126       0.006798       0.000000
      0.000126       0.006793       0.000000
      0.000126       0.006798       0.000000
      0.000127       0.006793       0.000000
      0.000130       0.006787       0.000000
      0.000126       0.006798       0.000000
      0.000123       0.006801       0.000000
      0.000124       0.006796       0.000000
      0.000127       0.006793       0.000000
      0.000078       0.000020       0.000000
      0.000093       0.000029       0.000000
      0.000086       0.000049       0.000000
      0.000068       0.000039       0.000000
      0.000093       0.000029       0.000000
      0.000107       0.000038       0.000000
      0.000104       0.000059       0.000000
      0.000086       0.000049       0.000000
      0.000068       0.000039       0.000000
      0.000086       0.000049       0.000000
      0.000082       0.000065       0.000000
      0.000062       0.000053       0.000000
      0.000086       0.000049       0.000000
      0.000104       0.000059       0.000000
      0.000103       0.000077       0.000000
      0.000082       0.000065       0.000000
      0.000107       0.000038       0.000000
      0.000114       0.000043       0.000000
      0.000114       0.000053       0.000000
      0.000106       0.000049       0.000000
      0.000114       0.000043       0.000000
      0.000120       0.000049       0.000000
      0.000121       0.000058       0.000000
      0.000114       0.000053       0.000000
      0.000106       0.000049       0.000000
      0.000114       0.000053       0.000000
      0.000113       0.000063       0.000000
      0.000104       0.000059       0.000000
      0.000114       0.000053       0.000000
      0.000121       0.000058       0.000000
      0.000122       0.000068       0.000000
      0.000113       0.000063       0.000000
      0.000120       0.000049       0.000000
      0.000121       0.000054       0.000000
      0.000123       0.000056       0.000000
      0.000121       0.000053       0.000000
      0.000121       0.000054       0.000000
      0.000122       0.000063       0.000000
      0.000123       0.000061       0.000000
      0.000123       0.000056       0.000000
      0.000121       0.000053       0.000000
      0.000123       0.000056       0.000000
      0.000124       0.000060       0.000000
      0.000121       0.000058       0.000000
      0.000123       0.000056       0.000000
      0.000123       0.000061       0.000000
      0.000127       0.000066       0.000000
      0.000124       0.000060       0.000000
      0.000126       0.003427       0.000000
      0.000132       0.006757       0.000000
      0.000136       0.006751       0.000000
      0.000131       0.003427       0.000000
      0.000132       0.006757       0.000000
      0.000130       0.006787       0.000000
      0.000132       0.006781       0.000000
      0.000136       0.006751       0.000000
      0.000131       0.003427       0.000000
      0.000136       0.006751       0.000000
      0.000138       0.006745       0.000000
      0.000133       0.003427       0.000000
      0.000136       0.006751       0.000000
      0.000132       0.006781       0.000000
      0.000134       0.006775       0.000000
      0.000138       0.006745       0.000000
      0.000127       0.000066       0.000000
      0.000129       0.000096       0.000000
      0.000133       0.000102       0.000000
      0.000129       0.000072       0.000000
      0.000129       0.000096       0.000000
      0.000126       0.003427       0.000000
      0.000131       0.003427       0.000000
      0.000133       0.000102       0.000000
      0.000129       0.000072       0.000000
      0.000133       0.000102       0.000000
      0.000135       0.000108       0.000000
      0.000131       0.000078       0.000000
      0.000133       0.000102       0.000000
      0.000131       0.003427       0.000000
      0.000133       0.003427       0.000000
      0.000135       0.000108       0.000000
      0.000130       0.006787       0.000000
      0.000127       0.006793       0.000000
      0.000128       0.006787       0.000000
      0.000132       0.006781       0.000000
      0.000127       0.006793       0.000000
      0.000124       0.006796       0.000000
      0.000124       0.006790       0.000000
      0.000128       0.006787       0.000000
      0.000132       0.006781       0.000000
      0.000128       0.006787       0.000000
      0.000129       0.006781       0.000000
      0.000134       0.006775       0.000000
      0.000128       0.006787       0.000000
      0.000124       0.006790       0.000000
      0.000125       0.006785       0.000000
      0.000129       0.006781       0.000000
      0.000121       0.000058       0.000000
      0.000124       0.000060       0.000000
      0.000125       0.000066       0.000000
      0.000122       0.000063       0.000000
      0.000124       0.000060       0.000000
      0.000127       0.000066       0.000000
      0.000129       0.000072       0.000000
      0.000125       0.000066       0.000000
      0.000122       0.000063       0.000000
      0.000125       0.000066       0.000000
      0.000126       0.000072       0.000000
      0.000122       0.000068       0.000000
      0.000125       0.000066       0.000000
      0.000129       0.000072       0.000000
      0.000131       0.000078       0.000000
      0.000126       0.000072       0.000000
      0.000105       0.000109       0.000000
      0.000135       0.000127       0.000000
      0.000141       0.000147       0.000000
      0.000106       0.000125       0.000000
      0.000137       0.006724       0.000000
      0.000106       0.006742       0.000000
      0.000107       0.006726       0.000000
      0.000143       0.006704       0.000000
      0.000125       0.006785       0.000000
      0.000116       0.006790       0.000000
      0.000116       0.006779       0.000000
      0.000126       0.006774       0.000000
      0.000116       0.006790       0.000000
      0.000107       0.006794       0.000000
      0.000106       0.006785       0.000000
      0.000116       0.006779       0.000000
      0.000126       0.006774       0.000000
      0.000116       0.006779       0.000000
      0.000116       0.006770       0.000000
      0.000128       0.006763       0.000000
      0.000116       0.006779       0.000000
      0.000106       0.006785       0.000000
      0.000105       0.006776       0.000000
      0.000116       0.006770       0.000000
      0.000104       0.000059       0.000000
      0.000113       0.000063       0.000000
      0.000114       0.000073       0.000000
      0.000104       0.000068       0.000000
      0.000113       0.000063       0.000000
      0.000122       0.000068       0.000000
      0.000123       0.000079       0.000000
      0.000114       0.000073       0.000000
      0.000104       0.000068       0.000000
      0.000114       0.000073       0.000000
      0.000114       0.000083       0.000000
      0.000103       0.000077       0.000000
      0.000114       0.000073       0.000000
      0.000123       0.000079       0.000000
      0.000125       0.000089       0.000000
      0.000114       0.000083       0.000000
      0.000133       0.003427       0.000000
      0.000138       0.006745       0.000000
      0.000140       0.006739       0.000000