# vtk DataFile Version 2.0
time_10.vtk
ASCII
DATASET UNSTRUCTURED_GRID
POINTS   840 float
      0.458579       0.641421       0.000000
      0.497369       0.671659       0.000000
      0.438243       0.730363       0.000000
      0.382149       0.701184       0.000000
      0.497369       0.671659       0.000000
      0.545805       0.692517       0.000000
      0.506084       0.750000       0.000000
      0.438243       0.730363       0.000000
      0.382149       0.701184       0.000000
      0.438243       0.730363       0.000000
      0.380813       0.787383       0.000000
      0.305719       0.760948       0.000000
      0.438243       0.730363       0.000000
      0.506084       0.750000       0.000000
      0.468251       0.804752       0.000000
      0.380813       0.787383       0.000000
      0.545805       0.692517       0.000000
      0.600000       0.700000       0.000000
      0.581017       0.756950       0.000000
      0.506084       0.750000       0.000000
      0.600000       0.700000       0.000000
      0.654195       0.692517       0.000000
      0.656527       0.750000       0.000000
      0.581017       0.756950       0.000000
      0.506084       0.750000       0.000000
      0.581017       0.756950       0.000000
      0.563060       0.810819       0.000000
      0.468251       0.804752       0.000000
      0.581017       0.756950       0.000000
      0.656527       0.750000       0.000000
      0.658747       0.804752       0.000000
      0.563060       0.810819       0.000000
      0.654195       0.692517       0.000000
      0.702631       0.671659       0.000000
      0.725999       0.730363       0.000000
      0.656527       0.750000       0.000000
      0.702631       0.671659       0.000000
      0.741421       0.641421       0.000000
      0.784518       0.701184       0.000000
      0.725999       0.730363       0.000000
      0.656527       0.750000       0.000000
      0.725999       0.730363       0.000000
      0.748697       0.787383       0.000000
      0.658747       0.804752       0.000000
      0.725999       0.730363       0.000000
      0.784518       0.701184       0.000000
      0.827614       0.760948       0.000000
      0.748697       0.787383       0.000000
      0.305719       0.760948       0.000000
      0.380813       0.787383       0.000000
      0.325006       0.842791       0.000000
      0.229289       0.820711       0.000000
      0.380813       0.787383       0.000000
      0.468251       0.804752       0.000000
      0.432173       0.856962       0.000000
      0.325006       0.842791       0.000000
      0.229289       0.820711       0.000000
      0.325006       0.842791       0.000000
      0.270755       0.896655       0.000000
      0.152860       0.880474       0.000000
      0.325006       0.842791       0.000000
      0.432173       0.856962       0.000000
      0.397732       0.906804       0.000000
      0.270755       0.896655       0.000000
      0.468251       0.804752       0.000000
      0.563060       0.810819       0.000000
      0.546050       0.861851       0.000000
      0.432173       0.856962       0.000000
      0.563060       0.810819       0.000000
      0.658747       0.804752       0.000000
      0.660865       0.856962       0.000000
      0.546050       0.861851       0.000000
      0.432173       0.856962       0.000000
      0.546050       0.861851       0.000000
      0.529912       0.910264       0.000000
      0.397732       0.906804       0.000000
      0.546050       0.861851       0.000000
      0.660865       0.856962       0.000000
      0.662887       0.906804       0.000000
      0.529912       0.910264       0.000000
      0.658747       0.804752       0.000000
      0.748697       0.787383       0.000000
      0.770753       0.842791       0.000000
      0.660865       0.856962       0.000000
      0.748697       0.787383       0.000000
      0.827614       0.760948       0.000000
      0.870711       0.820711       0.000000
      0.770753       0.842791       0.000000
      0.660865       0.856962       0.000000
      0.770753       0.842791       0.000000
      0.792195       0.896655       0.000000
      0.662887       0.906804       0.000000
      0.770753       0.842791       0.000000
      0.870711       0.820711       0.000000
      0.913807       0.880474       0.000000
      0.792195       0.896655       0.000000
      0.152860       0.880474       0.000000
      0.270755       0.896655       0.000000
      0.217995       0.949038       0.000000
      0.076430       0.940237       0.000000
      0.270755       0.896655       0.000000
      0.397732       0.906804       0.000000
      0.364819       0.954435       0.000000
      0.217995       0.949038       0.000000
      0.076430       0.940237       0.000000
      0.217995       0.949038       0.000000
      0.166667       1.000000       0.000000
      0.000000       1.000000       0.000000
      0.217995       0.949038       0.000000
      0.364819       0.954435       0.000000
      0.333333       1.000000       0.000000
      0.166667       1.000000       0.000000
      0.397732       0.906804       0.000000
      0.529912       0.910264       0.000000
      0.514582       0.956255       0.000000
      0.364819       0.954435       0.000000
      0.529912       0.910264       0.000000
      0.662887       0.906804       0.000000
      0.664819       0.954435       0.000000
      0.514582       0.956255       0.000000
      0.364819       0.954435       0.000000
      0.514582       0.956255       0.000000
      0.500000       1.000000       0.000000
      0.333333       1.000000       0.000000
      0.514582       0.956255       0.000000
      0.664819       0.954435       0.000000
      0.666667       1.000000       0.000000
      0.500000       1.000000       0.000000
      0.662887       0.906804       0.000000
      0.792195       0.896655       0.000000
      0.813047       0.949038       0.000000
      0.664819       0.954435       0.000000
      0.792195       0.896655       0.000000
      0.913807       0.880474       0.000000
      0.956904       0.940237       0.000000
      0.813047       0.949038       0.000000
      0.664819       0.954435       0.000000
      0.813047       0.949038       0.000000
      0.833333       1.000000       0.000000
      0.666667       1.000000       0.000000
      0.813047       0.949038       0.000000
      0.956904       0.940237       0.000000
      1.000000       1.000000       0.000000
      0.833333       1.000000       0.000000
      0.458579       0.358579       0.000000
      0.428341       0.397369       0.000000
      0.351758       0.356122       0.000000
      0.382149       0.298816       0.000000
      0.428341       0.397369       0.000000
      0.407483       0.445805       0.000000
      0.331305       0.424779       0.000000
      0.351758       0.356122       0.000000
      0.382149       0.298816       0.000000
      0.351758       0.356122       0.000000
      0.277372       0.316058       0.000000
      0.305719       0.239052       0.000000
      0.351758       0.356122       0.000000
      0.331305       0.424779       0.000000
      0.258747       0.404752       0.000000
      0.277372       0.316058       0.000000
      0.407483       0.445805       0.000000
      0.400000       0.500000       0.000000
      0.324066       0.500000       0.000000
      0.331305       0.424779       0.000000
      0.400000       0.500000       0.000000
      0.407483       0.554195       0.000000
      0.331305       0.575221       0.000000
      0.324066       0.500000       0.000000
      0.331305       0.424779       0.000000
      0.324066       0.500000       0.000000
      0.252241       0.500000       0.000000
      0.258747       0.404752       0.000000
      0.324066       0.500000       0.000000
      0.331305       0.575221       0.000000
      0.258747       0.595248       0.000000
      0.252241       0.500000       0.000000
      0.407483       0.554195       0.000000
      0.428341       0.602631       0.000000
      0.351758       0.643878       0.000000
      0.331305       0.575221       0.000000
      0.428341       0.602631       0.000000
      0.458579       0.641421       0.000000
      0.382149       0.701184       0.000000
      0.351758       0.643878       0.000000
      0.331305       0.575221       0.000000
      0.351758       0.643878       0.000000
      0.277372       0.683942       0.000000
      0.258747       0.595248       0.000000
      0.351758       0.643878       0.000000
      0.382149       0.701184       0.000000
      0.305719       0.760948       0.000000
      0.277372       0.683942       0.000000
      0.305719       0.239052       0.000000
      0.277372       0.316058       0.000000
      0.205089       0.277126       0.000000
      0.229289       0.179289       0.000000
      0.277372       0.316058       0.000000
      0.258747       0.404752       0.000000
      0.189557       0.385654       0.000000
      0.205089       0.277126       0.000000
      0.229289       0.179289       0.000000
      0.205089       0.277126       0.000000
      0.134820       0.239280       0.000000
      0.152860       0.119526       0.000000
      0.205089       0.277126       0.000000
      0.189557       0.385654       0.000000
      0.123505       0.367423       0.000000
      0.134820       0.239280       0.000000
      0.258747       0.404752       0.000000
      0.252241       0.500000       0.000000
      0.184198       0.500000       0.000000
      0.189557       0.385654       0.000000
      0.252241       0.500000       0.000000
      0.258747       0.595248       0.000000
      0.189557       0.614346       0.000000
      0.184198       0.500000       0.000000
      0.189557       0.385654       0.000000
      0.184198       0.500000       0.000000
      0.119648       0.500000       0.000000
      0.123505       0.367423       0.000000
[...]
POINT_DATA   840
VECTORS U float 
      0.000439       0.005698       0.000000
      0.000226       0.006082       0.000000
      0.000038       0.005787       0.000000
      0.000282       0.005287       0.000000
      0.000226       0.006082       0.000000
      0.000006       0.006338       0.000000
     -0.000121       0.006226       0.000000
      0.000038       0.005787       0.000000
      0.000282       0.005287       0.000000
      0.000038       0.005787       0.000000
      0.000058       0.005750       0.000000
      0.000349       0.005320       0.000000
      0.000038       0.005787       0.000000
     -0.000121       0.006226       0.000000
     -0.000140       0.006176       0.000000
      0.000058       0.005750       0.000000
      0.000006       0.006338       0.000000
     -0.000219       0.006444       0.000000
     -0.000206       0.006471       0.000000
     -0.000121       0.006226       0.000000
     -0.000219       0.006444       0.000000
     -0.000464       0.006394       0.000000
     -0.000288       0.006433       0.000000
     -0.000206       0.006471       0.000000
     -0.000121       0.006226       0.000000
     -0.000206       0.006471       0.000000
     -0.000206       0.006466       0.000000
     -0.000140       0.006176       0.000000
     -0.000206       0.006471       0.000000
     -0.000288       0.006433       0.000000
     -0.000216       0.006458       0.000000
     -0.000206       0.006466       0.000000
     -0.000464       0.006394       0.000000
     -0.000745       0.006186       0.000000
     -0.000438       0.006113       0.000000
     -0.000288       0.006433       0.000000
     -0.000745       0.006186       0.000000
     -0.001057       0.005839       0.000000
     -0.000700       0.005614       0.000000
     -0.000438       0.006113       0.000000
     -0.000288       0.006433       0.000000
     -0.000438       0.006113       0.000000
     -0.000309       0.006131       0.000000
     -0.000216       0.006458       0.000000
     -0.000438       0.006113       0.000000
     -0.000700       0.005614       0.000000
     -0.000549       0.005629       0.000000
     -0.000309       0.006131       0.000000
      0.000349       0.005320       0.000000
      0.000058       0.005750       0.000000
      0.000121       0.005861       0.000000
      0.000453       0.005528       0.000000
      0.000058       0.005750       0.000000
     -0.000140       0.006176       0.000000
     -0.000123       0.006208       0.000000
      0.000121       0.005861       0.000000
      0.000453       0.005528       0.000000
      0.000121       0.005861       0.000000
      0.000201       0.006061       0.000000
      0.000577       0.005825       0.000000
      0.000121       0.005861       0.000000
     -0.000123       0.006208       0.000000
     -0.000093       0.006304       0.000000
      0.000201       0.006061       0.000000
     -0.000140       0.006176       0.000000
     -0.000206       0.006466       0.000000
     -0.000201       0.006479       0.000000
     -0.000123       0.006208       0.000000
     -0.000206       0.006466       0.000000
     -0.000216       0.006458       0.000000
     -0.000177       0.006491       0.000000
     -0.000201       0.006479       0.000000
     -0.000123       0.006208       0.000000
     -0.000201       0.006479       0.000000
     -0.000196       0.006513       0.000000
     -0.000093       0.006304       0.000000
     -0.000201       0.006479       0.000000
     -0.000177       0.006491       0.000000
     -0.000154       0.006534       0.000000
     -0.000196       0.006513       0.000000
     -0.000216       0.006458       0.000000
     -0.000309       0.006131       0.000000
     -0.000239       0.006200       0.000000
     -0.000177       0.006491       0.000000
     -0.000309       0.006131       0.000000
     -0.000549       0.005629       0.000000
     -0.000467       0.005744       0.000000
     -0.000239       0.006200       0.000000
     -0.000177       0.006491       0.000000
     -0.000239       0.006200       0.000000
     -0.000201       0.006308       0.000000
     -0.000154       0.006534       0.000000
     -0.000239       0.006200       0.000000
     -0.000467       0.005744       0.000000
     -0.000444       0.005946       0.000000
     -0.000201       0.006308       0.000000
      0.000577       0.005825       0.000000
      0.000201       0.006061       0.000000
      0.000301       0.006322       0.000000
      0.000742       0.006186       0.000000
      0.000201       0.006061       0.000000
     -0.000093       0.006304       0.000000
     -0.000054       0.006448       0.000000
      0.000301       0.006322       0.000000
      0.000742       0.006186       0.000000
      0.000301       0.006322       0.000000
      0.000434       0.006632       0.000000
      0.000976       0.006632       0.000000
      0.000301       0.006322       0.000000
     -0.000054       0.006448       0.000000
     -0.000000       0.006632       0.000000
      0.000434       0.006632       0.000000
     -0.000093       0.006304       0.000000
     -0.000196       0.006513       0.000000
     -0.000192       0.006565       0.000000
     -0.000054       0.006448       0.000000
     -0.000196       0.006513       0.000000
     -0.000154       0.006534       0.000000
     -0.000141       0.006582       0.000000
     -0.000192       0.006565       0.000000
     -0.000054       0.006448       0.000000
     -0.000192       0.006565       0.000000
     -0.000189       0.006632       0.000000
     -0.000000       0.006632       0.000000
     -0.000192       0.006565       0.000000
     -0.000141       0.006582       0.000000
     -0.000137       0.006632       0.000000
     -0.000189       0.006632       0.000000
     -0.000154       0.006534       0.000000
     -0.000201       0.006308       0.000000
     -0.000190       0.006452       0.000000
     -0.000141       0.006582       0.000000
     -0.000201       0.006308       0.000000
     -0.000444       0.005946       0.000000
     -0.000485       0.006243       0.000000
     -0.000190       0.006452       0.000000
     -0.000141       0.006582       0.000000
     -0.000190       0.006452       0.000000
     -0.000204       0.006632       0.000000
     -0.000137       0.006632       0.000000
     -0.000190       0.006452       0.000000
     -0.000485       0.006243       0.000000
     -0.000587       0.006632       0.000000
     -0.000204       0.006632       0.000000
      0.000386       0.000806       0.000000
      0.000592       0.001307       0.000000
      0.000563       0.001760       0.000000
      0.000230       0.001197       0.000000
      0.000592       0.001307       0.000000
      0.000756       0.002034       0.000000
      0.000949       0.002451       0.000000
      0.000563       0.001760       0.000000
      0.000230       0.001197       0.000000
      0.000563       0.001760       0.000000
      0.000640       0.001790       0.000000
      0.000269       0.001159       0.000000
      0.000563       0.001760       0.000000
      0.000949       0.002451       0.000000
      0.001073       0.002528       0.000000
      0.000640       0.001790       0.000000
      0.000756       0.002034       0.000000
      0.000772       0.003223       0.000000
      0.001177       0.003240       0.000000
      0.000949       0.002451       0.000000
      0.000772       0.003223       0.000000
      0.000786       0.004431       0.000000
      0.000986       0.004027       0.000000
      0.001177       0.003240       0.000000
      0.000949       0.002451       0.000000
      0.001177       0.003240       0.000000
      0.001309       0.003250       0.000000
      0.001073       0.002528       0.000000
      0.001177       0.003240       0.000000
      0.000986       0.004027       0.000000
      0.001111       0.003964       0.000000
      0.001309       0.003250       0.000000
      0.000786       0.004431       0.000000
      0.000642       0.005174       0.000000
      0.000618       0.004715       0.000000
      0.000986       0.004027       0.000000
      0.000642       0.005174       0.000000
      0.000439       0.005698       0.000000
      0.000282       0.005287       0.000000
      0.000618       0.004715       0.000000
      0.000986       0.004027       0.000000
      0.000618       0.004715       0.000000
      0.000706       0.004688       0.000000
      0.001111       0.003964       0.000000
      0.000618       0.004715       0.000000
      0.000282       0.005287       0.000000
      0.000349       0.005320       0.000000
      0.000706       0.004688       0.000000
      0.000269       0.001159       0.000000
      0.000640       0.001790       0.000000
      0.000731       0.001684       0.000000
      0.000315       0.000955       0.000000
      0.000640       0.001790       0.000000
      0.001073       0.002528       0.000000
      0.001193       0.002497       0.000000
      0.000731       0.001684       0.000000
      0.000315       0.000955       0.000000
      0.000731       0.001684       0.000000
      0.000812       0.001555       0.000000
      0.000323       0.000684       0.000000
      0.000731       0.001684       0.000000
      0.001193       0.002497       0.000000
      0.001313       0.002456       0.000000
      0.000812       0.001555       0.000000
      0.001073       0.002528       0.000000
      0.001309       0.003250       0.000000
      0.001429       0.003261       0.000000
      0.001193       0.002497       0.000000
      0.001309       0.003250       0.000000
      0.001111       0.003964       0.000000
      0.001233       0.004016       0.000000
      0.001429       0.003261       0.000000
      0.001193       0.002497       0.000000
      0.001429       0.003261       0.000000
      0.001560       0.003274       0.000000
      0.001313       0.002456       0.000000
      0.001429       0.003261       0.000000
      0.001233       0.004016       0.000000
      0.001356       0.004088       0.000000
      0.001560       0.003274       0.000000
      0.001111       0.003964       0.000000
      0.000706       0.004688       0.000000
      0.000816       0.004809       0.000000
      0.001233       0.004016       0.000000
      0.000706       0.004688       0.000000
      0.000349       0.005320       0.000000
      0.000453       0.005528       0.000000
      0.000816       0.004809       0.000000
      0.001233       0.004016       0.000000
      0.000816       0.004809       0.000000
      0.000925       0.004970       0.000000
      0.001356       0.004088       0.000000
      0.000816       0.004809       0.000000
      0.000453       0.005528       0.000000
      0.000577       0.005825       0.000000
      0.000925       0.004970       0.000000
      0.000323       0.000684       0.000000
      0.000812       0.001555       0.000000
      0.000882       0.001460       0.000000
      0.000262       0.000377       0.000000
      0.000812       0.001555       0.000000
      0.001313       0.002456       0.000000
      0.001425       0.002444       0.000000
      0.000882       0.001460       0.000000
      0.000262       0.000377       0.000000
      0.000882       0.001460       0.000000
      0.000944       0.001416       0.000000
      0.000000       0.000000       0.000000
      0.000882       0.001460       0.000000
      0.001425       0.002444       0.000000
      0.001524       0.002490       0.000000
      0.000944       0.001416       0.000000
      0.001313       0.002456       0.000000
      0.001560       0.003274       0.000000
      0.001694       0.003287       0.000000
      0.001425       0.002444       0.000000
      0.001560       0.003274       0.000000
      0.001356       0.004088       0.000000
      0.001476       0.004135       0.000000
      0.001694       0.003287       0.000000
      0.001425       0.002444       0.000000
      0.001694       0.003287       0.000000
      0.001816       0.003298       0.000000
      0.001524       0.002490       0.000000
      0.001694       0.003287       0.000000
      0.001476       0.004135       0.000000
      0.001586       0.004123       0.000000
      0.001816       0.003298       0.000000
      0.001356       0.004088       0.000000
      0.000925       0.004970       0.000000
      0.001034       0.005126       0.000000
      0.001476       0.004135       0.000000
      0.000925       0.004970       0.000000
      0.000577       0.005825       0.000000
      0.000742       0.006186       0.000000
      0.001034       0.005126       0.000000
      0.001476       0.004135       0.000000
      0.001034       0.005126       0.000000
      0.001161       0.005267       0.000000
      0.001586       0.004123       0.000000
      0.001034       0.005126       0.000000
      0.000742       0.006186       0.000000
      0.000976       0.006632       0.000000
      0.001161       0.005267       0.000000
     -0.000993       0.000737       0.000000
     -0.000676       0.000392       0.000000
     -0.000360       0.000470       0.000000
     -0.000620       0.000971       0.000000
     -0.000676       0.000392       0.000000
     -0.000406       0.000188       0.000000
     -0.000226       0.000158       0.000000
     -0.000360       0.000470       0.000000
     -0.000620       0.000971       0.000000
     -0.000360       0.000470       0.000000
     -0.000206       0.000460       0.000000
     -0.000445       0.000964       0.000000
     -0.000360       0.000470       0.000000
     -0.000226       0.000158       0.000000
     -0.000134       0.000143       0.000000
     -0.000206       0.000460       0.000000
     -0.000406       0.000188       0.000000
     -0.000189       0.000134       0.000000
     -0.000169       0.000114       0.000000
     -0.000226       0.000158       0.000000
     -0.000189       0.000134       0.000000
     -0.000002       0.000222       0.000000
     -0.000116       0.000326       0.000000
     -0.000169       0.000114       0.000000
     -0.000226       0.000158       0.000000
     -0.000169       0.000114       0.000000
     -0.000156       0.000125       0.000000
     -0.000134       0.000143       0.000000
     -0.000169       0.000114       0.000000
     -0.000116       0.000326       0.000000
     -0.000137       0.000375       0.000000
     -0.000156       0.000125       0.000000
     -0.000002       0.000222       0.000000
      0.000187       0.000450       0.000000
      0.000009       0.000725       0.000000
     -0.000116       0.000326       0.000000
      0.000187       0.000450       0.000000
      0.000386       0.000806       0.000000
      0.000230       0.001197       0.000000
      0.000009       0.000725       0.000000
     -0.000116       0.000326       0.000000
      0.000009       0.000725       0.000000
      0.000010       0.000755       0.000000
     -0.000137       0.000375       0.000000
      0.000009       0.000725       0.000000
      0.000230       0.001197       0.000000
      0.000269       0.001159       0.000000
      0.000010       0.000755       0.000000
     -0.000445       0.000964       0.000000
     -0.000206       0.000460       0.000000
     -0.000105       0.000396       0.000000
     -0.000328       0.000853       0.000000
     -0.000206       0.000460       0.000000
     -0.000134       0.000143       0.000000
     -0.000072       0.000122       0.000000
     -0.000105       0.000396       0.000000
     -0.000328       0.000853       0.000000
     -0.000105       0.000396       0.000000
     -0.000035       0.000292       0.000000
     -0.000257       0.000655       0.000000
     -0.000105       0.000396       0.000000
     -0.000072       0.000122       0.000000
     -0.000028       0.000091       0.000000
     -0.000035       0.000292       0.000000
     -0.000134       0.000143       0.000000
     -0.000156       0.000125       0.000000
     -0.000137       0.000122       0.000000
     -0.000072       0.000122       0.000000
     -0.000156       0.000125       0.000000
     -0.000137       0.000375       0.000000
     -0.000124       0.000346       0.000000
     -0.000137       0.000122       0.000000
     -0.000072       0.000122       0.000000
     -0.000137       0.000122       0.000000
     -0.000109       0.000100       0.000000
     -0.000028       0.000091       0.000000
     -0.000137       0.000122       0.000000
     -0.000124       0.000346       0.000000
     -0.000096       0.000261       0.000000
     -0.000109       0.000100       0.000000
     -0.000137       0.000375       0.000000
      0.000010       0.000755       0.000000
      0.000038       0.000644       0.000000
     -0.000124       0.000346       0.000000
      0.000010       0.000755       0.000000
      0.000269       0.001159       0.000000
      0.000315       0.000955       0.000000
      0.000038       0.000644       0.000000
     -0.000124       0.000346       0.000000
      0.000038       0.000644       0.000000
      0.000057       0.000455       0.000000
     -0.000096       0.000261       0.000000
      0.000038       0.000644       0.000000
      0.000315       0.000955       0.000000
      0.000323       0.000684       0.000000
      0.000057       0.000455       0.000000
     -0.000257       0.000655       0.000000
     -0.000035       0.000292       0.000000
      0.000003       0.000155       0.000000
     -0.000201       0.000366       0.000000
     -0.000035       0.000292       0.000000
     -0.000028       0.000091       0.000000
     -0.000003       0.000051       0.000000
      0.000003       0.000155       0.000000
     -0.000201       0.000366       0.000000
      0.000003       0.000155       0.000000
      0.000000       0.000000       0.000000
      0.000000       0.000000       0.000000
      0.000003       0.000155       0.000000
     -0.000003       0.000051       0.000000
      0.000000       0.000000       0.000000
      0.000000       0.000000       0.000000
     -0.000028       0.000091       0.000000
     -0.000109       0.000100       0.000000
     -0.000067       0.000058       0.000000
     -0.000003       0.000051       0.000000
     -0.000109       0.000100       0.000000
     -0.000096       0.000261       0.000000
     -0.000054       0.000139       0.000000
     -0.000067       0.000058       0.000000
     -0.000003       0.000051       0.000000
     -0.000067       0.000058       0.000000
      0.000000       0.000000       0.000000
      0.000000       0.000000       0.000000
     -0.000067       0.000058       0.000000
     -0.000054       0.000139       0.000000
      0.000000       0.000000       0.000000
      0.000000       0.000000       0.000000
     -0.000096       0.000261       0.000000
      0.000057       0.000455       0.000000
      0.000049       0.000230       0.000000
     -0.000054       0.000139       0.000000
      0.000057       0.000455       0.000000
      0.000323       0.000684       0.000000
      0.000262       0.000377       0.000000
      0.000049       0.000230       0.000000
     -0.000054       0.000139       0.000000
      0.000049       0.000230       0.000000
      0.000000       0.000000       0.000000
      0.000000       0.000000       0.000000
      0.000049       0.000230       0.000000
      0.000262       0.000377       0.000000
      0.000000       0.000000       0.000000
      0.000000       0.000000       0.000000
     -0.000993       0.000737       0.000000
     -0.001349       0.001239       0.000000
     -0.001094       0.001515       0.000000
     -0.000620       0.000971       0.000000
     -0.000620       0.000971       0.000000
     -0.001094       0.001515       0.000000
     -0.000942       0.001568       0.000000
     -0.000445       0.000964       0.000000
     -0.001094       0.001515       0.000000
     -0.001694       0.002214       0.000000
     -0.001674       0.002345       0.000000