# vtk DataFile Version 2.0
time_10.vtk
ASCII
DATASET UNSTRUCTURED_GRID
POINTS   576 float
      0.458579       0.641421       0.000000
      0.497369       0.671659       0.000000
      0.438243       0.730363       0.000000
      0.382149       0.701184       0.000000
      0.497369       0.671659       0.000000
      0.545805       0.692517       0.000000
      0.506084       0.750000       0.000000
      0.438243       0.730363       0.000000
      0.382149       0.701184       0.000000
      0.438243       0.730363       0.000000
      0.380813       0.787383       0.000000
      0.305719       0.760948       0.000000
      0.438243       0.730363       0.000000
      0.506084       0.750000       0.000000
      0.468251       0.804752       0.000000
      0.380813       0.787383       0.000000
      0.545805       0.692517       0.000000
      0.600000       0.700000       0.000000
      0.581017       0.756950       0.000000
      0.506084       0.750000       0.000000
      0.600000       0.700000       0.000000
      0.654195       0.692517       0.000000
      0.656527       0.750000       0.000000
      0.581017       0.756950       0.000000
      0.506084       0.750000       0.000000
      0.581017       0.756950       0.000000
      0.563060       0.810819       0.000000
      0.468251       0.804752       0.000000
      0.581017       0.756950       0.000000
      0.656527       0.750000       0.000000
      0.658747       0.804752       0.000000
      0.563060       0.810819       0.000000
      0.654195       0.692517       0.000000
      0.702631       0.671659       0.000000
      0.725999       0.730363       0.000000
      0.656527       0.750000       0.000000
      0.702631       0.671659       0.000000
      0.741421       0.641421       0.000000
      0.784518       0.701184       0.000000
      0.725999       0.730363       0.000000
      0.656527       0.750000       0.000000
      0.725999       0.730363       0.000000
      0.748697       0.787383       0.000000
      0.658747       0.804752       0.000000
      0.725999       0.730363       0.000000
      0.784518       0.701184       0.000000
      0.827614       0.760948       0.000000
      0.748697       0.787383       0.000000
      0.305719       0.760948       0.000000
      0.380813       0.787383       0.000000
      0.325006       0.842791       0.000000
      0.229289       0.820711       0.000000
      0.380813       0.787383       0.000000
      0.468251       0.804752       0.000000
      0.432173       0.856962       0.000000
      0.325006       0.842791       0.000000
      0.229289       0.820711       0.000000
      0.325006       0.842791       0.000000
      0.270755       0.896655       0.000000
      0.152860       0.880474       0.000000
      0.325006       0.842791       0.000000
      0.432173       0.856962       0.000000
      0.397732       0.906804       0.000000
      0.270755       0.896655       0.000000
      0.468251       0.804752       0.000000
      0.563060       0.810819       0.000000
      0.546050       0.861851       0.000000
      0.432173       0.856962       0.000000
      0.563060       0.810819       0.000000
      0.658747       0.804752       0.000000
      0.660865       0.856962       0.000000
      0.546050       0.861851       0.000000
      0.432173       0.856962       0.000000
      0.546050       0.861851       0.000000
      0.529912       0.910264       0.000000
      0.397732       0.906804       0.000000
      0.546050       0.861851       0.000000
      0.660865       0.856962       0.000000
      0.662887       0.906804       0.000000
      0.529912       0.910264       0.000000
      0.658747       0.804752       0.000000
      0.748697       0.787383       0.000000
      0.770753       0.842791       0.000000
      0.660865       0.856962       0.000000
      0.748697       0.787383       0.000000
      0.827614       0.760948       0.000000
      0.870711       0.820711       0.000000
      0.770753       0.842791       0.000000
      0.660865       0.856962       0.000000
      0.770753       0.842791       0.000000
      0.792195       0.896655       0.000000
      0.662887       0.906804       0.000000
      0.770753       0.842791       0.000000
      0.870711       0.820711       0.000000
      0.913807       0.880474       0.000000
      0.792195       0.896655       0.000000
      0.152860       0.880474       0.000000
      0.270755       0.896655       0.000000
      0.217995       0.949038       0.000000
      0.076430       0.940237       0.000000
      0.270755       0.896655       0.000000
      0.397732       0.906804       0.000000
      0.364819       0.954435       0.000000
      0.217995       0.949038       0.000000
      0.076430       0.940237       0.000000
      0.217995       0.949038       0.000000
      0.166667       1.000000       0.000000
      0.000000       1.000000       0.000000
      0.217995       0.949038       0.000000
      0.364819       0.954435       0.000000
      0.333333       1.000000       0.000000
      0.166667       1.000000       0.000000
      0.397732       0.906804       0.000000
      0.529912       0.910264       0.000000
      0.514582       0.956255       0.000000
      0.364819       0.954435       0.000000
      0.529912       0.910264       0.000000
      0.662887       0.906804       0.000000
      0.664819       0.954435       0.000000
      0.514582       0.956255       0.000000
      0.364819       0.954435       0.000000
      0.514582       0.956255       0.000000
      0.500000       1.000000       0.000000
      0.333333       1.000000       0.000000
      0.514582       0.956255       0.000000
      0.664819       0.954435       0.000000
      0.666667       1.000000       0.000000
      0.500000       1.000000       0.000000
      0.662887       0.906804       0.000000
      0.792195       0.896655       0.000000
      0.813047       0.949038       0.000000
      0.664819       0.954435       0.000000
      0.792195       0.896655       0.000000
      0.913807       0.880474       0.000000
      0.956904       0.940237       0.000000
      0.813047       0.949038       0.000000
      0.664819       0.954435       0.000000
      0.813047       0.949038       0.000000
      0.833333       1.000000       0.000000
      0.666667       1.000000       0.000000
      0.813047       0.949038       0.000000
      0.956904       0.940237       0.000000
      1.000000       1.000000       0.000000
      0.833333       1.000000       0.000000
      0.458579       0.358579       0.000000
      0.428341       0.397369       0.000000
      0.351758       0.356122       0.000000
      0.382149       0.298816       0.000000
      0.428341       0.397369       0.000000
      0.407483       0.445805       0.000000
      0.331305       0.424779       0.000000
      0.351758       0.356122       0.000000
      0.382149       0.298816       0.000000
      0.351758       0.356122       0.000000
      0.277372       0.316058       0.000000
      0.305719       0.239052       0.000000
      0.351758       0.356122       0.000000
      0.331305       0.424779       0.000000
      0.258747       0.404752       0.000000
      0.277372       0.316058       0.000000
      0.407483       0.445805       0.000000
      0.400000       0.500000       0.000000
      0.324066       0.500000       0.000000
      0.331305       0.424779       0.000000
      0.400000       0.500000       0.000000
      0.407483       0.554195       0.000000
      0.331305       0.575221       0.000000
      0.324066       0.500000       0.000000
      0.331305       0.424779       0.000000
      0.324066       0.500000       0.000000
      0.252241       0.500000       0.000000
      0.258747       0.404752       0.000000
      0.324066       0.500000       0.000000
      0.331305       0.575221       0.000000
      0.258747       0.595248       0.000000
      0.252241       0.500000       0.000000
      0.407483       0.554195       0.000000
      0.428341       0.602631       0.000000
      0.351758       0.643878       0.000000
      0.331305       0.575221       0.000000
      0.428341       0.602631       0.000000
      0.458579       0.641421       0.000000
      0.382149       0.701184       0.000000
      0.351758       0.643878       0.000000
      0.331305       0.575221       0.000000
      0.351758       0.643878       0.000000
      0.277372       0.683942       0.000000
      0.258747       0.595248       0.000000
      0.351758       0.643878       0.000000
      0.382149       0.701184       0.000000
      0.305719       0.760948       0.000000
      0.277372       0.683942       0.000000
      0.305719       0.239052       0.000000
      0.277372       0.316058       0.000000
      0.205089       0.277126       0.000000
      0.229289       0.179289       0.000000
      0.277372       0.316058       0.000000
      0.258747       0.404752       0.000000
      0.189557       0.385654       0.000000
      0.205089       0.277126       0.000000
      0.229289       0.179289       0.000000
      0.205089       0.277126       0.000000
      0.134820       0.239280       0.000000
      0.152860       0.119526       0.000000
      0.205089       0.277126       0.000000
      0.189557       0.385654       0.000000
      0.123505       0.367423       0.000000
      0.134820       0.239280       0.000000
      0.258747       0.404752       0.000000
      0.252241       0.500000       0.000000
      0.184198       0.500000       0.000000
      0.189557       0.385654       0.000000
      0.252241       0.500000       0.000000
      0.258747       0.595248       0.000000
      0.189557       0.614346       0.000000
      0.184198       0.500000       0.000000
      0.189557       0.385654       0.000000
      0.184198       0.500000       0.000000
      0.119648       0.500000       0.000000
      0.123505       0.367423       0.000000
[...]
POINT_DATA   576
VECTORS U float 
      0.000424       0.005498       0.000000
      0.000218       0.005876       0.000000
      0.000037       0.005588       0.000000
      0.000275       0.005100       0.000000
      0.000218       0.005876       0.000000
      0.000005       0.006128       0.000000
     -0.000119       0.006018       0.000000
      0.000037       0.005588       0.000000
      0.000275       0.005100       0.000000
      0.000037       0.005588       0.000000
      0.000059       0.005555       0.000000
      0.000343       0.005139       0.000000
      0.000037       0.005588       0.000000
     -0.000119       0.006018       0.000000
     -0.000136       0.005970       0.000000
      0.000059       0.005555       0.000000
      0.000005       0.006128       0.000000
     -0.000215       0.006231       0.000000
     -0.000202       0.006258       0.000000
     -0.000119       0.006018       0.000000
     -0.000215       0.006231       0.000000
     -0.000454       0.006179       0.000000
     -0.000282       0.006218       0.000000
     -0.000202       0.006258       0.000000
     -0.000119       0.006018       0.000000
     -0.000202       0.006258       0.000000
     -0.000201       0.006254       0.000000
     -0.000136       0.005970       0.000000
     -0.000202       0.006258       0.000000
     -0.000282       0.006218       0.000000
     -0.000212       0.006244       0.000000
     -0.000201       0.006254       0.000000
     -0.000454       0.006179       0.000000
     -0.000727       0.005972       0.000000
     -0.000428       0.005901       0.000000
     -0.000282       0.006218       0.000000
     -0.000727       0.005972       0.000000
     -0.001028       0.005626       0.000000
     -0.000685       0.005409       0.000000
     -0.000428       0.005901       0.000000
     -0.000282       0.006218       0.000000
     -0.000428       0.005901       0.000000
     -0.000304       0.005921       0.000000
     -0.000212       0.006244       0.000000
     -0.000428       0.005901       0.000000
     -0.000685       0.005409       0.000000
     -0.000542       0.005431       0.000000
     -0.000304       0.005921       0.000000
      0.000343       0.005139       0.000000
      0.000059       0.005555       0.000000
      0.000123       0.005666       0.000000
      0.000446       0.005347       0.000000
      0.000059       0.005555       0.000000
     -0.000136       0.005970       0.000000
     -0.000117       0.006004       0.000000
      0.000123       0.005666       0.000000
      0.000446       0.005347       0.000000
      0.000123       0.005666       0.000000
      0.000202       0.005864       0.000000
      0.000568       0.005639       0.000000
      0.000123       0.005666       0.000000
     -0.000117       0.006004       0.000000
     -0.000087       0.006099       0.000000
      0.000202       0.005864       0.000000
     -0.000136       0.005970       0.000000
     -0.000201       0.006254       0.000000
     -0.000196       0.006267       0.000000
     -0.000117       0.006004       0.000000
     -0.000201       0.006254       0.000000
     -0.000212       0.006244       0.000000
     -0.000174       0.006278       0.000000
     -0.000196       0.006267       0.000000
     -0.000117       0.006004       0.000000
     -0.000196       0.006267       0.000000
     -0.000190       0.006303       0.000000
     -0.000087       0.006099       0.000000
     -0.000196       0.006267       0.000000
     -0.000174       0.006278       0.000000
     -0.000152       0.006322       0.000000
     -0.000190       0.006303       0.000000
     -0.000212       0.006244       0.000000
     -0.000304       0.005921       0.000000
     -0.000238       0.005992       0.000000
     -0.000174       0.006278       0.000000
     -0.000304       0.005921       0.000000
     -0.000542       0.005431       0.000000
     -0.000465       0.005550       0.000000
     -0.000238       0.005992       0.000000
     -0.000174       0.006278       0.000000
     -0.000238       0.005992       0.000000
     -0.000202       0.006101       0.000000
     -0.000152       0.006322       0.000000
     -0.000238       0.005992       0.000000
     -0.000465       0.005550       0.000000
     -0.000443       0.005750       0.000000
     -0.000202       0.006101       0.000000
      0.000568       0.005639       0.000000
      0.000202       0.005864       0.000000
      0.000301       0.006120       0.000000
      0.000729       0.005991       0.000000
      0.000202       0.005864       0.000000
     -0.000087       0.006099       0.000000
     -0.000047       0.006241       0.000000
      0.000301       0.006120       0.000000
      0.000729       0.005991       0.000000
      0.000301       0.006120       0.000000
      0.000431       0.006422       0.000000
      0.000956       0.006422       0.000000
      0.000301       0.006120       0.000000
     -0.000047       0.006241       0.000000
      0.000006       0.006422       0.000000
      0.000431       0.006422       0.000000
     -0.000087       0.006099       0.000000
     -0.000190       0.006303       0.000000
     -0.000185       0.006355       0.000000
     -0.000047       0.006241       0.000000
     -0.000190       0.006303       0.000000
     -0.000152       0.006322       0.000000
     -0.000140       0.006371       0.000000
     -0.000185       0.006355       0.000000
     -0.000047       0.006241       0.000000
     -0.000185       0.006355       0.000000
     -0.000182       0.006422       0.000000
      0.000006       0.006422       0.000000
     -0.000185       0.006355       0.000000
     -0.000140       0.006371       0.000000
     -0.000136       0.006422       0.000000
     -0.000182       0.006422       0.000000
     -0.000152       0.006322       0.000000
     -0.000202       0.006101       0.000000
     -0.000192       0.006244       0.000000
     -0.000140       0.006371       0.000000
     -0.000202       0.006101       0.000000
     -0.000443       0.005750       0.000000
     -0.000482       0.006041       0.000000
     -0.000192       0.006244       0.000000
     -0.000140       0.006371       0.000000
     -0.000192       0.006244       0.000000
     -0.000206       0.006422       0.000000
     -0.000136       0.006422       0.000000
     -0.000192       0.006244       0.000000
     -0.000482       0.006041       0.000000
     -0.000582       0.006422       0.000000
     -0.000206       0.006422       0.000000
      0.000371       0.000797       0.000000
      0.000568       0.001293       0.000000
      0.000545       0.001725       0.000000
      0.000222       0.001176       0.000000
      0.000568       0.001293       0.000000
      0.000723       0.002011       0.000000
      0.000914       0.002392       0.000000
      0.000545       0.001725       0.000000
      0.000222       0.001176       0.000000
      0.000545       0.001725       0.000000
      0.000620       0.001744       0.000000
      0.000262       0.001134       0.000000
      0.000545       0.001725       0.000000
      0.000914       0.002392       0.000000
      0.001032       0.002453       0.000000
      0.000620       0.001744       0.000000
      0.000723       0.002011       0.000000
      0.000751       0.003121       0.000000
      0.001122       0.003137       0.000000
      0.000914       0.002392       0.000000
      0.000751       0.003121       0.000000
      0.000751       0.004246       0.000000
      0.000950       0.003879       0.000000
      0.001122       0.003137       0.000000
      0.000914       0.002392       0.000000
      0.001122       0.003137       0.000000
      0.001252       0.003147       0.000000
      0.001032       0.002453       0.000000
      0.001122       0.003137       0.000000
      0.000950       0.003879       0.000000
      0.001070       0.003832       0.000000
      0.001252       0.003147       0.000000
      0.000751       0.004246       0.000000
      0.000617       0.004981       0.000000
      0.000599       0.004542       0.000000
      0.000950       0.003879       0.000000
      0.000617       0.004981       0.000000
      0.000424       0.005498       0.000000
      0.000275       0.005100       0.000000
      0.000599       0.004542       0.000000
      0.000950       0.003879       0.000000
      0.000599       0.004542       0.000000
      0.000687       0.004527       0.000000
      0.001070       0.003832       0.000000
      0.000599       0.004542       0.000000
      0.000275       0.005100       0.000000
      0.000343       0.005139       0.000000
      0.000687       0.004527       0.000000
      0.000262       0.001134       0.000000
      0.000620       0.001744       0.000000
      0.000708       0.001636       0.000000
      0.000307       0.000931       0.000000
      0.000620       0.001744       0.000000
      0.001032       0.002453       0.000000
      0.001148       0.002420       0.000000
      0.000708       0.001636       0.000000
      0.000307       0.000931       0.000000
      0.000708       0.001636       0.000000
      0.000787       0.001508       0.000000
      0.000316       0.000665       0.000000
      0.000708       0.001636       0.000000
      0.001148       0.002420       0.000000
      0.001265       0.002377       0.000000
      0.000787       0.001508       0.000000
      0.001032       0.002453       0.000000
      0.001252       0.003147       0.000000
      0.001371       0.003158       0.000000
      0.001148       0.002420       0.000000
      0.001252       0.003147       0.000000
      0.001070       0.003832       0.000000
      0.001188       0.003888       0.000000
      0.001371       0.003158       0.000000
      0.001148       0.002420       0.000000
      0.001371       0.003158       0.000000
      0.001499       0.003171       0.000000
      0.001265       0.002377       0.000000
      0.001371       0.003158       0.000000
      0.001188       0.003888       0.000000
      0.001308       0.003960       0.000000
      0.001499       0.003171       0.000000
      0.001070       0.003832       0.000000
      0.000687       0.004527       0.000000
      0.000793       0.004651       0.000000
      0.001188       0.003888       0.000000
      0.000687       0.004527       0.000000
      0.000343       0.005139       0.000000
      0.000446       0.005347       0.000000
      0.000793       0.004651       0.000000
      0.001188       0.003888       0.000000
      0.000793       0.004651       0.000000
      0.000900       0.004812       0.000000
      0.001308       0.003960       0.000000
      0.000793       0.004651       0.000000
      0.000446       0.005347       0.000000
      0.000568       0.005639       0.000000
      0.000900       0.004812       0.000000
      0.000316       0.000665       0.000000
      0.000787       0.001508       0.000000
      0.000855       0.001412       0.000000
      0.000256       0.000366       0.000000
      0.000787       0.001508       0.000000
      0.001265       0.002377       0.000000
      0.001375       0.002365       0.000000
      0.000855       0.001412       0.000000
      0.000256       0.000366       0.000000
      0.000855       0.001412       0.000000
      0.000915       0.001369       0.000000
      0.000000       0.000000       0.000000
      0.000855       0.001412       0.000000
      0.001375       0.002365       0.000000
      0.001471       0.002406       0.000000
      0.000915       0.001369       0.000000
      0.001265       0.002377       0.000000
      0.001499       0.003171       0.000000
      0.001630       0.003184       0.000000
      0.001375       0.002365       0.000000
      0.001499       0.003171       0.000000
      0.001308       0.003960       0.000000
      0.001425       0.004008       0.000000
      0.001630       0.003184       0.000000
      0.001375       0.002365       0.000000
      0.001630       0.003184       0.000000
      0.001749       0.003195       0.000000
      0.001471       0.002406       0.000000
      0.001630       0.003184       0.000000
      0.001425       0.004008       0.000000
      0.001534       0.004000       0.000000
      0.001749       0.003195       0.000000
      0.001308       0.003960       0.000000
      0.000900       0.004812       0.000000
      0.001007       0.004967       0.000000
      0.001425       0.004008       0.000000
      0.000900       0.004812       0.000000
      0.000568       0.005639       0.000000
      0.000729       0.005991       0.000000
      0.001007       0.004967       0.000000
      0.001425       0.004008       0.000000
      0.001007       0.004967       0.000000
      0.001131       0.005106       0.000000
      0.001534       0.004000       0.000000
      0.001007       0.004967       0.000000
      0.000729       0.005991       0.000000
      0.000956       0.006422       0.000000
      0.001131       0.005106       0.000000
     -0.000965       0.000740       0.000000
     -0.000660       0.000395       0.000000
     -0.000351       0.000472       0.000000
     -0.000607       0.000965       0.000000
     -0.000660       0.000395       0.000000
     -0.000397       0.000192       0.000000
     -0.000220       0.000162       0.000000
     -0.000351       0.000472       0.000000
     -0.000607       0.000965       0.000000
     -0.000351       0.000472       0.000000
     -0.000203       0.000459       0.000000
     -0.000439       0.000952       0.000000
     -0.000351       0.000472       0.000000
     -0.000220       0.000162       0.000000
     -0.000131       0.000146       0.000000
     -0.000203       0.000459       0.000000
     -0.000397       0.000192       0.000000
     -0.000187       0.000136       0.000000
     -0.000166       0.000116       0.000000
     -0.000220       0.000162       0.000000
     -0.000187       0.000136       0.000000
     -0.000004       0.000222       0.000000
     -0.000115       0.000324       0.000000
     -0.000166       0.000116       0.000000
     -0.000220       0.000162       0.000000
     -0.000166       0.000116       0.000000
     -0.000153       0.000127       0.000000
     -0.000131       0.000146       0.000000
     -0.000166       0.000116       0.000000
     -0.000115       0.000324       0.000000
     -0.000134       0.000371       0.000000
     -0.000153       0.000127       0.000000
     -0.000004       0.000222       0.000000
      0.000179       0.000447       0.000000
      0.000007       0.000715       0.000000
     -0.000115       0.000324       0.000000
      0.000179       0.000447       0.000000
      0.000371       0.000797       0.000000
      0.000222       0.001176       0.000000
      0.000007       0.000715       0.000000
     -0.000115       0.000324       0.000000
      0.000007       0.000715       0.000000
      0.000010       0.000742       0.000000
     -0.000134       0.000371       0.000000
      0.000007       0.000715       0.000000
      0.000222       0.001176       0.000000
      0.000262       0.001134       0.000000
      0.000010       0.000742       0.000000
     -0.000439       0.000952       0.000000
     -0.000203       0.000459       0.000000
     -0.000105       0.000393       0.000000
     -0.000327       0.000838       0.000000
     -0.000203       0.000459       0.000000
     -0.000131       0.000146       0.000000
     -0.000071       0.000123       0.000000
     -0.000105       0.000393       0.000000
     -0.000327       0.000838       0.000000
     -0.000105       0.000393       0.000000
     -0.000037       0.000288       0.000000
     -0.000256       0.000642       0.000000
     -0.000105       0.000393       0.000000
     -0.000071       0.000123       0.000000
     -0.000028       0.000092       0.000000
     -0.000037       0.000288       0.000000
     -0.000131       0.000146       0.000000
     -0.000153       0.000127       0.000000
     -0.000134       0.000123       0.000000
     -0.000071       0.000123       0.000000
     -0.000153       0.000127       0.000000
     -0.000134       0.000371       0.000000
     -0.000121       0.000341       0.000000
     -0.000134       0.000123       0.000000
     -0.000071       0.000123       0.000000
     -0.000134       0.000123       0.000000
     -0.000106       0.000099       0.000000
     -0.000028       0.000092       0.000000
     -0.000134       0.000123       0.000000
     -0.000121       0.000341       0.000000
     -0.000093       0.000256       0.000000
     -0.000106       0.000099       0.000000
     -0.000134       0.000371       0.000000
      0.000010       0.000742       0.000000
      0.000038       0.000631       0.000000
     -0.000121       0.000341       0.000000
      0.000010       0.000742       0.000000
      0.000262       0.001134       0.000000
      0.000307       0.000931       0.000000
      0.000038       0.000631       0.000000
     -0.000121       0.000341       0.000000
      0.000038       0.000631       0.000000
      0.000057       0.000445       0.000000
     -0.000093       0.000256       0.000000
      0.000038       0.000631       0.000000
      0.000307       0.000931       0.000000
      0.000316       0.000665       0.000000
      0.000057       0.000445       0.000000
     -0.000256       0.000642       0.000000
     -0.000037       0.000288       0.000000
      0.000001       0.000153       0.000000
     -0.000199       0.000359       0.000000
     -0.000037       0.000288       0.000000
     -0.000028       0.000092       0.000000
     -0.000003       0.000051       0.000000
      0.000001       0.000153       0.000000
     -0.000199       0.000359       0.000000
      0.000001       0.000153       0.000000
      0.000000       0.000000       0.000000
      0.000000       0.000000       0.000000
      0.000001       0.000153       0.000000
     -0.000003       0.000051       0.000000
      0.000000       0.000000       0.000000
      0.000000       0.000000       0.000000
     -0.000028       0.000092       0.000000
     -0.000106       0.000099       0.000000
     -0.000065       0.000058       0.000000
     -0.000003       0.000051       0.000000
     -0.000106       0.000099       0.000000
     -0.000093       0.000256       0.000000
     -0.000052       0.000136       0.000000
     -0.000065       0.000058       0.000000
     -0.000003       0.000051       0.000000
     -0.000065       0.000058       0.000000
      0.000000       0.000000       0.000000
      0.000000       0.000000       0.000000
     -0.000065       0.000058       0.000000
     -0.000052       0.000136       0.000000
      0.000000       0.000000       0.000000
      0.000000       0.000000       0.000000
     -0.000093       0.000256       0.000000
      0.000057       0.000445       0.000000
      0.000049       0.000225       0.000000
     -0.000052       0.000136       0.000000
      0.000057       0.000445       0.000000
      0.000316       0.000665       0.000000
      0.000256       0.000366       0.000000
      0.000049       0.000225       0.000000
     -0.000052       0.000136       0.000000
      0.000049       0.000225       0.000000
      0.000000       0.000000       0.000000
      0.000000       0.000000       0.000000
      0.000049       0.000225       0.000000
      0.000256       0.000366       0.000000
      0.000000       0.000000       0.000000
      0.000000       0.000000       0.000000
     -0.000965       0.000740       0.000000
     -0.001305       0.001241       0.000000
     -0.001066       0.001503       0.000000
     -0.000607       0.000965       0.000000
     -0.001305       0.001241       0.000000
     -0.001610       0.001974       0.000000
     -0.001640       0.002196       0.000000
     -0.001066       0.001503       0.000000
     -0.000607       0.000965       0.000000
     -0.001066       0.001503       0.000000
     -0.000922       0.001545       0.000000