# vtk DataFile Version 2.0
time_10.vtk
ASCII
DATASET UNSTRUCTURED_GRID
POINTS   576 float
      0.458579       0.641421       0.000000
      0.497369       0.671659       0.000000
      0.438243       0.730363       0.000000
      0.382149       0.701184       0.000000
      0.497369       0.671659       0.000000
      0.545805       0.692517       0.000000
      0.506084       0.750000       0.000000
      0.438243       0.730363       0.000000
      0.382149       0.701184       0.000000
      0.438243       0.730363       0.000000
      0.380813       0.787383       0.000000
      0.305719       0.760948       0.000000
      0.438243       0.730363       0.000000
      0.506084       0.750000       0.000000
      0.468251       0.804752       0.000000
      0.380813       0.787383       0.000000
      0.545805       0.692517       0.000000
      0.600000       0.700000       0.000000
      0.581017       0.756950       0.000000
      0.506084       0.750000       0.000000
      0.600000       0.700000       0.000000
      0.654195       0.692517       0.000000
      0.656527       0.750000       0.000000
      0.581017       0.756950       0.000000
      0.506084       0.750000       0.000000
      0.581017       0.756950       0.000000
      0.563060       0.810819       0.000000
      0.468251       0.804752       0.000000
      0.581017       0.756950       0.000000
      0.656527       0.750000       0.000000
      0.658747       0.804752       0.000000
      0.563060       0.810819       0.000000
      0.654195       0.692517       0.000000
      0.702631       0.671659       0.000000
      0.725999       0.730363       0.000000
      0.656527       0.750000       0.000000
      0.702631       0.671659       0.000000
      0.741421       0.641421       0.000000
      0.784518       0.701184       0.000000
      0.725999       0.730363       0.000000
      0.656527       0.750000       0.000000
      0.725999       0.730363       0.000000
      0.748697       0.787383       0.000000
      0.658747       0.804752       0.000000
      0.725999       0.730363       0.000000
      0.784518       0.701184       0.000000
      0.827614       0.760948       0.000000
      0.748697       0.787383       0.000000
      0.305719       0.760948       0.000000
      0.380813       0.787383       0.000000
      0.325006       0.842791       0.000000
      0.229289       0.820711       0.000000
      0.380813       0.787383       0.000000
      0.468251       0.804752       0.000000
      0.432173       0.856962       0.000000
      0.325006       0.842791       0.000000
      0.229289       0.820711       0.000000
      0.325006       0.842791       0.000000
      0.270755       0.896655       0.000000
      0.152860       0.880474       0.000000
      0.325006       0.842791       0.000000
      0.432173       0.856962       0.000000
      0.397732       0.906804       0.000000
      0.270755       0.896655       0.000000
      0.468251       0.804752       0.000000
      0.563060       0.810819       0.000000
      0.546050       0.861851       0.000000
      0.432173       0.856962       0.000000
      0.563060       0.810819       0.000000
      0.658747       0.804752       0.000000
      0.660865       0.856962       0.000000
      0.546050       0.861851       0.000000
      0.432173       0.856962       0.000000
      0.546050       0.861851       0.000000
      0.529912       0.910264       0.000000
      0.397732       0.906804       0.000000
      0.546050       0.861851       0.000000
      0.660865       0.856962       0.000000
      0.662887       0.906804       0.000000
      0.529912       0.910264       0.000000
      0.658747       0.804752       0.000000
      0.748697       0.787383       0.000000
      0.770753       0.842791       0.000000
      0.660865       0.856962       0.000000
      0.748697       0.787383       0.000000
      0.827614       0.760948       0.000000
      0.870711       0.820711       0.000000
      0.770753       0.842791       0.000000
      0.660865       0.856962       0.000000
      0.770753       0.842791       0.000000
      0.792195       0.896655       0.000000
      0.662887       0.906804       0.000000
      0.770753       0.842791       0.000000
      0.870711       0.820711       0.000000
      0.913807       0.880474       0.000000
      0.792195       0.896655       0.000000
      0.152860       0.880474       0.000000
      0.270755       0.896655       0.000000
      0.217995       0.949038       0.000000
      0.076430       0.940237       0.000000
      0.270755       0.896655       0.000000
      0.397732       0.906804       0.000000
      0.364819       0.954435       0.000000
      0.217995       0.949038       0.000000
      0.076430       0.940237       0.000000
      0.217995       0.949038       0.000000
      0.166667       1.000000       0.000000
      0.000000       1.000000       0.000000
      0.217995       0.949038       0.000000
      0.364819       0.954435       0.000000
      0.333333       1.000000       0.000000
      0.166667       1.000000       0.000000
      0.397732       0.906804       0.000000
      0.529912       0.910264       0.000000
      0.514582       0.956255       0.000000
      0.364819       0.954435       0.000000
      0.529912       0.910264       0.000000
      0.662887       0.906804       0.000000
      0.664819       0.954435       0.000000
      0.514582       0.956255       0.000000
      0.364819       0.954435       0.000000
      0.514582       0.956255       0.000000
      0.500000       1.000000       0.000000
      0.333333       1.000000       0.000000
      0.514582       0.956255       0.000000
      0.664819       0.954435       0.000000
      0.666667       1.000000       0.000000
      0.500000       1.000000       0.000000
      0.662887       0.906804       0.000000
      0.792195       0.896655       0.000000
      0.813047       0.949038       0.000000
      0.664819       0.954435       0.000000
      0.792195       0.896655       0.000000
      0.913807       0.880474       0.000000
      0.956904       0.940237       0.000000
      0.813047       0.949038       0.000000
      0.664819       0.954435       0.000000
      0.813047       0.949038       0.000000
      0.833333       1.000000       0.000000
      0.666667       1.000000       0.000000
      0.813047       0.949038       0.000000
      0.956904       0.940237       0.000000
      1.000000       1.000000       0.000000
      0.833333       1.000000       0.000000
      0.458579       0.358579       0.000000
      0.428341       0.397369       0.000000
      0.351758       0.356122       0.000000
      0.382149       0.298816       0.000000
      0.428341       0.397369       0.000000
      0.407483       0.445805       0.000000
      0.331305       0.424779       0.000000
      0.351758       0.356122       0.000000
      0.382149       0.298816       0.000000
      0.351758       0.356122       0.000000
      0.277372       0.316058       0.000000
      0.305719       0.239052       0.000000
      0.351758       0.356122       0.000000
      0.331305       0.424779       0.000000
      0.258747       0.404752       0.000000
      0.277372       0.316058       0.000000
      0.407483       0.445805       0.000000
      0.400000       0.500000       0.000000
      0.324066       0.500000       0.000000
      0.331305       0.424779       0.000000
      0.400000       0.500000       0.000000
      0.407483       0.554195       0.000000
      0.331305       0.575221       0.000000
      0.324066       0.500000       0.000000
      0.331305       0.424779       0.000000
      0.324066       0.500000       0.000000
      0.252241       0.500000       0.000000
      0.258747       0.404752       0.000000
      0.324066       0.500000       0.000000
      0.331305       0.575221       0.000000
      0.258747       0.595248       0.000000
      0.252241       0.500000       0.000000
      0.407483       0.554195       0.000000
      0.428341       0.602631       0.000000
      0.351758       0.643878       0.000000
      0.331305       0.575221       0.000000
      0.428341       0.602631       0.000000
      0.458579       0.641421       0.000000
      0.382149       0.701184       0.000000
      0.351758       0.643878       0.000000
      0.331305       0.575221       0.000000
      0.351758       0.643878       0.000000
      0.277372       0.683942       0.000000
      0.258747       0.595248       0.000000
      0.351758       0.643878       0.000000
      0.382149       0.701184       0.000000
      0.305719       0.760948       0.000000
      0.277372       0.683942       0.000000
      0.305719       0.239052       0.000000
      0.277372       0.316058       0.000000
      0.205089       0.277126       0.000000
      0.229289       0.179289       0.000000
      0.277372       0.316058       0.000000
      0.258747       0.404752       0.000000
      0.189557       0.385654       0.000000
      0.205089       0.277126       0.000000
      0.229289       0.179289       0.000000
      0.205089       0.277126       0.000000
      0.134820       0.239280       0.000000
      0.152860       0.119526       0.000000
      0.205089       0.277126       0.000000
      0.189557       0.385654       0.000000
      0.123505       0.367423       0.000000
      0.134820       0.239280       0.000000
      0.258747       0.404752       0.000000
      0.252241       0.500000       0.000000
      0.184198       0.500000       0.000000
      0.189557       0.385654       0.000000
      0.252241       0.500000       0.000000
      0.258747       0.595248       0.000000
      0.189557       0.614346       0.000000
      0.184198       0.500000       0.000000
      0.189557       0.385654       0.000000
      0.184198       0.500000       0.000000
      0.119648       0.500000       0.000000
      0.123505       0.367423       0.000000
[...]
POINT_DATA   576
VECTORS U float 
      0.000358       0.004658       0.000000
      0.000185       0.004998       0.000000
      0.000031       0.004745       0.000000
      0.000239       0.004319       0.000000
      0.000185       0.004998       0.000000
      0.000001       0.005225       0.000000
     -0.000107       0.005126       0.000000
      0.000031       0.004745       0.000000
      0.000239       0.004319       0.000000
      0.000031       0.004745       0.000000
      0.000057       0.004724       0.000000
      0.000304       0.004370       0.000000
      0.000031       0.004745       0.000000
     -0.000107       0.005126       0.000000
     -0.000118       0.005087       0.000000
      0.000057       0.004724       0.000000
      0.000001       0.005225       0.000000
     -0.000191       0.005318       0.000000
     -0.000179       0.005341       0.000000
     -0.000107       0.005126       0.000000
     -0.000191       0.005318       0.000000
     -0.000400       0.005269       0.000000
     -0.000249       0.005303       0.000000
     -0.000179       0.005341       0.000000
     -0.000107       0.005126       0.000000
     -0.000179       0.005341       0.000000
     -0.000178       0.005339       0.000000
     -0.000118       0.005087       0.000000
     -0.000179       0.005341       0.000000
     -0.000249       0.005303       0.000000
     -0.000189       0.005329       0.000000
     -0.000178       0.005339       0.000000
     -0.000400       0.005269       0.000000
     -0.000635       0.005080       0.000000
     -0.000377       0.005019       0.000000
     -0.000249       0.005303       0.000000
     -0.000635       0.005080       0.000000
     -0.000890       0.004765       0.000000
     -0.000602       0.004582       0.000000
     -0.000377       0.005019       0.000000
     -0.000249       0.005303       0.000000
     -0.000377       0.005019       0.000000
     -0.000274       0.005042       0.000000
     -0.000189       0.005329       0.000000
     -0.000377       0.005019       0.000000
     -0.000602       0.004582       0.000000
     -0.000486       0.004615       0.000000
     -0.000274       0.005042       0.000000
      0.000304       0.004370       0.000000
      0.000057       0.004724       0.000000
      0.000118       0.004831       0.000000
      0.000399       0.004565       0.000000
      0.000057       0.004724       0.000000
     -0.000118       0.005087       0.000000
     -0.000098       0.005122       0.000000
      0.000118       0.004831       0.000000
      0.000399       0.004565       0.000000
      0.000118       0.004831       0.000000
      0.000191       0.005011       0.000000
      0.000509       0.004827       0.000000
      0.000118       0.004831       0.000000
     -0.000098       0.005122       0.000000
     -0.000067       0.005210       0.000000
      0.000191       0.005011       0.000000
     -0.000118       0.005087       0.000000
     -0.000178       0.005339       0.000000
     -0.000172       0.005354       0.000000
     -0.000098       0.005122       0.000000
     -0.000178       0.005339       0.000000
     -0.000189       0.005329       0.000000
     -0.000158       0.005363       0.000000
     -0.000172       0.005354       0.000000
     -0.000098       0.005122       0.000000
     -0.000172       0.005354       0.000000
     -0.000165       0.005389       0.000000
     -0.000067       0.005210       0.000000
     -0.000172       0.005354       0.000000
     -0.000158       0.005363       0.000000
     -0.000139       0.005406       0.000000
     -0.000165       0.005389       0.000000
     -0.000189       0.005329       0.000000
     -0.000274       0.005042       0.000000
     -0.000220       0.005111       0.000000
     -0.000158       0.005363       0.000000
     -0.000274       0.005042       0.000000
     -0.000486       0.004615       0.000000
     -0.000424       0.004730       0.000000
     -0.000220       0.005111       0.000000
     -0.000158       0.005363       0.000000
     -0.000220       0.005111       0.000000
     -0.000191       0.005212       0.000000
     -0.000139       0.005406       0.000000
     -0.000220       0.005111       0.000000
     -0.000424       0.004730       0.000000
     -0.000407       0.004911       0.000000
     -0.000191       0.005212       0.000000
      0.000509       0.004827       0.000000
      0.000191       0.005011       0.000000
      0.000282       0.005239       0.000000
      0.000651       0.005135       0.000000
      0.000191       0.005011       0.000000
     -0.000067       0.005210       0.000000
     -0.000029       0.005340       0.000000
      0.000282       0.005239       0.000000
      0.000651       0.005135       0.000000
      0.000282       0.005239       0.000000
      0.000396       0.005502       0.000000
      0.000843       0.005502       0.000000
      0.000282       0.005239       0.000000
     -0.000029       0.005340       0.000000
      0.000019       0.005502       0.000000
      0.000396       0.005502       0.000000
     -0.000067       0.005210       0.000000
     -0.000165       0.005389       0.000000
     -0.000160       0.005439       0.000000
     -0.000029       0.005340       0.000000
     -0.000165       0.005389       0.000000
     -0.000139       0.005406       0.000000
     -0.000129       0.005453       0.000000
     -0.000160       0.005439       0.000000
     -0.000029       0.005340       0.000000
     -0.000160       0.005439       0.000000
     -0.000157       0.005502       0.000000
      0.000019       0.005502       0.000000
     -0.000160       0.005439       0.000000
     -0.000129       0.005453       0.000000
     -0.000125       0.005502       0.000000
     -0.000157       0.005502       0.000000
     -0.000139       0.005406       0.000000
     -0.000191       0.005212       0.000000
     -0.000183       0.005342       0.000000
     -0.000129       0.005453       0.000000
     -0.000191       0.005212       0.000000
     -0.000407       0.004911       0.000000
     -0.000441       0.005168       0.000000
     -0.000183       0.005342       0.000000
     -0.000129       0.005453       0.000000
     -0.000183       0.005342       0.000000
     -0.000196       0.005502       0.000000
     -0.000125       0.005502       0.000000
     -0.000183       0.005342       0.000000
     -0.000441       0.005168       0.000000
     -0.000529       0.005502       0.000000
     -0.000196       0.005502       0.000000
      0.000311       0.000729       0.000000
      0.000473       0.001176       0.000000
      0.000465       0.001530       0.000000
      0.000190       0.001054       0.000000
      0.000473       0.001176       0.000000
      0.000600       0.001813       0.000000
      0.000766       0.002090       0.000000
      0.000465       0.001530       0.000000
      0.000190       0.001054       0.000000
      0.000465       0.001530       0.000000
      0.000531       0.001523       0.000000
      0.000228       0.001002       0.000000
      0.000465       0.001530       0.000000
      0.000766       0.002090       0.000000
      0.000865       0.002116       0.000000
      0.000531       0.001523       0.000000
      0.000600       0.001813       0.000000
      0.000643       0.002674       0.000000
      0.000922       0.002687       0.000000
      0.000766       0.002090       0.000000
      0.000643       0.002674       0.000000
      0.000624       0.003542       0.000000
      0.000798       0.003280       0.000000
      0.000922       0.002687       0.000000
      0.000766       0.002090       0.000000
      0.000922       0.002687       0.000000
      0.001036       0.002696       0.000000
      0.000865       0.002116       0.000000
      0.000922       0.002687       0.000000
      0.000798       0.003280       0.000000
      0.000899       0.003269       0.000000
      0.001036       0.002696       0.000000
      0.000624       0.003542       0.000000
      0.000516       0.004193       0.000000
      0.000514       0.003837       0.000000
      0.000798       0.003280       0.000000
      0.000516       0.004193       0.000000
      0.000358       0.004658       0.000000
      0.000239       0.004319       0.000000
      0.000514       0.003837       0.000000
      0.000798       0.003280       0.000000
      0.000514       0.003837       0.000000
      0.000591       0.003850       0.000000
      0.000899       0.003269       0.000000
      0.000514       0.003837       0.000000
      0.000239       0.004319       0.000000
      0.000304       0.004370       0.000000
      0.000591       0.003850       0.000000
      0.000228       0.001002       0.000000
      0.000531       0.001523       0.000000
      0.000605       0.001417       0.000000
      0.000270       0.000815       0.000000
      0.000531       0.001523       0.000000
      0.000865       0.002116       0.000000
      0.000964       0.002078       0.000000
      0.000605       0.001417       0.000000
      0.000270       0.000815       0.000000
      0.000605       0.001417       0.000000
      0.000674       0.001297       0.000000
      0.000278       0.000578       0.000000
      0.000605       0.001417       0.000000
      0.000964       0.002078       0.000000
      0.001065       0.002036       0.000000
      0.000674       0.001297       0.000000
      0.000865       0.002116       0.000000
      0.001036       0.002696       0.000000
      0.001142       0.002707       0.000000
      0.000964       0.002078       0.000000
      0.001036       0.002696       0.000000
      0.000899       0.003269       0.000000
      0.001001       0.003328       0.000000
      0.001142       0.002707       0.000000
      0.000964       0.002078       0.000000
      0.001142       0.002707       0.000000
      0.001255       0.002719       0.000000
      0.001065       0.002036       0.000000
      0.001142       0.002707       0.000000
      0.001001       0.003328       0.000000
      0.001106       0.003398       0.000000
      0.001255       0.002719       0.000000
      0.000899       0.003269       0.000000
      0.000591       0.003850       0.000000
      0.000685       0.003972       0.000000
      0.001001       0.003328       0.000000
      0.000591       0.003850       0.000000
      0.000304       0.004370       0.000000
      0.000399       0.004565       0.000000
      0.000685       0.003972       0.000000
      0.001001       0.003328       0.000000
      0.000685       0.003972       0.000000
      0.000779       0.004123       0.000000
      0.001106       0.003398       0.000000
      0.000685       0.003972       0.000000
      0.000399       0.004565       0.000000
      0.000509       0.004827       0.000000
      0.000779       0.004123       0.000000
      0.000278       0.000578       0.000000
      0.000674       0.001297       0.000000
      0.000734       0.001206       0.000000
      0.000225       0.000317       0.000000
      0.000674       0.001297       0.000000
      0.001065       0.002036       0.000000
      0.001161       0.002020       0.000000
      0.000734       0.001206       0.000000
      0.000225       0.000317       0.000000
      0.000734       0.001206       0.000000
      0.000786       0.001164       0.000000
      0.000000       0.000000       0.000000
      0.000734       0.001206       0.000000
      0.001161       0.002020       0.000000
      0.001247       0.002050       0.000000
      0.000786       0.001164       0.000000
      0.001065       0.002036       0.000000
      0.001255       0.002719       0.000000
      0.001370       0.002732       0.000000
      0.001161       0.002020       0.000000
      0.001255       0.002719       0.000000
      0.001106       0.003398       0.000000
      0.001209       0.003447       0.000000
      0.001370       0.002732       0.000000
      0.001161       0.002020       0.000000
      0.001370       0.002732       0.000000
      0.001475       0.002742       0.000000
      0.001247       0.002050       0.000000
      0.001370       0.002732       0.000000
      0.001209       0.003447       0.000000
      0.001305       0.003449       0.000000
      0.001475       0.002742       0.000000
      0.001106       0.003398       0.000000
      0.000779       0.004123       0.000000
      0.000876       0.004266       0.000000
      0.001209       0.003447       0.000000
      0.000779       0.004123       0.000000
      0.000509       0.004827       0.000000
      0.000651       0.005135       0.000000
      0.000876       0.004266       0.000000
      0.001209       0.003447       0.000000
      0.000876       0.004266       0.000000
      0.000985       0.004392       0.000000
      0.001305       0.003449       0.000000
      0.000876       0.004266       0.000000
      0.000651       0.005135       0.000000
      0.000843       0.005502       0.000000
      0.000985       0.004392       0.000000
     -0.000836       0.000684       0.000000
     -0.000576       0.000370       0.000000
     -0.000309       0.000437       0.000000
     -0.000533       0.000875       0.000000
     -0.000576       0.000370       0.000000
     -0.000350       0.000183       0.000000
     -0.000195       0.000157       0.000000
     -0.000309       0.000437       0.000000
     -0.000533       0.000875       0.000000
     -0.000309       0.000437       0.000000
     -0.000182       0.000420       0.000000
     -0.000394       0.000851       0.000000
     -0.000309       0.000437       0.000000
     -0.000195       0.000157       0.000000
     -0.000117       0.000141       0.000000
     -0.000182       0.000420       0.000000
     -0.000350       0.000183       0.000000
     -0.000167       0.000131       0.000000
     -0.000149       0.000114       0.000000
     -0.000195       0.000157       0.000000
     -0.000167       0.000131       0.000000
     -0.000009       0.000209       0.000000
     -0.000106       0.000301       0.000000
     -0.000149       0.000114       0.000000
     -0.000195       0.000157       0.000000
     -0.000149       0.000114       0.000000
     -0.000137       0.000122       0.000000
     -0.000117       0.000141       0.000000
     -0.000149       0.000114       0.000000
     -0.000106       0.000301       0.000000
     -0.000121       0.000340       0.000000
     -0.000137       0.000122       0.000000
     -0.000009       0.000209       0.000000
      0.000149       0.000412       0.000000
      0.000001       0.000649       0.000000
     -0.000106       0.000301       0.000000
      0.000149       0.000412       0.000000
      0.000311       0.000729       0.000000
      0.000190       0.001054       0.000000
      0.000001       0.000649       0.000000
     -0.000106       0.000301       0.000000
      0.000001       0.000649       0.000000
      0.000008       0.000666       0.000000
     -0.000121       0.000340       0.000000
      0.000001       0.000649       0.000000
      0.000190       0.001054       0.000000
      0.000228       0.001002       0.000000
      0.000008       0.000666       0.000000
     -0.000394       0.000851       0.000000
     -0.000182       0.000420       0.000000
     -0.000099       0.000357       0.000000
     -0.000298       0.000742       0.000000
     -0.000182       0.000420       0.000000
     -0.000117       0.000141       0.000000
     -0.000065       0.000117       0.000000
     -0.000099       0.000357       0.000000
     -0.000298       0.000742       0.000000
     -0.000099       0.000357       0.000000
     -0.000038       0.000260       0.000000
     -0.000235       0.000566       0.000000
     -0.000099       0.000357       0.000000
     -0.000065       0.000117       0.000000
     -0.000027       0.000086       0.000000
     -0.000038       0.000260       0.000000
     -0.000117       0.000141       0.000000
     -0.000137       0.000122       0.000000
     -0.000119       0.000116       0.000000
     -0.000065       0.000117       0.000000
     -0.000137       0.000122       0.000000
     -0.000121       0.000340       0.000000
     -0.000106       0.000310       0.000000
     -0.000119       0.000116       0.000000
     -0.000065       0.000117       0.000000
     -0.000119       0.000116       0.000000
     -0.000094       0.000093       0.000000
     -0.000027       0.000086       0.000000
     -0.000119       0.000116       0.000000
     -0.000106       0.000310       0.000000
     -0.000080       0.000231       0.000000
     -0.000094       0.000093       0.000000
     -0.000121       0.000340       0.000000
      0.000008       0.000666       0.000000
      0.000036       0.000562       0.000000
     -0.000106       0.000310       0.000000
      0.000008       0.000666       0.000000
      0.000228       0.001002       0.000000
      0.000270       0.000815       0.000000
      0.000036       0.000562       0.000000
     -0.000106       0.000310       0.000000
      0.000036       0.000562       0.000000
      0.000053       0.000394       0.000000
     -0.000080       0.000231       0.000000
      0.000036       0.000562       0.000000
      0.000270       0.000815       0.000000
      0.000278       0.000578       0.000000
      0.000053       0.000394       0.000000
     -0.000235       0.000566       0.000000
     -0.000038       0.000260       0.000000
     -0.000002       0.000137       0.000000
     -0.000180       0.000318       0.000000
     -0.000038       0.000260       0.000000
     -0.000027       0.000086       0.000000
     -0.000004       0.000048       0.000000
     -0.000002       0.000137       0.000000
     -0.000180       0.000318       0.000000
     -0.000002       0.000137       0.000000
      0.000000       0.000000       0.000000
      0.000000       0.000000       0.000000
     -0.000002       0.000137       0.000000
     -0.000004       0.000048       0.000000
      0.000000       0.000000       0.000000
      0.000000       0.000000       0.000000
     -0.000027       0.000086       0.000000
     -0.000094       0.000093       0.000000
     -0.000058       0.000054       0.000000
     -0.000004       0.000048       0.000000
     -0.000094       0.000093       0.000000
     -0.000080       0.000231       0.000000
     -0.000045       0.000122       0.000000
     -0.000058       0.000054       0.000000
     -0.000004       0.000048       0.000000
     -0.000058       0.000054       0.000000
      0.000000       0.000000       0.000000
      0.000000       0.000000       0.000000
     -0.000058       0.000054       0.000000
     -0.000045       0.000122       0.000000
      0.000000       0.000000       0.000000
      0.000000       0.000000       0.000000
     -0.000080       0.000231       0.000000
      0.000053       0.000394       0.000000
      0.000046       0.000199       0.000000
     -0.000045       0.000122       0.000000
      0.000053       0.000394       0.000000
      0.000278       0.000578       0.000000
      0.000225       0.000317       0.000000
      0.000046       0.000199       0.000000
     -0.000045       0.000122       0.000000
      0.000046       0.000199       0.000000
      0.000000       0.000000       0.000000
      0.000000       0.000000       0.000000
      0.000046       0.000199       0.000000
      0.000225       0.000317       0.000000
      0.000000       0.000000       0.000000
      0.000000       0.000000       0.000000
     -0.000836       0.000684       0.000000
     -0.001117       0.001140       0.000000
     -0.000925       0.001353       0.000000
     -0.000533       0.000875       0.000000
     -0.001117       0.001140       0.000000
     -0.001362       0.001802       0.000000
     -0.001401       0.001961       0.000000
     -0.000925       0.001353       0.000000
     -0.000533       0.000875       0.000000
     -0.000925       0.001353       0.000000
     -0.000810       0.001372       0.000000