# vtk DataFile Version 2.0
time_10.vtk
ASCII
DATASET UNSTRUCTURED_GRID
POINTS   840 float
      0.458579       0.641421       0.000000
      0.497369       0.671659       0.000000
      0.438243       0.730363       0.000000
      0.382149       0.701184       0.000000
      0.497369       0.671659       0.000000
      0.545805       0.692517       0.000000
      0.506084       0.750000       0.000000
      0.438243       0.730363       0.000000
      0.382149       0.701184       0.000000
      0.438243       0.730363       0.000000
      0.380813       0.787383       0.000000
      0.305719       0.760948       0.000000
      0.438243       0.730363       0.000000
      0.506084       0.750000       0.000000
      0.468251       0.804752       0.000000
      0.380813       0.787383       0.000000
      0.545805       0.692517       0.000000
      0.600000       0.700000       0.000000
      0.581017       0.756950       0.000000
      0.506084       0.750000       0.000000
      0.600000       0.700000       0.000000
      0.654195       0.692517       0.000000
      0.656527       0.750000       0.000000
      0.581017       0.756950       0.000000
      0.506084       0.750000       0.000000
      0.581017       0.756950       0.000000
      0.563060       0.810819       0.000000
      0.468251       0.804752       0.000000
      0.581017       0.756950       0.000000
      0.656527       0.750000       0.000000
      0.658747       0.804752       0.000000
      0.563060       0.810819       0.000000
      0.654195       0.692517       0.000000
      0.702631       0.671659       0.000000
      0.725999       0.730363       0.000000
      0.656527       0.750000       0.000000
      0.702631       0.671659       0.000000
      0.741421       0.641421       0.000000
      0.784518       0.701184       0.000000
      0.725999       0.730363       0.000000
      0.656527       0.750000       0.000000
      0.725999       0.730363       0.000000
      0.748697       0.787383       0.000000
      0.658747       0.804752       0.000000
      0.725999       0.730363       0.000000
      0.784518       0.701184       0.000000
      0.827614       0.760948       0.000000
      0.748697       0.787383       0.000000
      0.305719       0.760948       0.000000
      0.380813       0.787383       0.000000
      0.325006       0.842791       0.000000
      0.229289       0.820711       0.000000
      0.380813       0.787383       0.000000
      0.468251       0.804752       0.000000
      0.432173       0.856962       0.000000
      0.325006       0.842791       0.000000
      0.229289       0.820711       0.000000
      0.325006       0.842791       0.000000
      0.270755       0.896655       0.000000
      0.152860       0.880474       0.000000
      0.325006       0.842791       0.000000
      0.432173       0.856962       0.000000
      0.397732       0.906804       0.000000
      0.270755       0.896655       0.000000
      0.468251       0.804752       0.000000
      0.563060       0.810819       0.000000
      0.546050       0.861851       0.000000
      0.432173       0.856962       0.000000
      0.563060       0.810819       0.000000
      0.658747       0.804752       0.000000
      0.660865       0.856962       0.000000
      0.546050       0.861851       0.000000
      0.432173       0.856962       0.000000
      0.546050       0.861851       0.000000
      0.529912       0.910264       0.000000
      0.397732       0.906804       0.000000
      0.546050       0.861851       0.000000
      0.660865       0.856962       0.000000
      0.662887       0.906804       0.000000
      0.529912       0.910264       0.000000
      0.658747       0.804752       0.000000
      0.748697       0.787383       0.000000
      0.770753       0.842791       0.000000
      0.660865       0.856962       0.000000
      0.748697       0.787383       0.000000
      0.827614       0.760948       0.000000
      0.870711       0.820711       0.000000
      0.770753       0.842791       0.000000
      0.660865       0.856962       0.000000
      0.770753       0.842791       0.000000
      0.792195       0.896655       0.000000
      0.662887       0.906804       0.000000
      0.770753       0.842791       0.000000
      0.870711       0.820711       0.000000
      0.913807       0.880474       0.000000
      0.792195       0.896655       0.000000
      0.152860       0.880474       0.000000
      0.270755       0.896655       0.000000
      0.217995       0.949038       0.000000
      0.076430       0.940237       0.000000
      0.270755       0.896655       0.000000
      0.397732       0.906804       0.000000
      0.364819       0.954435       0.000000
      0.217995       0.949038       0.000000
      0.076430       0.940237       0.000000
      0.217995       0.949038       0.000000
      0.166667       1.000000       0.000000
      0.000000       1.000000       0.000000
      0.217995       0.949038       0.000000
      0.364819       0.954435       0.000000
      0.333333       1.000000       0.000000
      0.166667       1.000000       0.000000
      0.397732       0.906804       0.000000
      0.529912       0.910264       0.000000
      0.514582       0.956255       0.000000
      0.364819       0.954435       0.000000
      0.529912       0.910264       0.000000
      0.662887       0.906804       0.000000
      0.664819       0.954435       0.000000
      0.514582       0.956255       0.000000
      0.364819       0.954435       0.000000
      0.514582       0.956255       0.000000
      0.500000       1.000000       0.000000
      0.333333       1.000000       0.000000
      0.514582       0.956255       0.000000
      0.664819       0.954435       0.000000
      0.666667       1.000000       0.000000
      0.500000       1.000000       0.000000
      0.662887       0.906804       0.000000
      0.792195       0.896655       0.000000
      0.813047       0.949038       0.000000
      0.664819       0.954435       0.000000
      0.792195       0.896655       0.000000
      0.913807       0.880474       0.000000
      0.956904       0.940237       0.000000
      0.813047       0.949038       0.000000
      0.664819       0.954435       0.000000
      0.813047       0.949038       0.000000
      0.833333       1.000000       0.000000
      0.666667       1.000000       0.000000
      0.813047       0.949038       0.000000
      0.956904       0.940237       0.000000
      1.000000       1.000000       0.000000
      0.833333       1.000000       0.000000
      0.458579       0.358579       0.000000
      0.428341       0.397369       0.000000
      0.351758       0.356122       0.000000
      0.382149       0.298816       0.000000
      0.428341       0.397369       0.000000
      0.407483       0.445805       0.000000
      0.331305       0.424779       0.000000
      0.351758       0.356122       0.000000
      0.382149       0.298816       0.000000
      0.351758       0.356122       0.000000
      0.277372       0.316058       0.000000
      0.305719       0.239052       0.000000
      0.351758       0.356122       0.000000
      0.331305       0.424779       0.000000
      0.258747       0.404752       0.000000
      0.277372       0.316058       0.000000
      0.407483       0.445805       0.000000
      0.400000       0.500000       0.000000
      0.324066       0.500000       0.000000
      0.331305       0.424779       0.000000
      0.400000       0.500000       0.000000
      0.407483       0.554195       0.000000
      0.331305       0.575221       0.000000
      0.324066       0.500000       0.000000
      0.331305       0.424779       0.000000
      0.324066       0.500000       0.000000
      0.252241       0.500000       0.000000
      0.258747       0.404752       0.000000
      0.324066       0.500000       0.000000
      0.331305       0.575221       0.000000
      0.258747       0.595248       0.000000
      0.252241       0.500000       0.000000
      0.407483       0.554195       0.000000
      0.428341       0.602631       0.000000
      0.351758       0.643878       0.000000
      0.331305       0.575221       0.000000
      0.428341       0.602631       0.000000
      0.458579       0.641421       0.000000
      0.382149       0.701184       0.000000
      0.351758       0.643878       0.000000
      0.331305       0.575221       0.000000
      0.351758       0.643878       0.000000
      0.277372       0.683942       0.000000
      0.258747       0.595248       0.000000
      0.351758       0.643878       0.000000
      0.382149       0.701184       0.000000
      0.305719       0.760948       0.000000
      0.277372       0.683942       0.000000
      0.305719       0.239052       0.000000
      0.277372       0.316058       0.000000
      0.205089       0.277126       0.000000
      0.229289       0.179289       0.000000
      0.277372       0.316058       0.000000
      0.258747       0.404752       0.000000
      0.189557       0.385654       0.000000
      0.205089       0.277126       0.000000
      0.229289       0.179289       0.000000
      0.205089       0.277126       0.000000
      0.134820       0.239280       0.000000
      0.152860       0.119526       0.000000
      0.205089       0.277126       0.000000
      0.189557       0.385654       0.000000
      0.123505       0.367423       0.000000
      0.134820       0.239280       0.000000
      0.258747       0.404752       0.000000
      0.252241       0.500000       0.000000
      0.184198       0.500000       0.000000
      0.189557       0.385654       0.000000
      0.252241       0.500000       0.000000
      0.258747       0.595248       0.000000
      0.189557       0.614346       0.000000
      0.184198       0.500000       0.000000
      0.189557       0.385654       0.000000
      0.184198       0.500000       0.000000
      0.119648       0.500000       0.000000
      0.123505       0.367423       0.000000
[...]
POINT_DATA   840
VECTORS U float 
      0.000437       0.005669       0.000000
      0.000225       0.006052       0.000000
      0.000038       0.005758       0.000000
      0.000281       0.005260       0.000000
      0.000225       0.006052       0.000000
      0.000006       0.006308       0.000000
     -0.000121       0.006196       0.000000
      0.000038       0.005758       0.000000
      0.000281       0.005260       0.000000
      0.000038       0.005758       0.000000
      0.000058       0.005722       0.000000
      0.000349       0.005294       0.000000
      0.000038       0.005758       0.000000
     -0.000121       0.006196       0.000000
     -0.000140       0.006146       0.000000
      0.000058       0.005722       0.000000
      0.000006       0.006308       0.000000
     -0.000218       0.006414       0.000000
     -0.000206       0.006440       0.000000
     -0.000121       0.006196       0.000000
     -0.000218       0.006414       0.000000
     -0.000463       0.006362       0.000000
     -0.000287       0.006402       0.000000
     -0.000206       0.006440       0.000000
     -0.000121       0.006196       0.000000
     -0.000206       0.006440       0.000000
     -0.000205       0.006435       0.000000
     -0.000140       0.006146       0.000000
     -0.000206       0.006440       0.000000
     -0.000287       0.006402       0.000000
     -0.000215       0.006427       0.000000
     -0.000205       0.006435       0.000000
     -0.000463       0.006362       0.000000
     -0.000743       0.006155       0.000000
     -0.000436       0.006082       0.000000
     -0.000287       0.006402       0.000000
     -0.000743       0.006155       0.000000
     -0.001053       0.005807       0.000000
     -0.000698       0.005583       0.000000
     -0.000436       0.006082       0.000000
     -0.000287       0.006402       0.000000
     -0.000436       0.006082       0.000000
     -0.000308       0.006100       0.000000
     -0.000215       0.006427       0.000000
     -0.000436       0.006082       0.000000
     -0.000698       0.005583       0.000000
     -0.000549       0.005600       0.000000
     -0.000308       0.006100       0.000000
      0.000349       0.005294       0.000000
      0.000058       0.005722       0.000000
      0.000121       0.005833       0.000000
      0.000453       0.005502       0.000000
      0.000058       0.005722       0.000000
     -0.000140       0.006146       0.000000
     -0.000122       0.006179       0.000000
      0.000121       0.005833       0.000000
      0.000453       0.005502       0.000000
      0.000121       0.005833       0.000000
      0.000201       0.006033       0.000000
      0.000576       0.005798       0.000000
      0.000121       0.005833       0.000000
     -0.000122       0.006179       0.000000
     -0.000092       0.006275       0.000000
      0.000201       0.006033       0.000000
     -0.000140       0.006146       0.000000
     -0.000205       0.006435       0.000000
     -0.000200       0.006448       0.000000
     -0.000122       0.006179       0.000000
     -0.000205       0.006435       0.000000
     -0.000215       0.006427       0.000000
     -0.000177       0.006460       0.000000
     -0.000200       0.006448       0.000000
     -0.000122       0.006179       0.000000
     -0.000200       0.006448       0.000000
     -0.000195       0.006483       0.000000
     -0.000092       0.006275       0.000000
     -0.000200       0.006448       0.000000
     -0.000177       0.006460       0.000000
     -0.000154       0.006503       0.000000
     -0.000195       0.006483       0.000000
     -0.000215       0.006427       0.000000
     -0.000308       0.006100       0.000000
     -0.000239       0.006169       0.000000
     -0.000177       0.006460       0.000000
     -0.000308       0.006100       0.000000
     -0.000549       0.005600       0.000000
     -0.000468       0.005716       0.000000
     -0.000239       0.006169       0.000000
     -0.000177       0.006460       0.000000
     -0.000239       0.006169       0.000000
     -0.000202       0.006278       0.000000
     -0.000154       0.006503       0.000000
     -0.000239       0.006169       0.000000
     -0.000468       0.005716       0.000000
     -0.000445       0.005917       0.000000
     -0.000202       0.006278       0.000000
      0.000576       0.005798       0.000000
      0.000201       0.006033       0.000000
      0.000302       0.006294       0.000000
      0.000740       0.006158       0.000000
      0.000201       0.006033       0.000000
     -0.000092       0.006275       0.000000
     -0.000053       0.006418       0.000000
      0.000302       0.006294       0.000000
      0.000740       0.006158       0.000000
      0.000302       0.006294       0.000000
      0.000434       0.006602       0.000000
      0.000974       0.006602       0.000000
      0.000302       0.006294       0.000000
     -0.000053       0.006418       0.000000
      0.000001       0.006602       0.000000
      0.000434       0.006602       0.000000
     -0.000092       0.006275       0.000000
     -0.000195       0.006483       0.000000
     -0.000191       0.006535       0.000000
     -0.000053       0.006418       0.000000
     -0.000195       0.006483       0.000000
     -0.000154       0.006503       0.000000
     -0.000141       0.006551       0.000000
     -0.000191       0.006535       0.000000
     -0.000053       0.006418       0.000000
     -0.000191       0.006535       0.000000
     -0.000188       0.006602       0.000000
      0.000001       0.006602       0.000000
     -0.000191       0.006535       0.000000
     -0.000141       0.006551       0.000000
     -0.000137       0.006602       0.000000
     -0.000188       0.006602       0.000000
     -0.000154       0.006503       0.000000
     -0.000202       0.006278       0.000000
     -0.000190       0.006422       0.000000
     -0.000141       0.006551       0.000000
     -0.000202       0.006278       0.000000
     -0.000445       0.005917       0.000000
     -0.000485       0.006214       0.000000
     -0.000190       0.006422       0.000000
     -0.000141       0.006551       0.000000
     -0.000190       0.006422       0.000000
     -0.000204       0.006602       0.000000
     -0.000137       0.006602       0.000000
     -0.000190       0.006422       0.000000
     -0.000485       0.006214       0.000000
     -0.000587       0.006602       0.000000
     -0.000204       0.006602       0.000000
      0.000384       0.000805       0.000000
      0.000588       0.001306       0.000000
      0.000560       0.001755       0.000000
      0.000229       0.001194       0.000000
      0.000588       0.001306       0.000000
      0.000751       0.002032       0.000000
      0.000944       0.002443       0.000000
      0.000560       0.001755       0.000000
      0.000229       0.001194       0.000000
      0.000560       0.001755       0.000000
      0.000637       0.001784       0.000000
      0.000268       0.001156       0.000000
      0.000560       0.001755       0.000000
      0.000944       0.002443       0.000000
      0.001067       0.002517       0.000000
      0.000637       0.001784       0.000000
      0.000751       0.002032       0.000000
      0.000769       0.003208       0.000000
      0.001169       0.003225       0.000000
      0.000944       0.002443       0.000000
      0.000769       0.003208       0.000000
      0.000780       0.004403       0.000000
      0.000981       0.004005       0.000000
      0.001169       0.003225       0.000000
      0.000944       0.002443       0.000000
      0.001169       0.003225       0.000000
      0.001300       0.003235       0.000000
      0.001067       0.002517       0.000000
      0.001169       0.003225       0.000000
      0.000981       0.004005       0.000000
      0.001105       0.003945       0.000000
      0.001300       0.003235       0.000000
      0.000780       0.004403       0.000000
      0.000638       0.005146       0.000000
      0.000615       0.004689       0.000000
      0.000981       0.004005       0.000000
      0.000638       0.005146       0.000000
      0.000437       0.005669       0.000000
      0.000281       0.005260       0.000000
      0.000615       0.004689       0.000000
      0.000981       0.004005       0.000000
      0.000615       0.004689       0.000000
      0.000704       0.004665       0.000000
      0.001105       0.003945       0.000000
      0.000615       0.004689       0.000000
      0.000281       0.005260       0.000000
      0.000349       0.005294       0.000000
      0.000704       0.004665       0.000000
      0.000268       0.001156       0.000000
      0.000637       0.001784       0.000000
      0.000727       0.001677       0.000000
      0.000314       0.000952       0.000000
      0.000637       0.001784       0.000000
      0.001067       0.002517       0.000000
      0.001186       0.002486       0.000000
      0.000727       0.001677       0.000000
      0.000314       0.000952       0.000000
      0.000727       0.001677       0.000000
      0.000808       0.001549       0.000000
      0.000322       0.000681       0.000000
      0.000727       0.001677       0.000000
      0.001186       0.002486       0.000000
      0.001306       0.002444       0.000000
      0.000808       0.001549       0.000000
      0.001067       0.002517       0.000000
      0.001300       0.003235       0.000000
      0.001420       0.003247       0.000000
      0.001186       0.002486       0.000000
      0.001300       0.003235       0.000000
      0.001105       0.003945       0.000000
      0.001226       0.003998       0.000000
      0.001420       0.003247       0.000000
      0.001186       0.002486       0.000000
      0.001420       0.003247       0.000000
      0.001551       0.003260       0.000000
      0.001306       0.002444       0.000000
      0.001420       0.003247       0.000000
      0.001226       0.003998       0.000000
      0.001349       0.004069       0.000000
      0.001551       0.003260       0.000000
      0.001105       0.003945       0.000000
      0.000704       0.004665       0.000000
      0.000813       0.004786       0.000000
      0.001226       0.003998       0.000000
      0.000704       0.004665       0.000000
      0.000349       0.005294       0.000000
      0.000453       0.005502       0.000000
      0.000813       0.004786       0.000000
      0.001226       0.003998       0.000000
      0.000813       0.004786       0.000000
      0.000921       0.004947       0.000000
      0.001349       0.004069       0.000000
      0.000813       0.004786       0.000000
      0.000453       0.005502       0.000000
      0.000576       0.005798       0.000000
      0.000921       0.004947       0.000000
      0.000322       0.000681       0.000000
      0.000808       0.001549       0.000000
      0.000878       0.001453       0.000000
      0.000261       0.000376       0.000000
      0.000808       0.001549       0.000000
      0.001306       0.002444       0.000000
      0.001418       0.002433       0.000000
      0.000878       0.001453       0.000000
      0.000261       0.000376       0.000000
      0.000878       0.001453       0.000000
      0.000940       0.001409       0.000000
      0.000000       0.000000       0.000000
      0.000878       0.001453       0.000000
      0.001418       0.002433       0.000000
      0.001517       0.002478       0.000000
      0.000940       0.001409       0.000000
      0.001306       0.002444       0.000000
      0.001551       0.003260       0.000000
      0.001685       0.003273       0.000000
      0.001418       0.002433       0.000000
      0.001551       0.003260       0.000000
      0.001349       0.004069       0.000000
      0.001468       0.004117       0.000000
      0.001685       0.003273       0.000000
      0.001418       0.002433       0.000000
      0.001685       0.003273       0.000000
      0.001806       0.003283       0.000000
      0.001517       0.002478       0.000000
      0.001685       0.003273       0.000000
      0.001468       0.004117       0.000000
      0.001579       0.004105       0.000000
      0.001806       0.003283       0.000000
      0.001349       0.004069       0.000000
      0.000921       0.004947       0.000000
      0.001031       0.005104       0.000000
      0.001468       0.004117       0.000000
      0.000921       0.004947       0.000000
      0.000576       0.005798       0.000000
      0.000740       0.006158       0.000000
      0.001031       0.005104       0.000000
      0.001468       0.004117       0.000000
      0.001031       0.005104       0.000000
      0.001157       0.005244       0.000000
      0.001579       0.004105       0.000000
      0.001031       0.005104       0.000000
      0.000740       0.006158       0.000000
      0.000974       0.006602       0.000000
      0.001157       0.005244       0.000000
     -0.000989       0.000739       0.000000
     -0.000674       0.000393       0.000000
     -0.000358       0.000471       0.000000
     -0.000619       0.000971       0.000000
     -0.000674       0.000393       0.000000
     -0.000405       0.000189       0.000000
     -0.000225       0.000159       0.000000
     -0.000358       0.000471       0.000000
     -0.000619       0.000971       0.000000
     -0.000358       0.000471       0.000000
     -0.000205       0.000461       0.000000
     -0.000444       0.000963       0.000000
     -0.000358       0.000471       0.000000
     -0.000225       0.000159       0.000000
     -0.000133       0.000144       0.000000
     -0.000205       0.000461       0.000000
     -0.000405       0.000189       0.000000
     -0.000189       0.000135       0.000000
     -0.000168       0.000114       0.000000
     -0.000225       0.000159       0.000000
     -0.000189       0.000135       0.000000
     -0.000002       0.000223       0.000000
     -0.000116       0.000326       0.000000
     -0.000168       0.000114       0.000000
     -0.000225       0.000159       0.000000
     -0.000168       0.000114       0.000000
     -0.000156       0.000125       0.000000
     -0.000133       0.000144       0.000000
     -0.000168       0.000114       0.000000
     -0.000116       0.000326       0.000000
     -0.000137       0.000374       0.000000
     -0.000156       0.000125       0.000000
     -0.000002       0.000223       0.000000
      0.000186       0.000450       0.000000
      0.000009       0.000723       0.000000
     -0.000116       0.000326       0.000000
      0.000186       0.000450       0.000000
      0.000384       0.000805       0.000000
      0.000229       0.001194       0.000000
      0.000009       0.000723       0.000000
     -0.000116       0.000326       0.000000
      0.000009       0.000723       0.000000
      0.000010       0.000754       0.000000
     -0.000137       0.000374       0.000000
      0.000009       0.000723       0.000000
      0.000229       0.001194       0.000000
      0.000268       0.001156       0.000000
      0.000010       0.000754       0.000000
     -0.000444       0.000963       0.000000
     -0.000205       0.000461       0.000000
     -0.000105       0.000396       0.000000
     -0.000329       0.000852       0.000000
     -0.000205       0.000461       0.000000
     -0.000133       0.000144       0.000000
     -0.000072       0.000122       0.000000
     -0.000105       0.000396       0.000000
     -0.000329       0.000852       0.000000
     -0.000105       0.000396       0.000000
     -0.000035       0.000291       0.000000
     -0.000257       0.000654       0.000000
     -0.000105       0.000396       0.000000
     -0.000072       0.000122       0.000000
     -0.000028       0.000091       0.000000
     -0.000035       0.000291       0.000000
     -0.000133       0.000144       0.000000
     -0.000156       0.000125       0.000000
     -0.000136       0.000122       0.000000
     -0.000072       0.000122       0.000000
     -0.000156       0.000125       0.000000
     -0.000137       0.000374       0.000000
     -0.000123       0.000345       0.000000
     -0.000136       0.000122       0.000000
     -0.000072       0.000122       0.000000
     -0.000136       0.000122       0.000000
     -0.000108       0.000100       0.000000
     -0.000028       0.000091       0.000000
     -0.000136       0.000122       0.000000
     -0.000123       0.000345       0.000000
     -0.000095       0.000260       0.000000
     -0.000108       0.000100       0.000000
     -0.000137       0.000374       0.000000
      0.000010       0.000754       0.000000
      0.000038       0.000642       0.000000
     -0.000123       0.000345       0.000000
      0.000010       0.000754       0.000000
      0.000268       0.001156       0.000000
      0.000314       0.000952       0.000000
      0.000038       0.000642       0.000000
     -0.000123       0.000345       0.000000
      0.000038       0.000642       0.000000
      0.000057       0.000454       0.000000
     -0.000095       0.000260       0.000000
      0.000038       0.000642       0.000000
      0.000314       0.000952       0.000000
      0.000322       0.000681       0.000000
      0.000057       0.000454       0.000000
     -0.000257       0.000654       0.000000
     -0.000035       0.000291       0.000000
      0.000003       0.000155       0.000000
     -0.000200       0.000366       0.000000
     -0.000035       0.000291       0.000000
     -0.000028       0.000091       0.000000
     -0.000003       0.000051       0.000000
      0.000003       0.000155       0.000000
     -0.000200       0.000366       0.000000
      0.000003       0.000155       0.000000
      0.000000       0.000000       0.000000
      0.000000       0.000000       0.000000
      0.000003       0.000155       0.000000
     -0.000003       0.000051       0.000000
      0.000000       0.000000       0.000000
      0.000000       0.000000       0.000000
     -0.000028       0.000091       0.000000
     -0.000108       0.000100       0.000000
     -0.000066       0.000058       0.000000
     -0.000003       0.000051       0.000000
     -0.000108       0.000100       0.000000
     -0.000095       0.000260       0.000000
     -0.000054       0.000138       0.000000
     -0.000066       0.000058       0.000000
     -0.000003       0.000051       0.000000
     -0.000066       0.000058       0.000000
      0.000000       0.000000       0.000000
      0.000000       0.000000       0.000000
     -0.000066       0.000058       0.000000
     -0.000054       0.000138       0.000000
      0.000000       0.000000       0.000000
      0.000000       0.000000       0.000000
     -0.000095       0.000260       0.000000
      0.000057       0.000454       0.000000
      0.000050       0.000230       0.000000
     -0.000054       0.000138       0.000000
      0.000057       0.000454       0.000000
      0.000322       0.000681       0.000000
      0.000261       0.000376       0.000000
      0.000050       0.000230       0.000000
     -0.000054       0.000138       0.000000
      0.000050       0.000230       0.000000
      0.000000       0.000000       0.000000
      0.000000       0.000000       0.000000
      0.000050       0.000230       0.000000
      0.000261       0.000376       0.000000
      0.000000       0.000000       0.000000
      0.000000       0.000000       0.000000
     -0.000989       0.000739       0.000000
     -0.001343       0.001241       0.000000
     -0.001091       0.001515       0.000000
     -0.000619       0.000971       0.000000
     -0.000619       0.000971       0.000000
     -0.001091       0.001515       0.000000
     -0.000939       0.001566       0.000000
     -0.000444       0.000963       0.000000
     -0.001091       0.001515       0.000000
     -0.001687       0.002215       0.000000
     -0.001667       0.002340       0.000000