# vtk DataFile Version 2.0
time_10.vtk
ASCII
DATASET UNSTRUCTURED_GRID
POINTS   576 float
      0.458579       0.641421       0.000000
      0.497369       0.671659       0.000000
      0.438243       0.730363       0.000000
      0.382149       0.701184       0.000000
      0.497369       0.671659       0.000000
      0.545805       0.692517       0.000000
      0.506084       0.750000       0.000000
      0.438243       0.730363       0.000000
      0.382149       0.701184       0.000000
      0.438243       0.730363       0.000000
      0.380813       0.787383       0.000000
      0.305719       0.760948       0.000000
      0.438243       0.730363       0.000000
      0.506084       0.750000       0.000000
      0.468251       0.804752       0.000000
      0.380813       0.787383       0.000000
      0.545805       0.692517       0.000000
      0.600000       0.700000       0.000000
      0.581017       0.756950       0.000000
      0.506084       0.750000       0.000000
      0.600000       0.700000       0.000000
      0.654195       0.692517       0.000000
      0.656527       0.750000       0.000000
      0.581017       0.756950       0.000000
      0.506084       0.750000       0.000000
      0.581017       0.756950       0.000000
      0.563060       0.810819       0.000000
      0.468251       0.804752       0.000000
      0.581017       0.756950       0.000000
      0.656527       0.750000       0.000000
      0.658747       0.804752       0.000000
      0.563060       0.810819       0.000000
      0.654195       0.692517       0.000000
      0.702631       0.671659       0.000000
      0.725999       0.730363       0.000000
      0.656527       0.750000       0.000000
      0.702631       0.671659       0.000000
      0.741421       0.641421       0.000000
      0.784518       0.701184       0.000000
      0.725999       0.730363       0.000000
      0.656527       0.750000       0.000000
      0.725999       0.730363       0.000000
      0.748697       0.787383       0.000000
      0.658747       0.804752       0.000000
      0.725999       0.730363       0.000000
      0.784518       0.701184       0.000000
      0.827614       0.760948       0.000000
      0.748697       0.787383       0.000000
      0.305719       0.760948       0.000000
      0.380813       0.787383       0.000000
      0.325006       0.842791       0.000000
      0.229289       0.820711       0.000000
      0.380813       0.787383       0.000000
      0.468251       0.804752       0.000000
      0.432173       0.856962       0.000000
      0.325006       0.842791       0.000000
      0.229289       0.820711       0.000000
      0.325006       0.842791       0.000000
      0.270755       0.896655       0.000000
      0.152860       0.880474       0.000000
      0.325006       0.842791       0.000000
      0.432173       0.856962       0.000000
      0.397732       0.906804       0.000000
      0.270755       0.896655       0.000000
      0.468251       0.804752       0.000000
      0.563060       0.810819       0.000000
      0.546050       0.861851       0.000000
      0.432173       0.856962       0.000000
      0.563060       0.810819       0.000000
      0.658747       0.804752       0.000000
      0.660865       0.856962       0.000000
      0.546050       0.861851       0.000000
      0.432173       0.856962       0.000000
      0.546050       0.861851       0.000000
      0.529912       0.910264       0.000000
      0.397732       0.906804       0.000000
      0.546050       0.861851       0.000000
      0.660865       0.856962       0.000000
      0.662887       0.906804       0.000000
      0.529912       0.910264       0.000000
      0.658747       0.804752       0.000000
      0.748697       0.787383       0.000000
      0.770753       0.842791       0.000000
      0.660865       0.856962       0.000000
      0.748697       0.787383       0.000000
      0.827614       0.760948       0.000000
      0.870711       0.820711       0.000000
      0.770753       0.842791       0.000000
      0.660865       0.856962       0.000000
      0.770753       0.842791       0.000000
      0.792195       0.896655       0.000000
      0.662887       0.906804       0.000000
      0.770753       0.842791       0.000000
      0.870711       0.820711       0.000000
      0.913807       0.880474       0.000000
      0.792195       0.896655       0.000000
      0.152860       0.880474       0.000000
      0.270755       0.896655       0.000000
      0.217995       0.949038       0.000000
      0.076430       0.940237       0.000000
      0.270755       0.896655       0.000000
      0.397732       0.906804       0.000000
      0.364819       0.954435       0.000000
      0.217995       0.949038       0.000000
      0.076430       0.940237       0.000000
      0.217995       0.949038       0.000000
      0.166667       1.000000       0.000000
      0.000000       1.000000       0.000000
      0.217995       0.949038       0.000000
      0.364819       0.954435       0.000000
      0.333333       1.000000       0.000000
      0.166667       1.000000       0.000000
      0.397732       0.906804       0.000000
      0.529912       0.910264       0.000000
      0.514582       0.956255       0.000000
      0.364819       0.954435       0.000000
      0.529912       0.910264       0.000000
      0.662887       0.906804       0.000000
      0.664819       0.954435       0.000000
      0.514582       0.956255       0.000000
      0.364819       0.954435       0.000000
      0.514582       0.956255       0.000000
      0.500000       1.000000       0.000000
      0.333333       1.000000       0.000000
      0.514582       0.956255       0.000000
      0.664819       0.954435       0.000000
      0.666667       1.000000       0.000000
      0.500000       1.000000       0.000000
      0.662887       0.906804       0.000000
      0.792195       0.896655       0.000000
      0.813047       0.949038       0.000000
      0.664819       0.954435       0.000000
      0.792195       0.896655       0.000000
      0.913807       0.880474       0.000000
      0.956904       0.940237       0.000000
      0.813047       0.949038       0.000000
      0.664819       0.954435       0.000000
      0.813047       0.949038       0.000000
      0.833333       1.000000       0.000000
      0.666667       1.000000       0.000000
      0.813047       0.949038       0.000000
      0.956904       0.940237       0.000000
      1.000000       1.000000       0.000000
      0.833333       1.000000       0.000000
      0.458579       0.358579       0.000000
      0.428341       0.397369       0.000000
      0.351758       0.356122       0.000000
      0.382149       0.298816       0.000000
      0.428341       0.397369       0.000000
      0.407483       0.445805       0.000000
      0.331305       0.424779       0.000000
      0.351758       0.356122       0.000000
      0.382149       0.298816       0.000000
      0.351758       0.356122       0.000000
      0.277372       0.316058       0.000000
      0.305719       0.239052       0.000000
      0.351758       0.356122       0.000000
      0.331305       0.424779       0.000000
      0.258747       0.404752       0.000000
      0.277372       0.316058       0.000000
      0.407483       0.445805       0.000000
      0.400000       0.500000       0.000000
      0.324066       0.500000       0.000000
      0.331305       0.424779       0.000000
      0.400000       0.500000       0.000000
      0.407483       0.554195       0.000000
      0.331305       0.575221       0.000000
      0.324066       0.500000       0.000000
      0.331305       0.424779       0.000000
      0.324066       0.500000       0.000000
      0.252241       0.500000       0.000000
      0.258747       0.404752       0.000000
      0.324066       0.500000       0.000000
      0.331305       0.575221       0.000000
      0.258747       0.595248       0.000000
      0.252241       0.500000       0.000000
      0.407483       0.554195       0.000000
      0.428341       0.602631       0.000000
      0.351758       0.643878       0.000000
      0.331305       0.575221       0.000000
      0.428341       0.602631       0.000000
      0.458579       0.641421       0.000000
      0.382149       0.701184       0.000000
      0.351758       0.643878       0.000000
      0.331305       0.575221       0.000000
      0.351758       0.643878       0.000000
      0.277372       0.683942       0.000000
      0.258747       0.595248       0.000000
      0.351758       0.643878       0.000000
      0.382149       0.701184       0.000000
      0.305719       0.760948       0.000000
      0.277372       0.683942       0.000000
      0.305719       0.239052       0.000000
      0.277372       0.316058       0.000000
      0.205089       0.277126       0.000000
      0.229289       0.179289       0.000000
      0.277372       0.316058       0.000000
      0.258747       0.404752       0.000000
      0.189557       0.385654       0.000000
      0.205089       0.277126       0.000000
      0.229289       0.179289       0.000000
      0.205089       0.277126       0.000000
      0.134820       0.239280       0.000000
      0.152860       0.119526       0.000000
      0.205089       0.277126       0.000000
      0.189557       0.385654       0.000000
      0.123505       0.367423       0.000000
      0.134820       0.239280       0.000000
      0.258747       0.404752       0.000000
      0.252241       0.500000       0.000000
      0.184198       0.500000       0.000000
      0.189557       0.385654       0.000000
      0.252241       0.500000       0.000000
      0.258747       0.595248       0.000000
      0.189557       0.614346       0.000000
      0.184198       0.500000       0.000000
      0.189557       0.385654       0.000000
      0.184198       0.500000       0.000000
      0.119648       0.500000       0.000000
      0.123505       0.367423       0.000000
[...]
POINT_DATA   576
VECTORS U float 
      0.000418       0.005432       0.000000
      0.000215       0.005808       0.000000
      0.000036       0.005522       0.000000
      0.000272       0.005039       0.000000
      0.000215       0.005808       0.000000
      0.000004       0.006058       0.000000
     -0.000118       0.005949       0.000000
      0.000036       0.005522       0.000000
      0.000272       0.005039       0.000000
      0.000036       0.005522       0.000000
      0.000059       0.005490       0.000000
      0.000341       0.005079       0.000000
      0.000036       0.005522       0.000000
     -0.000118       0.005949       0.000000
     -0.000135       0.005902       0.000000
      0.000059       0.005490       0.000000
      0.000004       0.006058       0.000000
     -0.000213       0.006161       0.000000
     -0.000200       0.006187       0.000000
     -0.000118       0.005949       0.000000
     -0.000213       0.006161       0.000000
     -0.000451       0.006109       0.000000
     -0.000279       0.006147       0.000000
     -0.000200       0.006187       0.000000
     -0.000118       0.005949       0.000000
     -0.000200       0.006187       0.000000
     -0.000199       0.006183       0.000000
     -0.000135       0.005902       0.000000
     -0.000200       0.006187       0.000000
     -0.000279       0.006147       0.000000
     -0.000210       0.006173       0.000000
     -0.000199       0.006183       0.000000
     -0.000451       0.006109       0.000000
     -0.000720       0.005903       0.000000
     -0.000424       0.005832       0.000000
     -0.000279       0.006147       0.000000
     -0.000720       0.005903       0.000000
     -0.001017       0.005558       0.000000
     -0.000679       0.005344       0.000000
     -0.000424       0.005832       0.000000
     -0.000279       0.006147       0.000000
     -0.000424       0.005832       0.000000
     -0.000302       0.005853       0.000000
     -0.000210       0.006173       0.000000
     -0.000424       0.005832       0.000000
     -0.000679       0.005344       0.000000
     -0.000539       0.005368       0.000000
     -0.000302       0.005853       0.000000
      0.000341       0.005079       0.000000
      0.000059       0.005490       0.000000
      0.000123       0.005602       0.000000
      0.000443       0.005287       0.000000
      0.000059       0.005490       0.000000
     -0.000135       0.005902       0.000000
     -0.000116       0.005936       0.000000
      0.000123       0.005602       0.000000
      0.000443       0.005287       0.000000
      0.000123       0.005602       0.000000
      0.000202       0.005799       0.000000
      0.000564       0.005577       0.000000
      0.000123       0.005602       0.000000
     -0.000116       0.005936       0.000000
     -0.000085       0.006031       0.000000
      0.000202       0.005799       0.000000
     -0.000135       0.005902       0.000000
     -0.000199       0.006183       0.000000
     -0.000194       0.006197       0.000000
     -0.000116       0.005936       0.000000
     -0.000199       0.006183       0.000000
     -0.000210       0.006173       0.000000
     -0.000173       0.006208       0.000000
     -0.000194       0.006197       0.000000
     -0.000116       0.005936       0.000000
     -0.000194       0.006197       0.000000
     -0.000188       0.006233       0.000000
     -0.000085       0.006031       0.000000
     -0.000194       0.006197       0.000000
     -0.000173       0.006208       0.000000
     -0.000151       0.006252       0.000000
     -0.000188       0.006233       0.000000
     -0.000210       0.006173       0.000000
     -0.000302       0.005853       0.000000
     -0.000237       0.005924       0.000000
     -0.000173       0.006208       0.000000
     -0.000302       0.005853       0.000000
     -0.000539       0.005368       0.000000
     -0.000463       0.005486       0.000000
     -0.000237       0.005924       0.000000
     -0.000173       0.006208       0.000000
     -0.000237       0.005924       0.000000
     -0.000202       0.006032       0.000000
     -0.000151       0.006252       0.000000
     -0.000237       0.005924       0.000000
     -0.000463       0.005486       0.000000
     -0.000441       0.005685       0.000000
     -0.000202       0.006032       0.000000
      0.000564       0.005577       0.000000
      0.000202       0.005799       0.000000
      0.000301       0.006053       0.000000
      0.000724       0.005926       0.000000
      0.000202       0.005799       0.000000
     -0.000085       0.006031       0.000000
     -0.000046       0.006172       0.000000
      0.000301       0.006053       0.000000
      0.000724       0.005926       0.000000
      0.000301       0.006053       0.000000
      0.000429       0.006352       0.000000
      0.000948       0.006352       0.000000
      0.000301       0.006053       0.000000
     -0.000046       0.006172       0.000000
      0.000007       0.006352       0.000000
      0.000429       0.006352       0.000000
     -0.000085       0.006031       0.000000
     -0.000188       0.006233       0.000000
     -0.000184       0.006285       0.000000
     -0.000046       0.006172       0.000000
     -0.000188       0.006233       0.000000
     -0.000151       0.006252       0.000000
     -0.000139       0.006301       0.000000
     -0.000184       0.006285       0.000000
     -0.000046       0.006172       0.000000
     -0.000184       0.006285       0.000000
     -0.000180       0.006352       0.000000
      0.000007       0.006352       0.000000
     -0.000184       0.006285       0.000000
     -0.000139       0.006301       0.000000
     -0.000135       0.006352       0.000000
     -0.000180       0.006352       0.000000
     -0.000151       0.006252       0.000000
     -0.000202       0.006032       0.000000
     -0.000192       0.006175       0.000000
     -0.000139       0.006301       0.000000
     -0.000202       0.006032       0.000000
     -0.000441       0.005685       0.000000
     -0.000480       0.005975       0.000000
     -0.000192       0.006175       0.000000
     -0.000139       0.006301       0.000000
     -0.000192       0.006175       0.000000
     -0.000206       0.006352       0.000000
     -0.000135       0.006352       0.000000
     -0.000192       0.006175       0.000000
     -0.000480       0.005975       0.000000
     -0.000579       0.006352       0.000000
     -0.000206       0.006352       0.000000
      0.000366       0.000793       0.000000
      0.000561       0.001286       0.000000
      0.000539       0.001712       0.000000
      0.000220       0.001169       0.000000
      0.000561       0.001286       0.000000
      0.000712       0.002001       0.000000
      0.000902       0.002371       0.000000
      0.000539       0.001712       0.000000
      0.000220       0.001169       0.000000
      0.000539       0.001712       0.000000
      0.000614       0.001729       0.000000
      0.000260       0.001125       0.000000
      0.000539       0.001712       0.000000
      0.000902       0.002371       0.000000
      0.001019       0.002428       0.000000
      0.000614       0.001729       0.000000
      0.000712       0.002001       0.000000
      0.000743       0.003087       0.000000
      0.001105       0.003103       0.000000
      0.000902       0.002371       0.000000
      0.000743       0.003087       0.000000
      0.000741       0.004188       0.000000
      0.000939       0.003831       0.000000
      0.001105       0.003103       0.000000
      0.000902       0.002371       0.000000
      0.001105       0.003103       0.000000
      0.001234       0.003113       0.000000
      0.001019       0.002428       0.000000
      0.001105       0.003103       0.000000
      0.000939       0.003831       0.000000
      0.001057       0.003789       0.000000
      0.001234       0.003113       0.000000
      0.000741       0.004188       0.000000
      0.000609       0.004918       0.000000
      0.000593       0.004486       0.000000
      0.000939       0.003831       0.000000
      0.000609       0.004918       0.000000
      0.000418       0.005432       0.000000
      0.000272       0.005039       0.000000
      0.000593       0.004486       0.000000
      0.000939       0.003831       0.000000
      0.000593       0.004486       0.000000
      0.000680       0.004475       0.000000
      0.001057       0.003789       0.000000
      0.000593       0.004486       0.000000
      0.000272       0.005039       0.000000
      0.000341       0.005079       0.000000
      0.000680       0.004475       0.000000
      0.000260       0.001125       0.000000
      0.000614       0.001729       0.000000
      0.000700       0.001620       0.000000
      0.000305       0.000923       0.000000
      0.000614       0.001729       0.000000
      0.001019       0.002428       0.000000
      0.001134       0.002394       0.000000
      0.000700       0.001620       0.000000
      0.000305       0.000923       0.000000
      0.000700       0.001620       0.000000
      0.000779       0.001492       0.000000
      0.000313       0.000659       0.000000
      0.000700       0.001620       0.000000
      0.001134       0.002394       0.000000
      0.001249       0.002351       0.000000
      0.000779       0.001492       0.000000
      0.001019       0.002428       0.000000
      0.001234       0.003113       0.000000
      0.001352       0.003124       0.000000
      0.001134       0.002394       0.000000
      0.001234       0.003113       0.000000
      0.001057       0.003789       0.000000
      0.001173       0.003845       0.000000
      0.001352       0.003124       0.000000
      0.001134       0.002394       0.000000
      0.001352       0.003124       0.000000
      0.001480       0.003137       0.000000
      0.001249       0.002351       0.000000
      0.001352       0.003124       0.000000
      0.001173       0.003845       0.000000
      0.001292       0.003917       0.000000
      0.001480       0.003137       0.000000
      0.001057       0.003789       0.000000
      0.000680       0.004475       0.000000
      0.000785       0.004599       0.000000
      0.001173       0.003845       0.000000
      0.000680       0.004475       0.000000
      0.000341       0.005079       0.000000
      0.000443       0.005287       0.000000
      0.000785       0.004599       0.000000
      0.001173       0.003845       0.000000
      0.000785       0.004599       0.000000
      0.000891       0.004759       0.000000
      0.001292       0.003917       0.000000
      0.000785       0.004599       0.000000
      0.000443       0.005287       0.000000
      0.000564       0.005577       0.000000
      0.000891       0.004759       0.000000
      0.000313       0.000659       0.000000
      0.000779       0.001492       0.000000
      0.000846       0.001397       0.000000
      0.000254       0.000363       0.000000
      0.000779       0.001492       0.000000
      0.001249       0.002351       0.000000
      0.001358       0.002338       0.000000
      0.000846       0.001397       0.000000
      0.000254       0.000363       0.000000
      0.000846       0.001397       0.000000
      0.000906       0.001353       0.000000
      0.000000       0.000000       0.000000
      0.000846       0.001397       0.000000
      0.001358       0.002338       0.000000
      0.001454       0.002379       0.000000
      0.000906       0.001353       0.000000
      0.001249       0.002351       0.000000
      0.001480       0.003137       0.000000
      0.001610       0.003150       0.000000
      0.001358       0.002338       0.000000
      0.001480       0.003137       0.000000
      0.001292       0.003917       0.000000
      0.001408       0.003966       0.000000
      0.001610       0.003150       0.000000
      0.001358       0.002338       0.000000
      0.001610       0.003150       0.000000
      0.001728       0.003160       0.000000
      0.001454       0.002379       0.000000
      0.001610       0.003150       0.000000
      0.001408       0.003966       0.000000
      0.001516       0.003959       0.000000
      0.001728       0.003160       0.000000
      0.001292       0.003917       0.000000
      0.000891       0.004759       0.000000
      0.000998       0.004914       0.000000
      0.001408       0.003966       0.000000
      0.000891       0.004759       0.000000
      0.000564       0.005577       0.000000
      0.000724       0.005926       0.000000
      0.000998       0.004914       0.000000
      0.001408       0.003966       0.000000
      0.000998       0.004914       0.000000
      0.001121       0.005052       0.000000
      0.001516       0.003959       0.000000
      0.000998       0.004914       0.000000
      0.000724       0.005926       0.000000
      0.000948       0.006352       0.000000
      0.001121       0.005052       0.000000
     -0.000956       0.000738       0.000000
     -0.000654       0.000395       0.000000
     -0.000348       0.000471       0.000000
     -0.000602       0.000960       0.000000
     -0.000654       0.000395       0.000000
     -0.000394       0.000192       0.000000
     -0.000219       0.000162       0.000000
     -0.000348       0.000471       0.000000
     -0.000602       0.000960       0.000000
     -0.000348       0.000471       0.000000
     -0.000202       0.000457       0.000000
     -0.000436       0.000945       0.000000
     -0.000348       0.000471       0.000000
     -0.000219       0.000162       0.000000
     -0.000130       0.000146       0.000000
     -0.000202       0.000457       0.000000
     -0.000394       0.000192       0.000000
     -0.000185       0.000136       0.000000
     -0.000165       0.000116       0.000000
     -0.000219       0.000162       0.000000
     -0.000185       0.000136       0.000000
     -0.000005       0.000222       0.000000
     -0.000115       0.000323       0.000000
     -0.000165       0.000116       0.000000
     -0.000219       0.000162       0.000000
     -0.000165       0.000116       0.000000
     -0.000152       0.000127       0.000000
     -0.000130       0.000146       0.000000
     -0.000165       0.000116       0.000000
     -0.000115       0.000323       0.000000
     -0.000134       0.000369       0.000000
     -0.000152       0.000127       0.000000
     -0.000005       0.000222       0.000000
      0.000177       0.000445       0.000000
      0.000006       0.000711       0.000000
     -0.000115       0.000323       0.000000
      0.000177       0.000445       0.000000
      0.000366       0.000793       0.000000
      0.000220       0.001169       0.000000
      0.000006       0.000711       0.000000
     -0.000115       0.000323       0.000000
      0.000006       0.000711       0.000000
      0.000010       0.000738       0.000000
     -0.000134       0.000369       0.000000
      0.000006       0.000711       0.000000
      0.000220       0.001169       0.000000
      0.000260       0.001125       0.000000
      0.000010       0.000738       0.000000
     -0.000436       0.000945       0.000000
     -0.000202       0.000457       0.000000
     -0.000105       0.000391       0.000000
     -0.000325       0.000832       0.000000
     -0.000202       0.000457       0.000000
     -0.000130       0.000146       0.000000
     -0.000070       0.000123       0.000000
     -0.000105       0.000391       0.000000
     -0.000325       0.000832       0.000000
     -0.000105       0.000391       0.000000
     -0.000037       0.000287       0.000000
     -0.000255       0.000637       0.000000
     -0.000105       0.000391       0.000000
     -0.000070       0.000123       0.000000
     -0.000028       0.000092       0.000000
     -0.000037       0.000287       0.000000
     -0.000130       0.000146       0.000000
     -0.000152       0.000127       0.000000
     -0.000133       0.000123       0.000000
     -0.000070       0.000123       0.000000
     -0.000152       0.000127       0.000000
     -0.000134       0.000369       0.000000
     -0.000120       0.000339       0.000000
     -0.000133       0.000123       0.000000
     -0.000070       0.000123       0.000000
     -0.000133       0.000123       0.000000
     -0.000105       0.000099       0.000000
     -0.000028       0.000092       0.000000
     -0.000133       0.000123       0.000000
     -0.000120       0.000339       0.000000
     -0.000092       0.000255       0.000000
     -0.000105       0.000099       0.000000
     -0.000134       0.000369       0.000000
      0.000010       0.000738       0.000000
      0.000038       0.000626       0.000000
     -0.000120       0.000339       0.000000
      0.000010       0.000738       0.000000
      0.000260       0.001125       0.000000
      0.000305       0.000923       0.000000
      0.000038       0.000626       0.000000
     -0.000120       0.000339       0.000000
      0.000038       0.000626       0.000000
      0.000057       0.000441       0.000000
     -0.000092       0.000255       0.000000
      0.000038       0.000626       0.000000
      0.000305       0.000923       0.000000
      0.000313       0.000659       0.000000
      0.000057       0.000441       0.000000
     -0.000255       0.000637       0.000000
     -0.000037       0.000287       0.000000
      0.000001       0.000152       0.000000
     -0.000198       0.000357       0.000000
     -0.000037       0.000287       0.000000
     -0.000028       0.000092       0.000000
     -0.000003       0.000051       0.000000
      0.000001       0.000152       0.000000
     -0.000198       0.000357       0.000000
      0.000001       0.000152       0.000000
      0.000000       0.000000       0.000000
      0.000000       0.000000       0.000000
      0.000001       0.000152       0.000000
     -0.000003       0.000051       0.000000
      0.000000       0.000000       0.000000
      0.000000       0.000000       0.000000
     -0.000028       0.000092       0.000000
     -0.000105       0.000099       0.000000
     -0.000064       0.000058       0.000000
     -0.000003       0.000051       0.000000
     -0.000105       0.000099       0.000000
     -0.000092       0.000255       0.000000
     -0.000051       0.000135       0.000000
     -0.000064       0.000058       0.000000
     -0.000003       0.000051       0.000000
     -0.000064       0.000058       0.000000
      0.000000       0.000000       0.000000
      0.000000       0.000000       0.000000
     -0.000064       0.000058       0.000000
     -0.000051       0.000135       0.000000
      0.000000       0.000000       0.000000
      0.000000       0.000000       0.000000
     -0.000092       0.000255       0.000000
      0.000057       0.000441       0.000000
      0.000049       0.000223       0.000000
     -0.000051       0.000135       0.000000
      0.000057       0.000441       0.000000
      0.000313       0.000659       0.000000
      0.000254       0.000363       0.000000
      0.000049       0.000223       0.000000
     -0.000051       0.000135       0.000000
      0.000049       0.000223       0.000000
      0.000000       0.000000       0.000000
      0.000000       0.000000       0.000000
      0.000049       0.000223       0.000000
      0.000254       0.000363       0.000000
      0.000000       0.000000       0.000000
      0.000000       0.000000       0.000000
     -0.000956       0.000738       0.000000
     -0.001291       0.001237       0.000000
     -0.001056       0.001494       0.000000
     -0.000602       0.000960       0.000000
     -0.001291       0.001237       0.000000
     -0.001590       0.001967       0.000000
     -0.001622       0.002182       0.000000
     -0.001056       0.001494       0.000000
     -0.000602       0.000960       0.000000
     -0.001056       0.001494       0.000000
     -0.000915       0.001534       0.000000