# vtk DataFile Version 2.0
time_10.vtk
ASCII
DATASET UNSTRUCTURED_GRID
POINTS   576 float
      0.458579       0.641421       0.000000
      0.497369       0.671659       0.000000
      0.438243       0.730363       0.000000
      0.382149       0.701184       0.000000
      0.497369       0.671659       0.000000
      0.545805       0.692517       0.000000
      0.506084       0.750000       0.000000
      0.438243       0.730363       0.000000
      0.382149       0.701184       0.000000
      0.438243       0.730363       0.000000
      0.380813       0.787383       0.000000
      0.305719       0.760948       0.000000
      0.438243       0.730363       0.000000
      0.506084       0.750000       0.000000
      0.468251       0.804752       0.000000
      0.380813       0.787383       0.000000
      0.545805       0.692517       0.000000
      0.600000       0.700000       0.000000
      0.581017       0.756950       0.000000
      0.506084       0.750000       0.000000
      0.600000       0.700000       0.000000
      0.654195       0.692517       0.000000
      0.656527       0.750000       0.000000
      0.581017       0.756950       0.000000
      0.506084       0.750000       0.000000
      0.581017       0.756950       0.000000
      0.563060       0.810819       0.000000
      0.468251       0.804752       0.000000
      0.581017       0.756950       0.000000
      0.656527       0.750000       0.000000
      0.658747       0.804752       0.000000
      0.563060       0.810819       0.000000
      0.654195       0.692517       0.000000
      0.702631       0.671659       0.000000
      0.725999       0.730363       0.000000
      0.656527       0.750000       0.000000
      0.702631       0.671659       0.000000
      0.741421       0.641421       0.000000
      0.784518       0.701184       0.000000
      0.725999       0.730363       0.000000
      0.656527       0.750000       0.000000
      0.725999       0.730363       0.000000
      0.748697       0.787383       0.000000
      0.658747       0.804752       0.000000
      0.725999       0.730363       0.000000
      0.784518       0.701184       0.000000
      0.827614       0.760948       0.000000
      0.748697       0.787383       0.000000
      0.305719       0.760948       0.000000
      0.380813       0.787383       0.000000
      0.325006       0.842791       0.000000
      0.229289       0.820711       0.000000
      0.380813       0.787383       0.000000
      0.468251       0.804752       0.000000
      0.432173       0.856962       0.000000
      0.325006       0.842791       0.000000
      0.229289       0.820711       0.000000
      0.325006       0.842791       0.000000
      0.270755       0.896655       0.000000
      0.152860       0.880474       0.000000
      0.325006       0.842791       0.000000
      0.432173       0.856962       0.000000
      0.397732       0.906804       0.000000
      0.270755       0.896655       0.000000
      0.468251       0.804752       0.000000
      0.563060       0.810819       0.000000
      0.546050       0.861851       0.000000
      0.432173       0.856962       0.000000
      0.563060       0.810819       0.000000
      0.658747       0.804752       0.000000
      0.660865       0.856962       0.000000
      0.546050       0.861851       0.000000
      0.432173       0.856962       0.000000
      0.546050       0.861851       0.000000
      0.529912       0.910264       0.000000
      0.397732       0.906804       0.000000
      0.546050       0.861851       0.000000
      0.660865       0.856962       0.000000
      0.662887       0.906804       0.000000
      0.529912       0.910264       0.000000
      0.658747       0.804752       0.000000
      0.748697       0.787383       0.000000
      0.770753       0.842791       0.000000
      0.660865       0.856962       0.000000
      0.748697       0.787383       0.000000
      0.827614       0.760948       0.000000
      0.870711       0.820711       0.000000
      0.770753       0.842791       0.000000
      0.660865       0.856962       0.000000
      0.770753       0.842791       0.000000
      0.792195       0.896655       0.000000
      0.662887       0.906804       0.000000
      0.770753       0.842791       0.000000
      0.870711       0.820711       0.000000
      0.913807       0.880474       0.000000
      0.792195       0.896655       0.000000
      0.152860       0.880474       0.000000
      0.270755       0.896655       0.000000
      0.217995       0.949038       0.000000
      0.076430       0.940237       0.000000
      0.270755       0.896655       0.000000
      0.397732       0.906804       0.000000
      0.364819       0.954435       0.000000
      0.217995       0.949038       0.000000
      0.076430       0.940237       0.000000
      0.217995       0.949038       0.000000
      0.166667       1.000000       0.000000
      0.000000       1.000000       0.000000
      0.217995       0.949038       0.000000
      0.364819       0.954435       0.000000
      0.333333       1.000000       0.000000
      0.166667       1.000000       0.000000
      0.397732       0.906804       0.000000
      0.529912       0.910264       0.000000
      0.514582       0.956255       0.000000
      0.364819       0.954435       0.000000
      0.529912       0.910264       0.000000
      0.662887       0.906804       0.000000
      0.664819       0.954435       0.000000
      0.514582       0.956255       0.000000
      0.364819       0.954435       0.000000
      0.514582       0.956255       0.000000
      0.500000       1.000000       0.000000
      0.333333       1.000000       0.000000
      0.514582       0.956255       0.000000
      0.664819       0.954435       0.000000
      0.666667       1.000000       0.000000
      0.500000       1.000000       0.000000
      0.662887       0.906804       0.000000
      0.792195       0.896655       0.000000
      0.813047       0.949038       0.000000
      0.664819       0.954435       0.000000
      0.792195       0.896655       0.000000
      0.913807       0.880474       0.000000
      0.956904       0.940237       0.000000
      0.813047       0.949038       0.000000
      0.664819       0.954435       0.000000
      0.813047       0.949038       0.000000
      0.833333       1.000000       0.000000
      0.666667       1.000000       0.000000
      0.813047       0.949038       0.000000
      0.956904       0.940237       0.000000
      1.000000       1.000000       0.000000
      0.833333       1.000000       0.000000
      0.458579       0.358579       0.000000
      0.428341       0.397369       0.000000
      0.351758       0.356122       0.000000
      0.382149       0.298816       0.000000
      0.428341       0.397369       0.000000
      0.407483       0.445805       0.000000
      0.331305       0.424779       0.000000
      0.351758       0.356122       0.000000
      0.382149       0.298816       0.000000
      0.351758       0.356122       0.000000
      0.277372       0.316058       0.000000
      0.305719       0.239052       0.000000
      0.351758       0.356122       0.000000
      0.331305       0.424779       0.000000
      0.258747       0.404752       0.000000
      0.277372       0.316058       0.000000
      0.407483       0.445805       0.000000
      0.400000       0.500000       0.000000
      0.324066       0.500000       0.000000
      0.331305       0.424779       0.000000
      0.400000       0.500000       0.000000
      0.407483       0.554195       0.000000
      0.331305       0.575221       0.000000
      0.324066       0.500000       0.000000
      0.331305       0.424779       0.000000
      0.324066       0.500000       0.000000
      0.252241       0.500000       0.000000
      0.258747       0.404752       0.000000
      0.324066       0.500000       0.000000
      0.331305       0.575221       0.000000
      0.258747       0.595248       0.000000
      0.252241       0.500000       0.000000
      0.407483       0.554195       0.000000
      0.428341       0.602631       0.000000
      0.351758       0.643878       0.000000
      0.331305       0.575221       0.000000
      0.428341       0.602631       0.000000
      0.458579       0.641421       0.000000
      0.382149       0.701184       0.000000
      0.351758       0.643878       0.000000
      0.331305       0.575221       0.000000
      0.351758       0.643878       0.000000
      0.277372       0.683942       0.000000
      0.258747       0.595248       0.000000
      0.351758       0.643878       0.000000
      0.382149       0.701184       0.000000
      0.305719       0.760948       0.000000
      0.277372       0.683942       0.000000
      0.305719       0.239052       0.000000
      0.277372       0.316058       0.000000
      0.205089       0.277126       0.000000
      0.229289       0.179289       0.000000
      0.277372       0.316058       0.000000
      0.258747       0.404752       0.000000
      0.189557       0.385654       0.000000
      0.205089       0.277126       0.000000
      0.229289       0.179289       0.000000
      0.205089       0.277126       0.000000
      0.134820       0.239280       0.000000
      0.152860       0.119526       0.000000
      0.205089       0.277126       0.000000
      0.189557       0.385654       0.000000
      0.123505       0.367423       0.000000
      0.134820       0.239280       0.000000
      0.258747       0.404752       0.000000
      0.252241       0.500000       0.000000
      0.184198       0.500000       0.000000
      0.189557       0.385654       0.000000
      0.252241       0.500000       0.000000
      0.258747       0.595248       0.000000
      0.189557       0.614346       0.000000
      0.184198       0.500000       0.000000
      0.189557       0.385654       0.000000
      0.184198       0.500000       0.000000
      0.119648       0.500000       0.000000
      0.123505       0.367423       0.000000
[...]
POINT_DATA   576
VECTORS U float 
      0.000355       0.004613       0.000000
      0.000183       0.004951       0.000000
      0.000030       0.004700       0.000000
      0.000237       0.004278       0.000000
      0.000183       0.004951       0.000000
      0.000001       0.005176       0.000000
     -0.000106       0.005078       0.000000
      0.000030       0.004700       0.000000
      0.000237       0.004278       0.000000
      0.000030       0.004700       0.000000
      0.000056       0.004680       0.000000
      0.000302       0.004329       0.000000
      0.000030       0.004700       0.000000
     -0.000106       0.005078       0.000000
     -0.000117       0.005040       0.000000
      0.000056       0.004680       0.000000
      0.000001       0.005176       0.000000
     -0.000189       0.005268       0.000000
     -0.000178       0.005291       0.000000
     -0.000106       0.005078       0.000000
     -0.000189       0.005268       0.000000
     -0.000397       0.005220       0.000000
     -0.000247       0.005254       0.000000
     -0.000178       0.005291       0.000000
     -0.000106       0.005078       0.000000
     -0.000178       0.005291       0.000000
     -0.000177       0.005290       0.000000
     -0.000117       0.005040       0.000000
     -0.000178       0.005291       0.000000
     -0.000247       0.005254       0.000000
     -0.000188       0.005280       0.000000
     -0.000177       0.005290       0.000000
     -0.000397       0.005220       0.000000
     -0.000630       0.005032       0.000000
     -0.000374       0.004971       0.000000
     -0.000247       0.005254       0.000000
     -0.000630       0.005032       0.000000
     -0.000882       0.004720       0.000000
     -0.000597       0.004539       0.000000
     -0.000374       0.004971       0.000000
     -0.000247       0.005254       0.000000
     -0.000374       0.004971       0.000000
     -0.000272       0.004995       0.000000
     -0.000188       0.005280       0.000000
     -0.000374       0.004971       0.000000
     -0.000597       0.004539       0.000000
     -0.000483       0.004571       0.000000
     -0.000272       0.004995       0.000000
      0.000302       0.004329       0.000000
      0.000056       0.004680       0.000000
      0.000117       0.004786       0.000000
      0.000396       0.004523       0.000000
      0.000056       0.004680       0.000000
     -0.000117       0.005040       0.000000
     -0.000097       0.005074       0.000000
      0.000117       0.004786       0.000000
      0.000396       0.004523       0.000000
      0.000117       0.004786       0.000000
      0.000190       0.004965       0.000000
      0.000506       0.004783       0.000000
      0.000117       0.004786       0.000000
     -0.000097       0.005074       0.000000
     -0.000066       0.005162       0.000000
      0.000190       0.004965       0.000000
     -0.000117       0.005040       0.000000
     -0.000177       0.005290       0.000000
     -0.000171       0.005305       0.000000
     -0.000097       0.005074       0.000000
     -0.000177       0.005290       0.000000
     -0.000188       0.005280       0.000000
     -0.000157       0.005314       0.000000
     -0.000171       0.005305       0.000000
     -0.000097       0.005074       0.000000
     -0.000171       0.005305       0.000000
     -0.000164       0.005340       0.000000
     -0.000066       0.005162       0.000000
     -0.000171       0.005305       0.000000
     -0.000157       0.005314       0.000000
     -0.000138       0.005356       0.000000
     -0.000164       0.005340       0.000000
     -0.000188       0.005280       0.000000
     -0.000272       0.004995       0.000000
     -0.000218       0.005063       0.000000
     -0.000157       0.005314       0.000000
     -0.000272       0.004995       0.000000
     -0.000483       0.004571       0.000000
     -0.000421       0.004686       0.000000
     -0.000218       0.005063       0.000000
     -0.000157       0.005314       0.000000
     -0.000218       0.005063       0.000000
     -0.000190       0.005164       0.000000
     -0.000138       0.005356       0.000000
     -0.000218       0.005063       0.000000
     -0.000421       0.004686       0.000000
     -0.000404       0.004866       0.000000
     -0.000190       0.005164       0.000000
      0.000506       0.004783       0.000000
      0.000190       0.004965       0.000000
      0.000280       0.005191       0.000000
      0.000646       0.005089       0.000000
      0.000190       0.004965       0.000000
     -0.000066       0.005162       0.000000
     -0.000029       0.005291       0.000000
      0.000280       0.005191       0.000000
      0.000646       0.005089       0.000000
      0.000280       0.005191       0.000000
      0.000393       0.005452       0.000000
      0.000837       0.005452       0.000000
      0.000280       0.005191       0.000000
     -0.000029       0.005291       0.000000
      0.000020       0.005452       0.000000
      0.000393       0.005452       0.000000
     -0.000066       0.005162       0.000000
     -0.000164       0.005340       0.000000
     -0.000159       0.005389       0.000000
     -0.000029       0.005291       0.000000
     -0.000164       0.005340       0.000000
     -0.000138       0.005356       0.000000
     -0.000128       0.005403       0.000000
     -0.000159       0.005389       0.000000
     -0.000029       0.005291       0.000000
     -0.000159       0.005389       0.000000
     -0.000155       0.005452       0.000000
      0.000020       0.005452       0.000000
     -0.000159       0.005389       0.000000
     -0.000128       0.005403       0.000000
     -0.000125       0.005452       0.000000
     -0.000155       0.005452       0.000000
     -0.000138       0.005356       0.000000
     -0.000190       0.005164       0.000000
     -0.000182       0.005293       0.000000
     -0.000128       0.005403       0.000000
     -0.000190       0.005164       0.000000
     -0.000404       0.004866       0.000000
     -0.000439       0.005121       0.000000
     -0.000182       0.005293       0.000000
     -0.000128       0.005403       0.000000
     -0.000182       0.005293       0.000000
     -0.000195       0.005452       0.000000
     -0.000125       0.005452       0.000000
     -0.000182       0.005293       0.000000
     -0.000439       0.005121       0.000000
     -0.000526       0.005452       0.000000
     -0.000195       0.005452       0.000000
      0.000308       0.000724       0.000000
      0.000468       0.001168       0.000000
      0.000460       0.001518       0.000000
      0.000188       0.001046       0.000000
      0.000468       0.001168       0.000000
      0.000593       0.001800       0.000000
      0.000758       0.002073       0.000000
      0.000460       0.001518       0.000000
      0.000188       0.001046       0.000000
      0.000460       0.001518       0.000000
      0.000526       0.001510       0.000000
      0.000226       0.000994       0.000000
      0.000460       0.001518       0.000000
      0.000758       0.002073       0.000000
      0.000856       0.002097       0.000000
      0.000526       0.001510       0.000000
      0.000593       0.001800       0.000000
      0.000637       0.002650       0.000000
      0.000912       0.002662       0.000000
      0.000758       0.002073       0.000000
      0.000637       0.002650       0.000000
      0.000618       0.003506       0.000000
      0.000790       0.003249       0.000000
      0.000912       0.002662       0.000000
      0.000758       0.002073       0.000000
      0.000912       0.002662       0.000000
      0.001025       0.002671       0.000000
      0.000856       0.002097       0.000000
      0.000912       0.002662       0.000000
      0.000790       0.003249       0.000000
      0.000890       0.003239       0.000000
      0.001025       0.002671       0.000000
      0.000618       0.003506       0.000000
      0.000511       0.004151       0.000000
      0.000509       0.003799       0.000000
      0.000790       0.003249       0.000000
      0.000511       0.004151       0.000000
      0.000355       0.004613       0.000000
      0.000237       0.004278       0.000000
      0.000509       0.003799       0.000000
      0.000790       0.003249       0.000000
      0.000509       0.003799       0.000000
      0.000586       0.003814       0.000000
      0.000890       0.003239       0.000000
      0.000509       0.003799       0.000000
      0.000237       0.004278       0.000000
      0.000302       0.004329       0.000000
      0.000586       0.003814       0.000000
      0.000226       0.000994       0.000000
      0.000526       0.001510       0.000000
      0.000600       0.001404       0.000000
      0.000267       0.000809       0.000000
      0.000526       0.001510       0.000000
      0.000856       0.002097       0.000000
      0.000954       0.002059       0.000000
      0.000600       0.001404       0.000000
      0.000267       0.000809       0.000000
      0.000600       0.001404       0.000000
      0.000668       0.001285       0.000000
      0.000276       0.000573       0.000000
      0.000600       0.001404       0.000000
      0.000954       0.002059       0.000000
      0.001054       0.002017       0.000000
      0.000668       0.001285       0.000000
      0.000856       0.002097       0.000000
      0.001025       0.002671       0.000000
      0.001130       0.002682       0.000000
      0.000954       0.002059       0.000000
      0.001025       0.002671       0.000000
      0.000890       0.003239       0.000000
      0.000991       0.003298       0.000000
      0.001130       0.002682       0.000000
      0.000954       0.002059       0.000000
      0.001130       0.002682       0.000000
      0.001242       0.002695       0.000000
      0.001054       0.002017       0.000000
      0.001130       0.002682       0.000000
      0.000991       0.003298       0.000000
      0.001095       0.003367       0.000000
      0.001242       0.002695       0.000000
      0.000890       0.003239       0.000000
      0.000586       0.003814       0.000000
      0.000679       0.003936       0.000000
      0.000991       0.003298       0.000000
      0.000586       0.003814       0.000000
      0.000302       0.004329       0.000000
      0.000396       0.004523       0.000000
      0.000679       0.003936       0.000000
      0.000991       0.003298       0.000000
      0.000679       0.003936       0.000000
      0.000773       0.004085       0.000000
      0.001095       0.003367       0.000000
      0.000679       0.003936       0.000000
      0.000396       0.004523       0.000000
      0.000506       0.004783       0.000000
      0.000773       0.004085       0.000000
      0.000276       0.000573       0.000000
      0.000668       0.001285       0.000000
      0.000728       0.001195       0.000000
      0.000223       0.000314       0.000000
      0.000668       0.001285       0.000000
      0.001054       0.002017       0.000000
      0.001150       0.002002       0.000000
      0.000728       0.001195       0.000000
      0.000223       0.000314       0.000000
      0.000728       0.001195       0.000000
      0.000779       0.001153       0.000000
      0.000000       0.000000       0.000000
      0.000728       0.001195       0.000000
      0.001150       0.002002       0.000000
      0.001235       0.002030       0.000000
      0.000779       0.001153       0.000000
      0.001054       0.002017       0.000000
      0.001242       0.002695       0.000000
      0.001356       0.002707       0.000000
      0.001150       0.002002       0.000000
      0.001242       0.002695       0.000000
      0.001095       0.003367       0.000000
      0.001197       0.003416       0.000000
      0.001356       0.002707       0.000000
      0.001150       0.002002       0.000000
      0.001356       0.002707       0.000000
      0.001460       0.002717       0.000000
      0.001235       0.002030       0.000000
      0.001356       0.002707       0.000000
      0.001197       0.003416       0.000000
      0.001293       0.003418       0.000000
      0.001460       0.002717       0.000000
      0.001095       0.003367       0.000000
      0.000773       0.004085       0.000000
      0.000868       0.004228       0.000000
      0.001197       0.003416       0.000000
      0.000773       0.004085       0.000000
      0.000506       0.004783       0.000000
      0.000646       0.005089       0.000000
      0.000868       0.004228       0.000000
      0.001197       0.003416       0.000000
      0.000868       0.004228       0.000000
      0.000976       0.004353       0.000000
      0.001293       0.003418       0.000000
      0.000868       0.004228       0.000000
      0.000646       0.005089       0.000000
      0.000837       0.005452       0.000000
      0.000976       0.004353       0.000000
     -0.000828       0.000680       0.000000
     -0.000571       0.000368       0.000000
     -0.000306       0.000434       0.000000
     -0.000528       0.000869       0.000000
     -0.000571       0.000368       0.000000
     -0.000348       0.000182       0.000000
     -0.000193       0.000156       0.000000
     -0.000306       0.000434       0.000000
     -0.000528       0.000869       0.000000
     -0.000306       0.000434       0.000000
     -0.000181       0.000418       0.000000
     -0.000391       0.000845       0.000000
     -0.000306       0.000434       0.000000
     -0.000193       0.000156       0.000000
     -0.000116       0.000140       0.000000
     -0.000181       0.000418       0.000000
     -0.000348       0.000182       0.000000
     -0.000166       0.000131       0.000000
     -0.000148       0.000114       0.000000
     -0.000193       0.000156       0.000000
     -0.000166       0.000131       0.000000
     -0.000009       0.000208       0.000000
     -0.000106       0.000299       0.000000
     -0.000148       0.000114       0.000000
     -0.000193       0.000156       0.000000
     -0.000148       0.000114       0.000000
     -0.000136       0.000121       0.000000
     -0.000116       0.000140       0.000000
     -0.000148       0.000114       0.000000
     -0.000106       0.000299       0.000000
     -0.000120       0.000337       0.000000
     -0.000136       0.000121       0.000000
     -0.000009       0.000208       0.000000
      0.000148       0.000409       0.000000
      0.000000       0.000645       0.000000
     -0.000106       0.000299       0.000000
      0.000148       0.000409       0.000000
      0.000308       0.000724       0.000000
      0.000188       0.001046       0.000000
      0.000000       0.000645       0.000000
     -0.000106       0.000299       0.000000
      0.000000       0.000645       0.000000
      0.000008       0.000662       0.000000
     -0.000120       0.000337       0.000000
      0.000000       0.000645       0.000000
      0.000188       0.001046       0.000000
      0.000226       0.000994       0.000000
      0.000008       0.000662       0.000000
     -0.000391       0.000845       0.000000
     -0.000181       0.000418       0.000000
     -0.000098       0.000354       0.000000
     -0.000296       0.000736       0.000000
     -0.000181       0.000418       0.000000
     -0.000116       0.000140       0.000000
     -0.000064       0.000117       0.000000
     -0.000098       0.000354       0.000000
     -0.000296       0.000736       0.000000
     -0.000098       0.000354       0.000000
     -0.000038       0.000258       0.000000
     -0.000233       0.000561       0.000000
     -0.000098       0.000354       0.000000
     -0.000064       0.000117       0.000000
     -0.000027       0.000086       0.000000
     -0.000038       0.000258       0.000000
     -0.000116       0.000140       0.000000
     -0.000136       0.000121       0.000000
     -0.000118       0.000116       0.000000
     -0.000064       0.000117       0.000000
     -0.000136       0.000121       0.000000
     -0.000120       0.000337       0.000000
     -0.000106       0.000308       0.000000
     -0.000118       0.000116       0.000000
     -0.000064       0.000117       0.000000
     -0.000118       0.000116       0.000000
     -0.000094       0.000092       0.000000
     -0.000027       0.000086       0.000000
     -0.000118       0.000116       0.000000
     -0.000106       0.000308       0.000000
     -0.000080       0.000230       0.000000
     -0.000094       0.000092       0.000000
     -0.000120       0.000337       0.000000
      0.000008       0.000662       0.000000
      0.000036       0.000558       0.000000
     -0.000106       0.000308       0.000000
      0.000008       0.000662       0.000000
      0.000226       0.000994       0.000000
      0.000267       0.000809       0.000000
      0.000036       0.000558       0.000000
     -0.000106       0.000308       0.000000
      0.000036       0.000558       0.000000
      0.000053       0.000391       0.000000
     -0.000080       0.000230       0.000000
      0.000036       0.000558       0.000000
      0.000267       0.000809       0.000000
      0.000276       0.000573       0.000000
      0.000053       0.000391       0.000000
     -0.000233       0.000561       0.000000
     -0.000038       0.000258       0.000000
     -0.000003       0.000136       0.000000
     -0.000179       0.000316       0.000000
     -0.000038       0.000258       0.000000
     -0.000027       0.000086       0.000000
     -0.000004       0.000048       0.000000
     -0.000003       0.000136       0.000000
     -0.000179       0.000316       0.000000
     -0.000003       0.000136       0.000000
      0.000000       0.000000       0.000000
      0.000000       0.000000       0.000000
     -0.000003       0.000136       0.000000
     -0.000004       0.000048       0.000000
      0.000000       0.000000       0.000000
      0.000000       0.000000       0.000000
     -0.000027       0.000086       0.000000
     -0.000094       0.000092       0.000000
     -0.000057       0.000053       0.000000
     -0.000004       0.000048       0.000000
     -0.000094       0.000092       0.000000
     -0.000080       0.000230       0.000000
     -0.000044       0.000122       0.000000
     -0.000057       0.000053       0.000000
     -0.000004       0.000048       0.000000
     -0.000057       0.000053       0.000000
      0.000000       0.000000       0.000000
      0.000000       0.000000       0.000000
     -0.000057       0.000053       0.000000
     -0.000044       0.000122       0.000000
      0.000000       0.000000       0.000000
      0.000000       0.000000       0.000000
     -0.000080       0.000230       0.000000
      0.000053       0.000391       0.000000
      0.000046       0.000197       0.000000
     -0.000044       0.000122       0.000000
      0.000053       0.000391       0.000000
      0.000276       0.000573       0.000000
      0.000223       0.000314       0.000000
      0.000046       0.000197       0.000000
     -0.000044       0.000122       0.000000
      0.000046       0.000197       0.000000
      0.000000       0.000000       0.000000
      0.000000       0.000000       0.000000
      0.000046       0.000197       0.000000
      0.000223       0.000314       0.000000
      0.000000       0.000000       0.000000
      0.000000       0.000000       0.000000
     -0.000828       0.000680       0.000000
     -0.001107       0.001133       0.000000
     -0.000917       0.001343       0.000000
     -0.000528       0.000869       0.000000
     -0.001107       0.001133       0.000000
     -0.001349       0.001789       0.000000
     -0.001387       0.001946       0.000000
     -0.000917       0.001343       0.000000
     -0.000528       0.000869       0.000000
     -0.000917       0.001343       0.000000
     -0.000803       0.001361       0.000000