# vtk DataFile Version 2.0
time_10.vtk
ASCII
DATASET UNSTRUCTURED_GRID
POINTS  3648 float
      0.458579       0.641421       0.000000
      0.497369       0.671659       0.000000
      0.438243       0.730363       0.000000
      0.382149       0.701184       0.000000
      0.497369       0.671659       0.000000
      0.545805       0.692517       0.000000
      0.506084       0.750000       0.000000
      0.438243       0.730363       0.000000
      0.382149       0.701184       0.000000
      0.438243       0.730363       0.000000
      0.380813       0.787383       0.000000
      0.305719       0.760948       0.000000
      0.438243       0.730363       0.000000
      0.506084       0.750000       0.000000
      0.468251       0.804752       0.000000
      0.380813       0.787383       0.000000
      0.545805       0.692517       0.000000
      0.600000       0.700000       0.000000
      0.581017       0.756950       0.000000
      0.506084       0.750000       0.000000
      0.600000       0.700000       0.000000
      0.654195       0.692517       0.000000
      0.656527       0.750000       0.000000
      0.581017       0.756950       0.000000
      0.506084       0.750000       0.000000
      0.581017       0.756950       0.000000
      0.563060       0.810819       0.000000
      0.468251       0.804752       0.000000
      0.581017       0.756950       0.000000
      0.656527       0.750000       0.000000
      0.658747       0.804752       0.000000
      0.563060       0.810819       0.000000
      0.654195       0.692517       0.000000
      0.702631       0.671659       0.000000
      0.725999       0.730363       0.000000
      0.656527       0.750000       0.000000
      0.702631       0.671659       0.000000
      0.741421       0.641421       0.000000
      0.784518       0.701184       0.000000
      0.725999       0.730363       0.000000
      0.656527       0.750000       0.000000
      0.725999       0.730363       0.000000
      0.748697       0.787383       0.000000
      0.658747       0.804752       0.000000
      0.725999       0.730363       0.000000
      0.784518       0.701184       0.000000
      0.827614       0.760948       0.000000
      0.748697       0.787383       0.000000
      0.305719       0.760948       0.000000
      0.380813       0.787383       0.000000
      0.325006       0.842791       0.000000
      0.229289       0.820711       0.000000
      0.380813       0.787383       0.000000
      0.468251       0.804752       0.000000
      0.432173       0.856962       0.000000
      0.325006       0.842791       0.000000
      0.229289       0.820711       0.000000
      0.325006       0.842791       0.000000
      0.270755       0.896655       0.000000
      0.152860       0.880474       0.000000
      0.325006       0.842791       0.000000
      0.432173       0.856962       0.000000
      0.397732       0.906804       0.000000
      0.270755       0.896655       0.000000
      0.468251       0.804752       0.000000
      0.563060       0.810819       0.000000
      0.546050       0.861851       0.000000
      0.432173       0.856962       0.000000
      0.563060       0.810819       0.000000
      0.658747       0.804752       0.000000
      0.660865       0.856962       0.000000
      0.546050       0.861851       0.000000
      0.432173       0.856962       0.000000
      0.546050       0.861851       0.000000
      0.529912       0.910264       0.000000
      0.397732       0.906804       0.000000
      0.546050       0.861851       0.000000
      0.660865       0.856962       0.000000
      0.662887       0.906804       0.000000
      0.529912       0.910264       0.000000
      0.658747       0.804752       0.000000
      0.748697       0.787383       0.000000
      0.770753       0.842791       0.000000
      0.660865       0.856962       0.000000
      0.748697       0.787383       0.000000
      0.827614       0.760948       0.000000
      0.870711       0.820711       0.000000
      0.770753       0.842791       0.000000
      0.660865       0.856962       0.000000
      0.770753       0.842791       0.000000
      0.792195       0.896655       0.000000
      0.662887       0.906804       0.000000
      0.770753       0.842791       0.000000
      0.870711       0.820711       0.000000
      0.913807       0.880474       0.000000
      0.792195       0.896655       0.000000
      0.152860       0.880474       0.000000
      0.270755       0.896655       0.000000
      0.217995       0.949038       0.000000
      0.076430       0.940237       0.000000
      0.270755       0.896655       0.000000
      0.397732       0.906804       0.000000
      0.364819       0.954435       0.000000
      0.217995       0.949038       0.000000
      0.076430       0.940237       0.000000
      0.217995       0.949038       0.000000
      0.166667       1.000000       0.000000
      0.000000       1.000000       0.000000
      0.217995       0.949038       0.000000
      0.364819       0.954435       0.000000
      0.333333       1.000000       0.000000
      0.166667       1.000000       0.000000
      0.397732       0.906804       0.000000
      0.529912       0.910264       0.000000
      0.514582       0.956255       0.000000
      0.364819       0.954435       0.000000
      0.529912       0.910264       0.000000
      0.662887       0.906804       0.000000
      0.664819       0.954435       0.000000
      0.514582       0.956255       0.000000
      0.364819       0.954435       0.000000
      0.514582       0.956255       0.000000
      0.500000       1.000000       0.000000
      0.333333       1.000000       0.000000
      0.514582       0.956255       0.000000
      0.664819       0.954435       0.000000
      0.666667       1.000000       0.000000
      0.500000       1.000000       0.000000
      0.662887       0.906804       0.000000
      0.792195       0.896655       0.000000
      0.813047       0.949038       0.000000
      0.664819       0.954435       0.000000
      0.792195       0.896655       0.000000
      0.913807       0.880474       0.000000
      0.956904       0.940237       0.000000
      0.813047       0.949038       0.000000
      0.664819       0.954435       0.000000
      0.813047       0.949038       0.000000
      0.833333       1.000000       0.000000
      0.666667       1.000000       0.000000
      0.813047       0.949038       0.000000
      0.956904       0.940237       0.000000
      1.000000       1.000000       0.000000
      0.833333       1.000000       0.000000
      0.458579       0.358579       0.000000
      0.428341       0.397369       0.000000
      0.351758       0.356122       0.000000
      0.382149       0.298816       0.000000
      0.382149       0.298816       0.000000
      0.351758       0.356122       0.000000
      0.277372       0.316058       0.000000
      0.305719       0.239052       0.000000
      0.428341       0.602631       0.000000
      0.458579       0.641421       0.000000
      0.382149       0.701184       0.000000
      0.351758       0.643878       0.000000
      0.351758       0.643878       0.000000
      0.382149       0.701184       0.000000
      0.305719       0.760948       0.000000
      0.277372       0.683942       0.000000
      0.305719       0.239052       0.000000
      0.277372       0.316058       0.000000
      0.205089       0.277126       0.000000
      0.229289       0.179289       0.000000
      0.229289       0.179289       0.000000
      0.205089       0.277126       0.000000
      0.134820       0.239280       0.000000
      0.152860       0.119526       0.000000
      0.205089       0.277126       0.000000
      0.189557       0.385654       0.000000
      0.123505       0.367423       0.000000
      0.134820       0.239280       0.000000
      0.277372       0.683942       0.000000
      0.305719       0.760948       0.000000
      0.229289       0.820711       0.000000
      0.205089       0.722874       0.000000
      0.189557       0.614346       0.000000
      0.205089       0.722874       0.000000
      0.134820       0.760720       0.000000
      0.123505       0.632577       0.000000
      0.205089       0.722874       0.000000
      0.229289       0.820711       0.000000
      0.152860       0.880474       0.000000
      0.134820       0.760720       0.000000
      0.152860       0.119526       0.000000
      0.134820       0.239280       0.000000
      0.066483       0.202474       0.000000
      0.076430       0.059763       0.000000
      0.076430       0.059763       0.000000
      0.066483       0.202474       0.000000
      0.000000       0.166667       0.000000
      0.000000       0.000000       0.000000
      0.066483       0.202474       0.000000
      0.060383       0.350000       0.000000
      0.000000       0.333333       0.000000
      0.000000       0.166667       0.000000
      0.134820       0.760720       0.000000
      0.152860       0.880474       0.000000
      0.076430       0.940237       0.000000
      0.066483       0.797526       0.000000
      0.060383       0.650000       0.000000
      0.066483       0.797526       0.000000
      0.000000       0.833333       0.000000
      0.000000       0.666667       0.000000
      0.066483       0.797526       0.000000
      0.076430       0.940237       0.000000
      0.000000       1.000000       0.000000
      0.000000       0.833333       0.000000
      0.400000       0.500000       0.000000
      0.400119       0.506902       0.000000
      0.390391       0.507240       0.000000
      0.390272       0.500000       0.000000
      0.400119       0.506902       0.000000
      0.400476       0.513791       0.000000
      0.390747       0.514468       0.000000
      0.390391       0.507240       0.000000
      0.390272       0.500000       0.000000
      0.390391       0.507240       0.000000
      0.380731       0.507577       0.000000
      0.380612       0.500000       0.000000
[...]
POINT_DATA  3648
VECTORS U float 
      0.000030       0.006997       0.000000
      0.000017       0.007007       0.000000
      0.000007       0.006996       0.000000
      0.000017       0.006979       0.000000
      0.000017       0.007007       0.000000
      0.000005       0.007013       0.000000
      0.000000       0.007010       0.000000
      0.000007       0.006996       0.000000
      0.000017       0.006979       0.000000
      0.000007       0.006996       0.000000
      0.000002       0.006990       0.000000
      0.000012       0.006970       0.000000
      0.000007       0.006996       0.000000
      0.000000       0.007010       0.000000
     -0.000004       0.007006       0.000000
      0.000002       0.006990       0.000000
      0.000005       0.007013       0.000000
     -0.000006       0.007015       0.000000
     -0.000004       0.007016       0.000000
      0.000000       0.007010       0.000000
     -0.000006       0.007015       0.000000
     -0.000018       0.007012       0.000000
     -0.000009       0.007014       0.000000
     -0.000004       0.007016       0.000000
      0.000000       0.007010       0.000000
     -0.000004       0.007016       0.000000
     -0.000004       0.007015       0.000000
     -0.000004       0.007006       0.000000
     -0.000004       0.007016       0.000000
     -0.000009       0.007014       0.000000
     -0.000004       0.007014       0.000000
     -0.000004       0.007015       0.000000
     -0.000018       0.007012       0.000000
     -0.000033       0.007005       0.000000
     -0.000017       0.007001       0.000000
     -0.000009       0.007014       0.000000
     -0.000033       0.007005       0.000000
     -0.000052       0.006995       0.000000
     -0.000029       0.006981       0.000000
     -0.000017       0.007001       0.000000
     -0.000009       0.007014       0.000000
     -0.000017       0.007001       0.000000
     -0.000007       0.006999       0.000000
     -0.000004       0.007014       0.000000
     -0.000017       0.007001       0.000000
     -0.000029       0.006981       0.000000
     -0.000016       0.006974       0.000000
     -0.000007       0.006999       0.000000
      0.000012       0.006970       0.000000
      0.000002       0.006990       0.000000
     -0.000001       0.006988       0.000000
      0.000010       0.006968       0.000000
      0.000002       0.006990       0.000000
     -0.000004       0.007006       0.000000
     -0.000006       0.007004       0.000000
     -0.000001       0.006988       0.000000
      0.000010       0.006968       0.000000
     -0.000001       0.006988       0.000000
     -0.000002       0.006991       0.000000
      0.000012       0.006974       0.000000
     -0.000001       0.006988       0.000000
     -0.000006       0.007004       0.000000
     -0.000008       0.007004       0.000000
     -0.000002       0.006991       0.000000
     -0.000004       0.007006       0.000000
     -0.000004       0.007015       0.000000
     -0.000005       0.007014       0.000000
     -0.000006       0.007004       0.000000
     -0.000004       0.007015       0.000000
     -0.000004       0.007014       0.000000
     -0.000001       0.007013       0.000000
     -0.000005       0.007014       0.000000
     -0.000006       0.007004       0.000000
     -0.000005       0.007014       0.000000
     -0.000006       0.007013       0.000000
     -0.000008       0.007004       0.000000
     -0.000005       0.007014       0.000000
     -0.000001       0.007013       0.000000
      0.000001       0.007012       0.000000
     -0.000006       0.007013       0.000000
     -0.000004       0.007014       0.000000
     -0.000007       0.006999       0.000000
     -0.000001       0.006999       0.000000
     -0.000001       0.007013       0.000000
     -0.000007       0.006999       0.000000
     -0.000016       0.006974       0.000000
     -0.000009       0.006974       0.000000
     -0.000001       0.006999       0.000000
     -0.000001       0.007013       0.000000
     -0.000001       0.006999       0.000000
      0.000002       0.007001       0.000000
      0.000001       0.007012       0.000000
     -0.000001       0.006999       0.000000
     -0.000009       0.006974       0.000000
     -0.000007       0.006980       0.000000
      0.000002       0.007001       0.000000
      0.000012       0.006974       0.000000
     -0.000002       0.006991       0.000000
     -0.000000       0.006999       0.000000
      0.000019       0.006989       0.000000
     -0.000002       0.006991       0.000000
     -0.000008       0.007004       0.000000
     -0.000009       0.007007       0.000000
     -0.000000       0.006999       0.000000
      0.000019       0.006989       0.000000
     -0.000000       0.006999       0.000000
      0.000005       0.007012       0.000000
      0.000032       0.007012       0.000000
     -0.000000       0.006999       0.000000
     -0.000009       0.007007       0.000000
     -0.000009       0.007012       0.000000
      0.000005       0.007012       0.000000
     -0.000008       0.007004       0.000000
     -0.000006       0.007013       0.000000
     -0.000007       0.007012       0.000000
     -0.000009       0.007007       0.000000
     -0.000006       0.007013       0.000000
      0.000001       0.007012       0.000000
      0.000002       0.007012       0.000000
     -0.000007       0.007012       0.000000
     -0.000009       0.007007       0.000000
     -0.000007       0.007012       0.000000
     -0.000008       0.007012       0.000000
     -0.000009       0.007012       0.000000
     -0.000007       0.007012       0.000000
      0.000002       0.007012       0.000000
      0.000002       0.007012       0.000000
     -0.000008       0.007012       0.000000
      0.000001       0.007012       0.000000
      0.000002       0.007001       0.000000
      0.000004       0.007005       0.000000
      0.000002       0.007012       0.000000
      0.000002       0.007001       0.000000
     -0.000007       0.006980       0.000000
     -0.000008       0.006993       0.000000
      0.000004       0.007005       0.000000
      0.000002       0.007012       0.000000
      0.000004       0.007005       0.000000
      0.000004       0.007012       0.000000
      0.000002       0.007012       0.000000
      0.000004       0.007005       0.000000
     -0.000008       0.006993       0.000000
     -0.000013       0.007012       0.000000
      0.000004       0.007012       0.000000
      0.000028       0.000014       0.000000
      0.000044       0.000026       0.000000
      0.000035       0.000049       0.000000
      0.000016       0.000031       0.000000
      0.000016       0.000031       0.000000
      0.000035       0.000049       0.000000
      0.000031       0.000063       0.000000
      0.000011       0.000039       0.000000
      0.000046       0.006984       0.000000
      0.000030       0.006997       0.000000
      0.000017       0.006979       0.000000
      0.000036       0.006961       0.000000
      0.000036       0.006961       0.000000
      0.000017       0.006979       0.000000
      0.000012       0.006970       0.000000
      0.000033       0.006946       0.000000
      0.000011       0.000039       0.000000
      0.000031       0.000063       0.000000
      0.000030       0.000072       0.000000
      0.000008       0.000040       0.000000
      0.000008       0.000040       0.000000
      0.000030       0.000072       0.000000
      0.000031       0.000077       0.000000
      0.000008       0.000034       0.000000
      0.000030       0.000072       0.000000
      0.000065       0.000109       0.000000
      0.000069       0.000125       0.000000
      0.000031       0.000077       0.000000
      0.000033       0.006946       0.000000
      0.000012       0.006970       0.000000
      0.000010       0.006968       0.000000
      0.000031       0.006937       0.000000
      0.000067       0.006900       0.000000
      0.000031       0.006937       0.000000
      0.000032       0.006931       0.000000
      0.000071       0.006884       0.000000
      0.000031       0.006937       0.000000
      0.000010       0.006968       0.000000
      0.000012       0.006974       0.000000
      0.000032       0.006931       0.000000
      0.000008       0.000034       0.000000
      0.000031       0.000077       0.000000
      0.000034       0.000079       0.000000
      0.000009       0.000021       0.000000
      0.000009       0.000021       0.000000
      0.000034       0.000079       0.000000
      0.000039       0.000077       0.000000
      0.000000       0.000000       0.000000
      0.000034       0.000079       0.000000
      0.000074       0.000142       0.000000
      0.000080       0.000157       0.000000
      0.000039       0.000077       0.000000
      0.000032       0.006931       0.000000
      0.000012       0.006974       0.000000
      0.000019       0.006989       0.000000
      0.000036       0.006930       0.000000
      0.000075       0.006867       0.000000
      0.000036       0.006930       0.000000
      0.000043       0.006935       0.000000
      0.000081       0.006853       0.000000
      0.000036       0.006930       0.000000
      0.000019       0.006989       0.000000
      0.000032       0.007012       0.000000
      0.000043       0.006935       0.000000
     -0.000507       0.003505       0.000000
      0.000063       0.006900       0.000000
      0.000067       0.006919       0.000000
      0.000044       0.003505       0.000000
      0.000063       0.006900       0.000000
      0.000070       0.006946       0.000000
      0.000072       0.006949       0.000000
      0.000067       0.006919       0.000000
      0.000044       0.003505       0.000000
      0.000067       0.006919       0.000000
      0.000076       0.006915       0.000000
      0.000069       0.003505       0.000000
      0.000067       0.006919       0.000000
      0.000072       0.006949       0.000000
      0.000075       0.006946       0.000000
      0.000076       0.006915       0.000000
      0.000068       0.000065       0.000000
      0.000060       0.000110       0.000000
      0.000064       0.000091       0.000000
      0.000069       0.000061       0.000000
      0.000060       0.000110       0.000000
     -0.000507       0.003505       0.000000
      0.000044       0.003505       0.000000
      0.000064       0.000091       0.000000
      0.000069       0.000061       0.000000
      0.000064       0.000091       0.000000
      0.000073       0.000095       0.000000
      0.000073       0.000065       0.000000
      0.000064       0.000091       0.000000
      0.000044       0.003505       0.000000
      0.000069       0.003505       0.000000
      0.000073       0.000095       0.000000
      0.000064       0.006969       0.000000
      0.000055       0.006977       0.000000
      0.000051       0.006962       0.000000
      0.000062       0.006954       0.000000
      0.000055       0.006977       0.000000
      0.000046       0.006984       0.000000
      0.000040       0.006971       0.000000
      0.000051       0.006962       0.000000
      0.000062       0.006954       0.000000
      0.000051       0.006962       0.000000
      0.000048       0.006951       0.000000
      0.000062       0.006941       0.000000
      0.000051       0.006962       0.000000
      0.000040       0.006971       0.000000
      0.000036       0.006961       0.000000
      0.000048       0.006951       0.000000
      0.000071       0.006959       0.000000
      0.000068       0.006964       0.000000
      0.000068       0.006957       0.000000
      0.000072       0.006954       0.000000
      0.000068       0.006964       0.000000
      0.000064       0.006969       0.000000
      0.000063       0.006961       0.000000
      0.000068       0.006957       0.000000
      0.000072       0.006954       0.000000
      0.000068       0.006957       0.000000
      0.000068       0.006950       0.000000
      0.000073       0.006946       0.000000
      0.000068       0.006957       0.000000
      0.000063       0.006961       0.000000
      0.000062       0.006954       0.000000
      0.000068       0.006950       0.000000
      0.000070       0.006946       0.000000
      0.000071       0.006954       0.000000
      0.000073       0.006954       0.000000
      0.000072       0.006949       0.000000
      0.000071       0.006954       0.000000
      0.000071       0.006959       0.000000
      0.000072       0.006957       0.000000
      0.000073       0.006954       0.000000
      0.000072       0.006949       0.000000
      0.000073       0.006954       0.000000
      0.000074       0.006951       0.000000
      0.000075       0.006946       0.000000
      0.000073       0.006954       0.000000
      0.000072       0.006957       0.000000
      0.000072       0.006954       0.000000
      0.000074       0.006951       0.000000
      0.000044       0.000026       0.000000
      0.000052       0.000034       0.000000
      0.000049       0.000048       0.000000
      0.000038       0.000040       0.000000
      0.000052       0.000034       0.000000
      0.000061       0.000042       0.000000
      0.000060       0.000056       0.000000
      0.000049       0.000048       0.000000
      0.000038       0.000040       0.000000
      0.000049       0.000048       0.000000
      0.000046       0.000059       0.000000
      0.000035       0.000049       0.000000
      0.000049       0.000048       0.000000
      0.000060       0.000056       0.000000
      0.000060       0.000069       0.000000
      0.000046       0.000059       0.000000
      0.000061       0.000042       0.000000
      0.000065       0.000046       0.000000
      0.000066       0.000053       0.000000
      0.000061       0.000049       0.000000
      0.000065       0.000046       0.000000
      0.000068       0.000052       0.000000
      0.000070       0.000057       0.000000
      0.000066       0.000053       0.000000
      0.000061       0.000049       0.000000
      0.000066       0.000053       0.000000
      0.000066       0.000060       0.000000
      0.000060       0.000056       0.000000
      0.000066       0.000053       0.000000
      0.000070       0.000057       0.000000
      0.000071       0.000064       0.000000
      0.000066       0.000060       0.000000
      0.000068       0.000052       0.000000
      0.000069       0.000056       0.000000
      0.000070       0.000056       0.000000
      0.000069       0.000054       0.000000
      0.000069       0.000056       0.000000
      0.000068       0.000065       0.000000
      0.000069       0.000061       0.000000
      0.000070       0.000056       0.000000
      0.000069       0.000054       0.000000
      0.000070       0.000056       0.000000
      0.000071       0.000059       0.000000
      0.000070       0.000057       0.000000
      0.000070       0.000056       0.000000
      0.000069       0.000061       0.000000
      0.000073       0.000065       0.000000
      0.000071       0.000059       0.000000
      0.000069       0.003505       0.000000
      0.000076       0.006915       0.000000
      0.000080       0.006911       0.000000
      0.000074       0.003505       0.000000
      0.000076       0.006915       0.000000
      0.000075       0.006946       0.000000
      0.000077       0.006941       0.000000
      0.000080       0.006911       0.000000
      0.000074       0.003505       0.000000
      0.000080       0.006911       0.000000
      0.000082       0.006907       0.000000
      0.000077       0.003505       0.000000
      0.000080       0.006911       0.000000
      0.000077       0.006941       0.000000
      0.000079       0.006937       0.000000
      0.000082       0.006907       0.000000
      0.000073       0.000065       0.000000
      0.000073       0.000095       0.000000
      0.000077       0.000099       0.000000
      0.000075       0.000069       0.000000
      0.000073       0.000095       0.000000
      0.000069       0.003505       0.000000
      0.000074       0.003505       0.000000
      0.000077       0.000099       0.000000
      0.000075       0.000069       0.000000
      0.000077       0.000099       0.000000
      0.000080       0.000103       0.000000
      0.000077       0.000073       0.000000
      0.000077       0.000099       0.000000
      0.000074       0.003505       0.000000
      0.000077       0.003505       0.000000
      0.000080       0.000103       0.000000
      0.000075       0.006946       0.000000
      0.000074       0.006951       0.000000
      0.000075       0.006947       0.000000
      0.000077       0.006941       0.000000
      0.000074       0.006951       0.000000
      0.000072       0.006954       0.000000
      0.000073       0.006950       0.000000
      0.000075       0.006947       0.000000
      0.000077       0.006941       0.000000
      0.000075       0.006947       0.000000
      0.000076       0.006943       0.000000
      0.000079       0.006937       0.000000
      0.000075       0.006947       0.000000
      0.000073       0.006950       0.000000
      0.000073       0.006946       0.000000
      0.000076       0.006943       0.000000
      0.000070       0.000057       0.000000
      0.000071       0.000059       0.000000
      0.000073       0.000063       0.000000
      0.000070       0.000060       0.000000
      0.000071       0.000059       0.000000
      0.000073       0.000065       0.000000
      0.000075       0.000069       0.000000
      0.000073       0.000063       0.000000
      0.000070       0.000060       0.000000
      0.000073       0.000063       0.000000
      0.000074       0.000067       0.000000
      0.000071       0.000064       0.000000
      0.000073       0.000063       0.000000
      0.000075       0.000069       0.000000
      0.000077       0.000073       0.000000
      0.000074       0.000067       0.000000
      0.000061       0.000090       0.000000
      0.000079       0.000106       0.000000
      0.000083       0.000118       0.000000
      0.000063       0.000100       0.000000
      0.000081       0.006903       0.000000
      0.000063       0.006919       0.000000
      0.000065       0.006909       0.000000
      0.000084       0.006891       0.000000
      0.000073       0.006946       0.000000
      0.000068       0.006950       0.000000
      0.000068       0.006943       0.000000
      0.000075       0.006938       0.000000
      0.000068       0.006950       0.000000
      0.000062       0.006954       0.000000
      0.000062       0.006947       0.000000
      0.000068       0.006943       0.000000
      0.000075       0.006938       0.000000
      0.000068       0.006943       0.000000
      0.000069       0.006936       0.000000
      0.000076       0.006930       0.000000
      0.000068       0.006943       0.000000
      0.000062       0.006947       0.000000
      0.000062       0.006941       0.000000
      0.000069       0.006936       0.000000
      0.000060       0.000056       0.000000
      0.000066       0.000060       0.000000
      0.000066       0.000067       0.000000
      0.000060       0.000062       0.000000
      0.000066       0.000060       0.000000
      0.000071       0.000064       0.000000
      0.000072       0.000072       0.000000
      0.000066       0.000067       0.000000
      0.000060       0.000062       0.000000
      0.000066       0.000067       0.000000
      0.000066       0.000074       0.000000
      0.000060       0.000069       0.000000
      0.000066       0.000067       0.000000
      0.000072       0.000072       0.000000
      0.000073       0.000079       0.000000
      0.000066       0.000074       0.000000
      0.000077       0.003505       0.000000
      0.000082       0.006907       0.000000
      0.000084       0.006903       0.000000