# vtk DataFile Version 2.0
time_10.vtk
ASCII
DATASET UNSTRUCTURED_GRID
POINTS  2304 float
      0.458579       0.641421       0.000000
      0.497369       0.671659       0.000000
      0.438243       0.730363       0.000000
      0.382149       0.701184       0.000000
      0.497369       0.671659       0.000000
      0.545805       0.692517       0.000000
      0.506084       0.750000       0.000000
      0.438243       0.730363       0.000000
      0.382149       0.701184       0.000000
      0.438243       0.730363       0.000000
      0.380813       0.787383       0.000000
      0.305719       0.760948       0.000000
      0.438243       0.730363       0.000000
      0.506084       0.750000       0.000000
      0.468251       0.804752       0.000000
      0.380813       0.787383       0.000000
      0.545805       0.692517       0.000000
      0.600000       0.700000       0.000000
      0.581017       0.756950       0.000000
      0.506084       0.750000       0.000000
      0.600000       0.700000       0.000000
      0.654195       0.692517       0.000000
      0.656527       0.750000       0.000000
      0.581017       0.756950       0.000000
      0.506084       0.750000       0.000000
      0.581017       0.756950       0.000000
      0.563060       0.810819       0.000000
      0.468251       0.804752       0.000000
      0.581017       0.756950       0.000000
      0.656527       0.750000       0.000000
      0.658747       0.804752       0.000000
      0.563060       0.810819       0.000000
      0.654195       0.692517       0.000000
      0.702631       0.671659       0.000000
      0.725999       0.730363       0.000000
      0.656527       0.750000       0.000000
      0.702631       0.671659       0.000000
      0.741421       0.641421       0.000000
      0.784518       0.701184       0.000000
      0.725999       0.730363       0.000000
      0.656527       0.750000       0.000000
      0.725999       0.730363       0.000000
      0.748697       0.787383       0.000000
      0.658747       0.804752       0.000000
      0.725999       0.730363       0.000000
      0.784518       0.701184       0.000000
      0.827614       0.760948       0.000000
      0.748697       0.787383       0.000000
      0.305719       0.760948       0.000000
      0.380813       0.787383       0.000000
      0.325006       0.842791       0.000000
      0.229289       0.820711       0.000000
      0.380813       0.787383       0.000000
      0.468251       0.804752       0.000000
      0.432173       0.856962       0.000000
      0.325006       0.842791       0.000000
      0.229289       0.820711       0.000000
      0.325006       0.842791       0.000000
      0.270755       0.896655       0.000000
      0.152860       0.880474       0.000000
      0.325006       0.842791       0.000000
      0.432173       0.856962       0.000000
      0.397732       0.906804       0.000000
      0.270755       0.896655       0.000000
      0.468251       0.804752       0.000000
      0.563060       0.810819       0.000000
      0.546050       0.861851       0.000000
      0.432173       0.856962       0.000000
      0.563060       0.810819       0.000000
      0.658747       0.804752       0.000000
      0.660865       0.856962       0.000000
      0.546050       0.861851       0.000000
      0.432173       0.856962       0.000000
      0.546050       0.861851       0.000000
      0.529912       0.910264       0.000000
      0.397732       0.906804       0.000000
      0.546050       0.861851       0.000000
      0.660865       0.856962       0.000000
      0.662887       0.906804       0.000000
      0.529912       0.910264       0.000000
      0.658747       0.804752       0.000000
      0.748697       0.787383       0.000000
      0.770753       0.842791       0.000000
      0.660865       0.856962       0.000000
      0.748697       0.787383       0.000000
      0.827614       0.760948       0.000000
      0.870711       0.820711       0.000000
      0.770753       0.842791       0.000000
      0.660865       0.856962       0.000000
      0.770753       0.842791       0.000000
      0.792195       0.896655       0.000000
      0.662887       0.906804       0.000000
      0.770753       0.842791       0.000000
      0.870711       0.820711       0.000000
      0.913807       0.880474       0.000000
      0.792195       0.896655       0.000000
      0.152860       0.880474       0.000000
      0.270755       0.896655       0.000000
      0.217995       0.949038       0.000000
      0.076430       0.940237       0.000000
      0.270755       0.896655       0.000000
      0.397732       0.906804       0.000000
      0.364819       0.954435       0.000000
      0.217995       0.949038       0.000000
      0.076430       0.940237       0.000000
      0.217995       0.949038       0.000000
      0.166667       1.000000       0.000000
      0.000000       1.000000       0.000000
      0.217995       0.949038       0.000000
      0.364819       0.954435       0.000000
      0.333333       1.000000       0.000000
      0.166667       1.000000       0.000000
      0.397732       0.906804       0.000000
      0.529912       0.910264       0.000000
      0.514582       0.956255       0.000000
      0.364819       0.954435       0.000000
      0.529912       0.910264       0.000000
      0.662887       0.906804       0.000000
      0.664819       0.954435       0.000000
      0.514582       0.956255       0.000000
      0.364819       0.954435       0.000000
      0.514582       0.956255       0.000000
      0.500000       1.000000       0.000000
      0.333333       1.000000       0.000000
      0.514582       0.956255       0.000000
      0.664819       0.954435       0.000000
      0.666667       1.000000       0.000000
      0.500000       1.000000       0.000000
      0.662887       0.906804       0.000000
      0.792195       0.896655       0.000000
      0.813047       0.949038       0.000000
      0.664819       0.954435       0.000000
      0.792195       0.896655       0.000000
      0.913807       0.880474       0.000000
      0.956904       0.940237       0.000000
      0.813047       0.949038       0.000000
      0.664819       0.954435       0.000000
      0.813047       0.949038       0.000000
      0.833333       1.000000       0.000000
      0.666667       1.000000       0.000000
      0.813047       0.949038       0.000000
      0.956904       0.940237       0.000000
      1.000000       1.000000       0.000000
      0.833333       1.000000       0.000000
      0.458579       0.358579       0.000000
      0.428341       0.397369       0.000000
      0.351758       0.356122       0.000000
      0.382149       0.298816       0.000000
      0.382149       0.298816       0.000000
      0.351758       0.356122       0.000000
      0.277372       0.316058       0.000000
      0.305719       0.239052       0.000000
      0.351758       0.356122       0.000000
      0.331305       0.424779       0.000000
      0.258747       0.404752       0.000000
      0.277372       0.316058       0.000000
      0.331305       0.424779       0.000000
      0.324066       0.500000       0.000000
      0.252241       0.500000       0.000000
      0.258747       0.404752       0.000000
      0.324066       0.500000       0.000000
      0.331305       0.575221       0.000000
      0.258747       0.595248       0.000000
      0.252241       0.500000       0.000000
      0.428341       0.602631       0.000000
      0.458579       0.641421       0.000000
      0.382149       0.701184       0.000000
      0.351758       0.643878       0.000000
      0.331305       0.575221       0.000000
      0.351758       0.643878       0.000000
      0.277372       0.683942       0.000000
      0.258747       0.595248       0.000000
      0.351758       0.643878       0.000000
      0.382149       0.701184       0.000000
      0.305719       0.760948       0.000000
      0.277372       0.683942       0.000000
      0.305719       0.239052       0.000000
      0.277372       0.316058       0.000000
      0.205089       0.277126       0.000000
      0.229289       0.179289       0.000000
      0.277372       0.316058       0.000000
      0.258747       0.404752       0.000000
      0.189557       0.385654       0.000000
      0.205089       0.277126       0.000000
      0.229289       0.179289       0.000000
      0.205089       0.277126       0.000000
      0.134820       0.239280       0.000000
      0.152860       0.119526       0.000000
      0.205089       0.277126       0.000000
      0.189557       0.385654       0.000000
      0.123505       0.367423       0.000000
      0.134820       0.239280       0.000000
      0.258747       0.404752       0.000000
      0.252241       0.500000       0.000000
      0.184198       0.500000       0.000000
      0.189557       0.385654       0.000000
      0.252241       0.500000       0.000000
      0.258747       0.595248       0.000000
      0.189557       0.614346       0.000000
      0.184198       0.500000       0.000000
      0.189557       0.385654       0.000000
      0.184198       0.500000       0.000000
      0.119648       0.500000       0.000000
      0.123505       0.367423       0.000000
      0.184198       0.500000       0.000000
      0.189557       0.614346       0.000000
      0.123505       0.632577       0.000000
      0.119648       0.500000       0.000000
      0.258747       0.595248       0.000000
      0.277372       0.683942       0.000000
      0.205089       0.722874       0.000000
      0.189557       0.614346       0.000000
      0.277372       0.683942       0.000000
      0.305719       0.760948       0.000000
      0.229289       0.820711       0.000000
      0.205089       0.722874       0.000000
      0.189557       0.614346       0.000000
      0.205089       0.722874       0.000000
      0.134820       0.760720       0.000000
      0.123505       0.632577       0.000000
[...]
POINT_DATA  2304
VECTORS U float 
      0.000558       0.005770       0.000000
      0.000365       0.006158       0.000000
      0.000149       0.005845       0.000000
      0.000386       0.005348       0.000000
      0.000365       0.006158       0.000000
      0.000191       0.006431       0.000000
      0.000005       0.006287       0.000000
      0.000149       0.005845       0.000000
      0.000386       0.005348       0.000000
      0.000149       0.005845       0.000000
      0.000129       0.005801       0.000000
      0.000425       0.005373       0.000000
      0.000149       0.005845       0.000000
      0.000005       0.006287       0.000000
     -0.000073       0.006227       0.000000
      0.000129       0.005801       0.000000
      0.000191       0.006431       0.000000
      0.000058       0.006589       0.000000
     -0.000050       0.006570       0.000000
      0.000005       0.006287       0.000000
      0.000058       0.006589       0.000000
     -0.000028       0.006662       0.000000
     -0.000072       0.006681       0.000000
     -0.000050       0.006570       0.000000
      0.000005       0.006287       0.000000
     -0.000050       0.006570       0.000000
     -0.000142       0.006547       0.000000
     -0.000073       0.006227       0.000000
     -0.000050       0.006570       0.000000
     -0.000072       0.006681       0.000000
     -0.000139       0.006689       0.000000
     -0.000142       0.006547       0.000000
     -0.000028       0.006662       0.000000
     -0.000078       0.006685       0.000000
     -0.000090       0.006701       0.000000
     -0.000072       0.006681       0.000000
     -0.000078       0.006685       0.000000
     -0.000105       0.006687       0.000000
     -0.000104       0.006691       0.000000
     -0.000090       0.006701       0.000000
     -0.000072       0.006681       0.000000
     -0.000090       0.006701       0.000000
     -0.000132       0.006713       0.000000
     -0.000139       0.006689       0.000000
     -0.000090       0.006701       0.000000
     -0.000104       0.006691       0.000000
     -0.000132       0.006701       0.000000
     -0.000132       0.006713       0.000000
      0.000425       0.005373       0.000000
      0.000129       0.005801       0.000000
      0.000168       0.005917       0.000000
      0.000513       0.005587       0.000000
      0.000129       0.005801       0.000000
     -0.000073       0.006227       0.000000
     -0.000095       0.006262       0.000000
      0.000168       0.005917       0.000000
      0.000513       0.005587       0.000000
      0.000168       0.005917       0.000000
      0.000238       0.006128       0.000000
      0.000630       0.005892       0.000000
      0.000168       0.005917       0.000000
     -0.000095       0.006262       0.000000
     -0.000084       0.006368       0.000000
      0.000238       0.006128       0.000000
     -0.000073       0.006227       0.000000
     -0.000142       0.006547       0.000000
     -0.000201       0.006554       0.000000
     -0.000095       0.006262       0.000000
     -0.000142       0.006547       0.000000
     -0.000139       0.006689       0.000000
     -0.000194       0.006695       0.000000
     -0.000201       0.006554       0.000000
     -0.000095       0.006262       0.000000
     -0.000201       0.006554       0.000000
     -0.000234       0.006588       0.000000
     -0.000084       0.006368       0.000000
     -0.000201       0.006554       0.000000
     -0.000194       0.006695       0.000000
     -0.000231       0.006703       0.000000
     -0.000234       0.006588       0.000000
     -0.000139       0.006689       0.000000
     -0.000132       0.006713       0.000000
     -0.000172       0.006719       0.000000
     -0.000194       0.006695       0.000000
     -0.000132       0.006713       0.000000
     -0.000132       0.006701       0.000000
     -0.000163       0.006708       0.000000
     -0.000172       0.006719       0.000000
     -0.000194       0.006695       0.000000
     -0.000172       0.006719       0.000000
     -0.000200       0.006721       0.000000
     -0.000231       0.006703       0.000000
     -0.000172       0.006719       0.000000
     -0.000163       0.006708       0.000000
     -0.000188       0.006714       0.000000
     -0.000200       0.006721       0.000000
      0.000630       0.005892       0.000000
      0.000238       0.006128       0.000000
      0.000338       0.006402       0.000000
      0.000796       0.006263       0.000000
      0.000238       0.006128       0.000000
     -0.000084       0.006368       0.000000
     -0.000049       0.006525       0.000000
      0.000338       0.006402       0.000000
      0.000796       0.006263       0.000000
      0.000338       0.006402       0.000000
      0.000476       0.006722       0.000000
      0.001036       0.006722       0.000000
      0.000338       0.006402       0.000000
     -0.000049       0.006525       0.000000
      0.000010       0.006722       0.000000
      0.000476       0.006722       0.000000
     -0.000084       0.006368       0.000000
     -0.000234       0.006588       0.000000
     -0.000247       0.006646       0.000000
     -0.000049       0.006525       0.000000
     -0.000234       0.006588       0.000000
     -0.000231       0.006703       0.000000
     -0.000252       0.006713       0.000000
     -0.000247       0.006646       0.000000
     -0.000049       0.006525       0.000000
     -0.000247       0.006646       0.000000
     -0.000245       0.006722       0.000000
      0.000010       0.006722       0.000000
     -0.000247       0.006646       0.000000
     -0.000252       0.006713       0.000000
     -0.000259       0.006722       0.000000
     -0.000245       0.006722       0.000000
     -0.000231       0.006703       0.000000
     -0.000200       0.006721       0.000000
     -0.000215       0.006722       0.000000
     -0.000252       0.006713       0.000000
     -0.000200       0.006721       0.000000
     -0.000188       0.006714       0.000000
     -0.000205       0.006720       0.000000
     -0.000215       0.006722       0.000000
     -0.000252       0.006713       0.000000
     -0.000215       0.006722       0.000000
     -0.000217       0.006722       0.000000
     -0.000259       0.006722       0.000000
     -0.000215       0.006722       0.000000
     -0.000205       0.006720       0.000000
     -0.000210       0.006722       0.000000
     -0.000217       0.006722       0.000000
      0.000501       0.000805       0.000000
      0.000700       0.001305       0.000000
      0.000666       0.001765       0.000000
      0.000333       0.001204       0.000000
      0.000333       0.001204       0.000000
      0.000666       0.001765       0.000000
      0.000732       0.001806       0.000000
      0.000345       0.001174       0.000000
      0.000666       0.001765       0.000000
      0.001056       0.002462       0.000000
      0.001179       0.002552       0.000000
      0.000732       0.001806       0.000000
      0.001056       0.002462       0.000000
      0.001296       0.003276       0.000000
      0.001425       0.003287       0.000000
      0.001179       0.002552       0.000000
      0.001296       0.003276       0.000000
      0.001095       0.004086       0.000000
      0.001218       0.004012       0.000000
      0.001425       0.003287       0.000000
      0.000753       0.005247       0.000000
      0.000558       0.005770       0.000000
      0.000386       0.005348       0.000000
      0.000723       0.004779       0.000000
      0.001095       0.004086       0.000000
      0.000723       0.004779       0.000000
      0.000799       0.004742       0.000000
      0.001218       0.004012       0.000000
      0.000723       0.004779       0.000000
      0.000386       0.005348       0.000000
      0.000425       0.005373       0.000000
      0.000799       0.004742       0.000000
      0.000345       0.001174       0.000000
      0.000732       0.001806       0.000000
      0.000812       0.001706       0.000000
      0.000369       0.000970       0.000000
      0.000732       0.001806       0.000000
      0.001179       0.002552       0.000000
      0.001297       0.002528       0.000000
      0.000812       0.001706       0.000000
      0.000369       0.000970       0.000000
      0.000812       0.001706       0.000000
      0.000885       0.001582       0.000000
      0.000358       0.000697       0.000000
      0.000812       0.001706       0.000000
      0.001297       0.002528       0.000000
      0.001414       0.002490       0.000000
      0.000885       0.001582       0.000000
      0.001179       0.002552       0.000000
      0.001425       0.003287       0.000000
      0.001543       0.003299       0.000000
      0.001297       0.002528       0.000000
      0.001425       0.003287       0.000000
      0.001218       0.004012       0.000000
      0.001337       0.004060       0.000000
      0.001543       0.003299       0.000000
      0.001297       0.002528       0.000000
      0.001543       0.003299       0.000000
      0.001674       0.003313       0.000000
      0.001414       0.002490       0.000000
      0.001543       0.003299       0.000000
      0.001337       0.004060       0.000000
      0.001459       0.004130       0.000000
      0.001674       0.003313       0.000000
      0.001218       0.004012       0.000000
      0.000799       0.004742       0.000000
      0.000900       0.004860       0.000000
      0.001337       0.004060       0.000000
      0.000799       0.004742       0.000000
      0.000425       0.005373       0.000000
      0.000513       0.005587       0.000000
      0.000900       0.004860       0.000000
      0.001337       0.004060       0.000000
      0.000900       0.004860       0.000000
      0.001002       0.005022       0.000000
      0.001459       0.004130       0.000000
      0.000900       0.004860       0.000000
      0.000513       0.005587       0.000000
      0.000630       0.005892       0.000000
      0.001002       0.005022       0.000000
      0.000358       0.000697       0.000000
      0.000885       0.001582       0.000000
      0.000946       0.001492       0.000000
      0.000279       0.000387       0.000000
      0.000885       0.001582       0.000000
      0.001414       0.002490       0.000000
      0.001524       0.002485       0.000000
      0.000946       0.001492       0.000000
      0.000279       0.000387       0.000000
      0.000946       0.001492       0.000000
      0.001001       0.001460       0.000000
      0.000000       0.000000       0.000000
      0.000946       0.001492       0.000000
      0.001524       0.002485       0.000000
      0.001620       0.002539       0.000000
      0.001001       0.001460       0.000000
      0.001414       0.002490       0.000000
      0.001674       0.003313       0.000000
      0.001807       0.003327       0.000000
      0.001524       0.002485       0.000000
      0.001674       0.003313       0.000000
      0.001459       0.004130       0.000000
      0.001576       0.004175       0.000000
      0.001807       0.003327       0.000000
      0.001524       0.002485       0.000000
      0.001807       0.003327       0.000000
      0.001928       0.003338       0.000000
      0.001620       0.002539       0.000000
      0.001807       0.003327       0.000000
      0.001576       0.004175       0.000000
      0.001685       0.004157       0.000000
      0.001928       0.003338       0.000000
      0.001459       0.004130       0.000000
      0.001002       0.005022       0.000000
      0.001108       0.005178       0.000000
      0.001576       0.004175       0.000000
      0.001002       0.005022       0.000000
      0.000630       0.005892       0.000000
      0.000796       0.006263       0.000000
      0.001108       0.005178       0.000000
      0.001576       0.004175       0.000000
      0.001108       0.005178       0.000000
      0.001234       0.005317       0.000000
      0.001685       0.004157       0.000000
      0.001108       0.005178       0.000000
      0.000796       0.006263       0.000000
      0.001036       0.006722       0.000000
      0.001234       0.005317       0.000000
      0.001173       0.003268       0.000000
      0.001132       0.003803       0.000000
      0.001242       0.003692       0.000000
      0.001296       0.003276       0.000000
      0.001132       0.003803       0.000000
      0.001020       0.004242       0.000000
      0.001095       0.004086       0.000000
      0.001242       0.003692       0.000000
      0.000983       0.002301       0.000000
      0.001110       0.002736       0.000000
      0.001220       0.002859       0.000000
      0.001056       0.002462       0.000000
      0.001110       0.002736       0.000000
      0.001173       0.003268       0.000000
      0.001296       0.003276       0.000000
      0.001220       0.002859       0.000000
      0.001057       0.003262       0.000000
      0.001055       0.003597       0.000000
      0.001165       0.003544       0.000000
      0.001173       0.003268       0.000000
      0.001055       0.003597       0.000000
      0.001041       0.003894       0.000000
      0.001132       0.003803       0.000000
      0.001165       0.003544       0.000000
      0.001021       0.002638       0.000000
      0.001045       0.002930       0.000000
      0.001153       0.002992       0.000000
      0.001110       0.002736       0.000000
      0.001045       0.002930       0.000000
      0.001057       0.003262       0.000000
      0.001173       0.003268       0.000000
      0.001153       0.002992       0.000000
      0.000863       0.003256       0.000000
      0.000867       0.003454       0.000000
      0.000974       0.003445       0.000000
      0.000972       0.003259       0.000000
      0.000867       0.003454       0.000000
      0.000877       0.003644       0.000000
      0.000977       0.003625       0.000000
      0.000974       0.003445       0.000000
      0.000972       0.003259       0.000000
      0.000974       0.003445       0.000000
      0.001058       0.003432       0.000000
      0.001057       0.003262       0.000000
      0.000974       0.003445       0.000000
      0.000977       0.003625       0.000000
      0.001055       0.003597       0.000000
      0.001058       0.003432       0.000000
      0.000871       0.002872       0.000000
      0.000865       0.003060       0.000000
      0.000970       0.003073       0.000000
      0.000969       0.002897       0.000000
      0.000865       0.003060       0.000000
      0.000863       0.003256       0.000000
      0.000972       0.003259       0.000000
      0.000970       0.003073       0.000000
      0.000969       0.002897       0.000000
      0.000970       0.003073       0.000000
      0.001053       0.003092       0.000000
      0.001045       0.002930       0.000000
      0.000970       0.003073       0.000000
      0.000972       0.003259       0.000000
      0.001057       0.003262       0.000000
      0.001053       0.003092       0.000000
      0.000896       0.004508       0.000000
      0.000839       0.004912       0.000000
      0.000875       0.004606       0.000000
      0.001020       0.004242       0.000000
      0.000839       0.004912       0.000000
      0.000753       0.005247       0.000000
      0.000716       0.004926       0.000000
      0.000875       0.004606       0.000000
      0.001020       0.004242       0.000000
      0.000875       0.004606       0.000000
      0.000913       0.004448       0.000000
      0.001095       0.004086       0.000000
      0.000875       0.004606       0.000000
      0.000716       0.004926       0.000000
      0.000723       0.004779       0.000000
      0.000913       0.004448       0.000000
      0.000898       0.003983       0.000000
      0.000906       0.004267       0.000000
      0.001012       0.004146       0.000000
      0.001041       0.003894       0.000000
      0.000906       0.004267       0.000000
      0.000896       0.004508       0.000000
      0.000971       0.004364       0.000000
      0.001012       0.004146       0.000000
      0.001041       0.003894       0.000000
      0.001012       0.004146       0.000000
      0.001082       0.004034       0.000000
      0.001132       0.003803       0.000000
      0.001012       0.004146       0.000000
      0.000971       0.004364       0.000000
      0.001020       0.004242       0.000000
      0.001082       0.004034       0.000000
      0.000877       0.003644       0.000000
      0.000888       0.003821       0.000000
      0.000979       0.003791       0.000000
      0.000977       0.003625       0.000000
      0.000888       0.003821       0.000000
      0.000898       0.003983       0.000000
      0.000978       0.003943       0.000000
      0.000979       0.003791       0.000000
      0.000977       0.003625       0.000000
      0.000979       0.003791       0.000000
      0.001050       0.003751       0.000000
      0.001055       0.003597       0.000000
      0.000979       0.003791       0.000000
      0.000978       0.003943       0.000000
      0.001041       0.003894       0.000000
      0.001050       0.003751       0.000000
      0.000700       0.001305       0.000000
      0.000795       0.001631       0.000000
      0.000826       0.001939       0.000000
      0.000660       0.001621       0.000000
      0.000795       0.001631       0.000000
      0.000865       0.002027       0.000000
      0.000983       0.002301       0.000000
      0.000826       0.001939       0.000000
      0.000660       0.001621       0.000000
      0.000826       0.001939       0.000000
      0.000862       0.002098       0.000000
      0.000666       0.001765       0.000000
      0.000826       0.001939       0.000000
      0.000983       0.002301       0.000000
      0.001056       0.002462       0.000000
      0.000862       0.002098       0.000000
      0.000865       0.002027       0.000000
      0.000883       0.002264       0.000000
      0.000984       0.002391       0.000000
      0.000936       0.002176       0.000000
      0.000883       0.002264       0.000000
      0.000884       0.002540       0.000000
      0.001021       0.002638       0.000000
      0.000984       0.002391       0.000000
      0.000936       0.002176       0.000000
      0.000984       0.002391       0.000000
      0.001052       0.002507       0.000000
      0.000983       0.002301       0.000000
      0.000984       0.002391       0.000000
      0.001021       0.002638       0.000000
      0.001110       0.002736       0.000000
      0.001052       0.002507       0.000000
      0.000884       0.002540       0.000000
      0.000879       0.002699       0.000000
      0.000966       0.002734       0.000000
      0.000961       0.002585       0.000000
      0.000879       0.002699       0.000000
      0.000871       0.002872       0.000000
      0.000969       0.002897       0.000000
      0.000966       0.002734       0.000000
      0.000961       0.002585       0.000000
      0.000966       0.002734       0.000000
      0.001035       0.002778       0.000000
      0.001021       0.002638       0.000000
      0.000966       0.002734       0.000000
      0.000969       0.002897       0.000000
      0.001045       0.002930       0.000000
      0.001035       0.002778       0.000000
     -0.000044       0.000018       0.000000
     -0.000017       0.000014       0.000000
     -0.000015       0.000008       0.000000
     -0.000028       0.000026       0.000000
     -0.000017       0.000014       0.000000
      0.000020       0.000028       0.000000
     -0.000009       0.000016       0.000000
     -0.000015       0.000008       0.000000
     -0.000028       0.000026       0.000000
     -0.000015       0.000008       0.000000
     -0.000030       0.000006       0.000000