# vtk DataFile Version 2.0
time_10.vtk
ASCII
DATASET UNSTRUCTURED_GRID
POINTS   756 float
      0.458579       0.641421       0.000000
      0.497369       0.671659       0.000000
      0.438243       0.730363       0.000000
      0.382149       0.701184       0.000000
      0.497369       0.671659       0.000000
      0.545805       0.692517       0.000000
      0.506084       0.750000       0.000000
      0.438243       0.730363       0.000000
      0.382149       0.701184       0.000000
      0.438243       0.730363       0.000000
      0.380813       0.787383       0.000000
      0.305719       0.760948       0.000000
      0.438243       0.730363       0.000000
      0.506084       0.750000       0.000000
      0.468251       0.804752       0.000000
      0.380813       0.787383       0.000000
      0.545805       0.692517       0.000000
      0.600000       0.700000       0.000000
      0.581017       0.756950       0.000000
      0.506084       0.750000       0.000000
      0.600000       0.700000       0.000000
      0.654195       0.692517       0.000000
      0.656527       0.750000       0.000000
      0.581017       0.756950       0.000000
      0.506084       0.750000       0.000000
      0.581017       0.756950       0.000000
      0.563060       0.810819       0.000000
      0.468251       0.804752       0.000000
      0.581017       0.756950       0.000000
      0.656527       0.750000       0.000000
      0.658747       0.804752       0.000000
      0.563060       0.810819       0.000000
      0.654195       0.692517       0.000000
      0.702631       0.671659       0.000000
      0.725999       0.730363       0.000000
      0.656527       0.750000       0.000000
      0.702631       0.671659       0.000000
      0.741421       0.641421       0.000000
      0.784518       0.701184       0.000000
      0.725999       0.730363       0.000000
      0.656527       0.750000       0.000000
      0.725999       0.730363       0.000000
      0.748697       0.787383       0.000000
      0.658747       0.804752       0.000000
      0.725999       0.730363       0.000000
      0.784518       0.701184       0.000000
      0.827614       0.760948       0.000000
      0.748697       0.787383       0.000000
      0.305719       0.760948       0.000000
      0.380813       0.787383       0.000000
      0.325006       0.842791       0.000000
      0.229289       0.820711       0.000000
      0.380813       0.787383       0.000000
      0.468251       0.804752       0.000000
      0.432173       0.856962       0.000000
      0.325006       0.842791       0.000000
      0.229289       0.820711       0.000000
      0.325006       0.842791       0.000000
      0.270755       0.896655       0.000000
      0.152860       0.880474       0.000000
      0.325006       0.842791       0.000000
      0.432173       0.856962       0.000000
      0.397732       0.906804       0.000000
      0.270755       0.896655       0.000000
      0.468251       0.804752       0.000000
      0.563060       0.810819       0.000000
      0.546050       0.861851       0.000000
      0.432173       0.856962       0.000000
      0.563060       0.810819       0.000000
      0.658747       0.804752       0.000000
      0.660865       0.856962       0.000000
      0.546050       0.861851       0.000000
      0.432173       0.856962       0.000000
      0.546050       0.861851       0.000000
      0.529912       0.910264       0.000000
      0.397732       0.906804       0.000000
      0.546050       0.861851       0.000000
      0.660865       0.856962       0.000000
      0.662887       0.906804       0.000000
      0.529912       0.910264       0.000000
      0.658747       0.804752       0.000000
      0.748697       0.787383       0.000000
      0.770753       0.842791       0.000000
      0.660865       0.856962       0.000000
      0.748697       0.787383       0.000000
      0.827614       0.760948       0.000000
      0.870711       0.820711       0.000000
      0.770753       0.842791       0.000000
      0.660865       0.856962       0.000000
      0.770753       0.842791       0.000000
      0.792195       0.896655       0.000000
      0.662887       0.906804       0.000000
      0.770753       0.842791       0.000000
      0.870711       0.820711       0.000000
      0.913807       0.880474       0.000000
      0.792195       0.896655       0.000000
      0.152860       0.880474       0.000000
      0.270755       0.896655       0.000000
      0.217995       0.949038       0.000000
      0.076430       0.940237       0.000000
      0.270755       0.896655       0.000000
      0.397732       0.906804       0.000000
      0.364819       0.954435       0.000000
      0.217995       0.949038       0.000000
      0.076430       0.940237       0.000000
      0.217995       0.949038       0.000000
      0.166667       1.000000       0.000000
      0.000000       1.000000       0.000000
      0.217995       0.949038       0.000000
      0.364819       0.954435       0.000000
      0.333333       1.000000       0.000000
      0.166667       1.000000       0.000000
      0.397732       0.906804       0.000000
      0.529912       0.910264       0.000000
      0.514582       0.956255       0.000000
      0.364819       0.954435       0.000000
      0.529912       0.910264       0.000000
      0.662887       0.906804       0.000000
      0.664819       0.954435       0.000000
      0.514582       0.956255       0.000000
      0.364819       0.954435       0.000000
      0.514582       0.956255       0.000000
      0.500000       1.000000       0.000000
      0.333333       1.000000       0.000000
      0.514582       0.956255       0.000000
      0.664819       0.954435       0.000000
      0.666667       1.000000       0.000000
      0.500000       1.000000       0.000000
      0.662887       0.906804       0.000000
      0.792195       0.896655       0.000000
      0.813047       0.949038       0.000000
      0.664819       0.954435       0.000000
      0.792195       0.896655       0.000000
      0.913807       0.880474       0.000000
      0.956904       0.940237       0.000000
      0.813047       0.949038       0.000000
      0.664819       0.954435       0.000000
      0.813047       0.949038       0.000000
      0.833333       1.000000       0.000000
      0.666667       1.000000       0.000000
      0.813047       0.949038       0.000000
      0.956904       0.940237       0.000000
      1.000000       1.000000       0.000000
      0.833333       1.000000       0.000000
      0.458579       0.358579       0.000000
      0.428341       0.397369       0.000000
      0.351758       0.356122       0.000000
      0.382149       0.298816       0.000000
      0.428341       0.397369       0.000000
      0.407483       0.445805       0.000000
      0.331305       0.424779       0.000000
      0.351758       0.356122       0.000000
      0.382149       0.298816       0.000000
      0.351758       0.356122       0.000000
      0.277372       0.316058       0.000000
      0.305719       0.239052       0.000000
      0.351758       0.356122       0.000000
      0.331305       0.424779       0.000000
      0.258747       0.404752       0.000000
      0.277372       0.316058       0.000000
      0.407483       0.445805       0.000000
      0.400000       0.500000       0.000000
      0.324066       0.500000       0.000000
      0.331305       0.424779       0.000000
      0.400000       0.500000       0.000000
      0.407483       0.554195       0.000000
      0.331305       0.575221       0.000000
      0.324066       0.500000       0.000000
      0.331305       0.424779       0.000000
      0.324066       0.500000       0.000000
      0.252241       0.500000       0.000000
      0.258747       0.404752       0.000000
      0.324066       0.500000       0.000000
      0.331305       0.575221       0.000000
      0.258747       0.595248       0.000000
      0.252241       0.500000       0.000000
      0.407483       0.554195       0.000000
      0.428341       0.602631       0.000000
      0.351758       0.643878       0.000000
      0.331305       0.575221       0.000000
      0.428341       0.602631       0.000000
      0.458579       0.641421       0.000000
      0.382149       0.701184       0.000000
      0.351758       0.643878       0.000000
      0.331305       0.575221       0.000000
      0.351758       0.643878       0.000000
      0.277372       0.683942       0.000000
      0.258747       0.595248       0.000000
      0.351758       0.643878       0.000000
      0.382149       0.701184       0.000000
      0.305719       0.760948       0.000000
      0.277372       0.683942       0.000000
      0.305719       0.239052       0.000000
      0.277372       0.316058       0.000000
      0.205089       0.277126       0.000000
      0.229289       0.179289       0.000000
      0.277372       0.316058       0.000000
      0.258747       0.404752       0.000000
      0.189557       0.385654       0.000000
      0.205089       0.277126       0.000000
      0.229289       0.179289       0.000000
      0.205089       0.277126       0.000000
      0.134820       0.239280       0.000000
      0.152860       0.119526       0.000000
      0.205089       0.277126       0.000000
      0.189557       0.385654       0.000000
      0.123505       0.367423       0.000000
      0.134820       0.239280       0.000000
      0.258747       0.404752       0.000000
      0.252241       0.500000       0.000000
      0.184198       0.500000       0.000000
      0.189557       0.385654       0.000000
      0.252241       0.500000       0.000000
      0.258747       0.595248       0.000000
      0.189557       0.614346       0.000000
      0.184198       0.500000       0.000000
      0.189557       0.385654       0.000000
      0.184198       0.500000       0.000000
      0.119648       0.500000       0.000000
      0.123505       0.367423       0.000000
[...]
POINT_DATA   756
VECTORS U float 
      0.000429       0.005564       0.000000
      0.000220       0.005944       0.000000
      0.000037       0.005653       0.000000
      0.000277       0.005162       0.000000
      0.000220       0.005944       0.000000
      0.000005       0.006198       0.000000
     -0.000120       0.006087       0.000000
      0.000037       0.005653       0.000000
      0.000277       0.005162       0.000000
      0.000037       0.005653       0.000000
      0.000059       0.005619       0.000000
      0.000345       0.005199       0.000000
      0.000037       0.005653       0.000000
     -0.000120       0.006087       0.000000
     -0.000137       0.006038       0.000000
      0.000059       0.005619       0.000000
      0.000005       0.006198       0.000000
     -0.000216       0.006302       0.000000
     -0.000203       0.006328       0.000000
     -0.000120       0.006087       0.000000
     -0.000216       0.006302       0.000000
     -0.000458       0.006250       0.000000
     -0.000284       0.006289       0.000000
     -0.000203       0.006328       0.000000
     -0.000120       0.006087       0.000000
     -0.000203       0.006328       0.000000
     -0.000203       0.006324       0.000000
     -0.000137       0.006038       0.000000
     -0.000203       0.006328       0.000000
     -0.000284       0.006289       0.000000
     -0.000213       0.006315       0.000000
     -0.000203       0.006324       0.000000
     -0.000458       0.006250       0.000000
     -0.000733       0.006043       0.000000
     -0.000431       0.005971       0.000000
     -0.000284       0.006289       0.000000
     -0.000733       0.006043       0.000000
     -0.001037       0.005696       0.000000
     -0.000690       0.005476       0.000000
     -0.000431       0.005971       0.000000
     -0.000284       0.006289       0.000000
     -0.000431       0.005971       0.000000
     -0.000306       0.005990       0.000000
     -0.000213       0.006315       0.000000
     -0.000431       0.005971       0.000000
     -0.000690       0.005476       0.000000
     -0.000545       0.005496       0.000000
     -0.000306       0.005990       0.000000
      0.000345       0.005199       0.000000
      0.000059       0.005619       0.000000
      0.000122       0.005731       0.000000
      0.000449       0.005407       0.000000
      0.000059       0.005619       0.000000
     -0.000137       0.006038       0.000000
     -0.000119       0.006072       0.000000
      0.000122       0.005731       0.000000
      0.000449       0.005407       0.000000
      0.000122       0.005731       0.000000
      0.000202       0.005930       0.000000
      0.000571       0.005701       0.000000
      0.000122       0.005731       0.000000
     -0.000119       0.006072       0.000000
     -0.000089       0.006167       0.000000
      0.000202       0.005930       0.000000
     -0.000137       0.006038       0.000000
     -0.000203       0.006324       0.000000
     -0.000197       0.006338       0.000000
     -0.000119       0.006072       0.000000
     -0.000203       0.006324       0.000000
     -0.000213       0.006315       0.000000
     -0.000175       0.006349       0.000000
     -0.000197       0.006338       0.000000
     -0.000119       0.006072       0.000000
     -0.000197       0.006338       0.000000
     -0.000192       0.006373       0.000000
     -0.000089       0.006167       0.000000
     -0.000197       0.006338       0.000000
     -0.000175       0.006349       0.000000
     -0.000153       0.006392       0.000000
     -0.000192       0.006373       0.000000
     -0.000213       0.006315       0.000000
     -0.000306       0.005990       0.000000
     -0.000239       0.006061       0.000000
     -0.000175       0.006349       0.000000
     -0.000306       0.005990       0.000000
     -0.000545       0.005496       0.000000
     -0.000466       0.005614       0.000000
     -0.000239       0.006061       0.000000
     -0.000175       0.006349       0.000000
     -0.000239       0.006061       0.000000
     -0.000202       0.006169       0.000000
     -0.000153       0.006392       0.000000
     -0.000239       0.006061       0.000000
     -0.000466       0.005614       0.000000
     -0.000444       0.005815       0.000000
     -0.000202       0.006169       0.000000
      0.000571       0.005701       0.000000
      0.000202       0.005930       0.000000
      0.000302       0.006188       0.000000
      0.000734       0.006056       0.000000
      0.000202       0.005930       0.000000
     -0.000089       0.006167       0.000000
     -0.000049       0.006310       0.000000
      0.000302       0.006188       0.000000
      0.000734       0.006056       0.000000
      0.000302       0.006188       0.000000
      0.000432       0.006492       0.000000
      0.000963       0.006492       0.000000
      0.000302       0.006188       0.000000
     -0.000049       0.006310       0.000000
      0.000004       0.006492       0.000000
      0.000432       0.006492       0.000000
     -0.000089       0.006167       0.000000
     -0.000192       0.006373       0.000000
     -0.000188       0.006425       0.000000
     -0.000049       0.006310       0.000000
     -0.000192       0.006373       0.000000
     -0.000153       0.006392       0.000000
     -0.000141       0.006441       0.000000
     -0.000188       0.006425       0.000000
     -0.000049       0.006310       0.000000
     -0.000188       0.006425       0.000000
     -0.000185       0.006492       0.000000
      0.000004       0.006492       0.000000
     -0.000188       0.006425       0.000000
     -0.000141       0.006441       0.000000
     -0.000136       0.006492       0.000000
     -0.000185       0.006492       0.000000
     -0.000153       0.006392       0.000000
     -0.000202       0.006169       0.000000
     -0.000191       0.006313       0.000000
     -0.000141       0.006441       0.000000
     -0.000202       0.006169       0.000000
     -0.000444       0.005815       0.000000
     -0.000484       0.006108       0.000000
     -0.000191       0.006313       0.000000
     -0.000141       0.006441       0.000000
     -0.000191       0.006313       0.000000
     -0.000205       0.006492       0.000000
     -0.000136       0.006492       0.000000
     -0.000191       0.006313       0.000000
     -0.000484       0.006108       0.000000
     -0.000585       0.006492       0.000000
     -0.000205       0.006492       0.000000
      0.000376       0.000801       0.000000
      0.000576       0.001298       0.000000
      0.000551       0.001737       0.000000
      0.000225       0.001184       0.000000
      0.000576       0.001298       0.000000
      0.000733       0.002021       0.000000
      0.000925       0.002412       0.000000
      0.000551       0.001737       0.000000
      0.000225       0.001184       0.000000
      0.000551       0.001737       0.000000
      0.000627       0.001760       0.000000
      0.000265       0.001143       0.000000
      0.000551       0.001737       0.000000
      0.000925       0.002412       0.000000
      0.001046       0.002478       0.000000
      0.000627       0.001760       0.000000
      0.000733       0.002021       0.000000
      0.000758       0.003155       0.000000
      0.001140       0.003171       0.000000
      0.000925       0.002412       0.000000
      0.000758       0.003155       0.000000
      0.000762       0.004306       0.000000
      0.000962       0.003927       0.000000
      0.001140       0.003171       0.000000
      0.000925       0.002412       0.000000
      0.001140       0.003171       0.000000
      0.001271       0.003181       0.000000
      0.001046       0.002478       0.000000
      0.001140       0.003171       0.000000
      0.000962       0.003927       0.000000
      0.001084       0.003876       0.000000
      0.001271       0.003181       0.000000
      0.000762       0.004306       0.000000
      0.000625       0.005044       0.000000
      0.000606       0.004599       0.000000
      0.000962       0.003927       0.000000
      0.000625       0.005044       0.000000
      0.000429       0.005564       0.000000
      0.000277       0.005162       0.000000
      0.000606       0.004599       0.000000
      0.000962       0.003927       0.000000
      0.000606       0.004599       0.000000
      0.000693       0.004580       0.000000
      0.001084       0.003876       0.000000
      0.000606       0.004599       0.000000
      0.000277       0.005162       0.000000
      0.000345       0.005199       0.000000
      0.000693       0.004580       0.000000
      0.000265       0.001143       0.000000
      0.000627       0.001760       0.000000
      0.000716       0.001653       0.000000
      0.000310       0.000939       0.000000
      0.000627       0.001760       0.000000
      0.001046       0.002478       0.000000
      0.001163       0.002446       0.000000
      0.000716       0.001653       0.000000
      0.000310       0.000939       0.000000
      0.000716       0.001653       0.000000
      0.000795       0.001524       0.000000
      0.000318       0.000671       0.000000
      0.000716       0.001653       0.000000
      0.001163       0.002446       0.000000
      0.001280       0.002403       0.000000
      0.000795       0.001524       0.000000
      0.001046       0.002478       0.000000
      0.001271       0.003181       0.000000
      0.001390       0.003193       0.000000
      0.001163       0.002446       0.000000
      0.001271       0.003181       0.000000
      0.001084       0.003876       0.000000
      0.001203       0.003930       0.000000
      0.001390       0.003193       0.000000
      0.001163       0.002446       0.000000
      0.001390       0.003193       0.000000
      0.001519       0.003206       0.000000
      0.001280       0.002403       0.000000
      0.001390       0.003193       0.000000
      0.001203       0.003930       0.000000
      0.001324       0.004002       0.000000
      0.001519       0.003206       0.000000
      0.001084       0.003876       0.000000
      0.000693       0.004580       0.000000
      0.000801       0.004703       0.000000
      0.001203       0.003930       0.000000
      0.000693       0.004580       0.000000
      0.000345       0.005199       0.000000
      0.000449       0.005407       0.000000
      0.000801       0.004703       0.000000
      0.001203       0.003930       0.000000
      0.000801       0.004703       0.000000
      0.000908       0.004864       0.000000
      0.001324       0.004002       0.000000
      0.000801       0.004703       0.000000
      0.000449       0.005407       0.000000
      0.000571       0.005701       0.000000
      0.000908       0.004864       0.000000
      0.000318       0.000671       0.000000
      0.000795       0.001524       0.000000
      0.000864       0.001428       0.000000
      0.000258       0.000370       0.000000
      0.000795       0.001524       0.000000
      0.001280       0.002403       0.000000
      0.001391       0.002391       0.000000
      0.000864       0.001428       0.000000
      0.000258       0.000370       0.000000
      0.000864       0.001428       0.000000
      0.000925       0.001385       0.000000
      0.000000       0.000000       0.000000
      0.000864       0.001428       0.000000
      0.001391       0.002391       0.000000
      0.001489       0.002434       0.000000
      0.000925       0.001385       0.000000
      0.001280       0.002403       0.000000
      0.001519       0.003206       0.000000
      0.001651       0.003219       0.000000
      0.001391       0.002391       0.000000
      0.001519       0.003206       0.000000
      0.001324       0.004002       0.000000
      0.001442       0.004050       0.000000
      0.001651       0.003219       0.000000
      0.001391       0.002391       0.000000
      0.001651       0.003219       0.000000
      0.001771       0.003229       0.000000
      0.001489       0.002434       0.000000
      0.001651       0.003219       0.000000
      0.001442       0.004050       0.000000
      0.001551       0.004041       0.000000
      0.001771       0.003229       0.000000
      0.001324       0.004002       0.000000
      0.000908       0.004864       0.000000
      0.001017       0.005020       0.000000
      0.001442       0.004050       0.000000
      0.000908       0.004864       0.000000
      0.000571       0.005701       0.000000
      0.000734       0.006056       0.000000
      0.001017       0.005020       0.000000
      0.001442       0.004050       0.000000
      0.001017       0.005020       0.000000
      0.001141       0.005159       0.000000
      0.001551       0.004041       0.000000
      0.001017       0.005020       0.000000
      0.000734       0.006056       0.000000
      0.000963       0.006492       0.000000
      0.001141       0.005159       0.000000
     -0.000975       0.000740       0.000000
     -0.000665       0.000395       0.000000
     -0.000354       0.000472       0.000000
     -0.000612       0.000968       0.000000
     -0.000665       0.000395       0.000000
     -0.000400       0.000191       0.000000
     -0.000222       0.000161       0.000000
     -0.000354       0.000472       0.000000
     -0.000612       0.000968       0.000000
     -0.000354       0.000472       0.000000
     -0.000204       0.000460       0.000000
     -0.000441       0.000957       0.000000
     -0.000354       0.000472       0.000000
     -0.000222       0.000161       0.000000
     -0.000132       0.000145       0.000000
     -0.000204       0.000460       0.000000
     -0.000400       0.000191       0.000000
     -0.000188       0.000136       0.000000
     -0.000167       0.000115       0.000000
     -0.000222       0.000161       0.000000
     -0.000188       0.000136       0.000000
     -0.000003       0.000223       0.000000
     -0.000116       0.000325       0.000000
     -0.000167       0.000115       0.000000
     -0.000222       0.000161       0.000000
     -0.000167       0.000115       0.000000
     -0.000154       0.000126       0.000000
     -0.000132       0.000145       0.000000
     -0.000167       0.000115       0.000000
     -0.000116       0.000325       0.000000
     -0.000135       0.000372       0.000000
     -0.000154       0.000126       0.000000
     -0.000003       0.000223       0.000000
      0.000182       0.000448       0.000000
      0.000007       0.000719       0.000000
     -0.000116       0.000325       0.000000
      0.000182       0.000448       0.000000
      0.000376       0.000801       0.000000
      0.000225       0.001184       0.000000
      0.000007       0.000719       0.000000
     -0.000116       0.000325       0.000000
      0.000007       0.000719       0.000000
      0.000010       0.000747       0.000000
     -0.000135       0.000372       0.000000
      0.000007       0.000719       0.000000
      0.000225       0.001184       0.000000
      0.000265       0.001143       0.000000
      0.000010       0.000747       0.000000
     -0.000441       0.000957       0.000000
     -0.000204       0.000460       0.000000
     -0.000105       0.000395       0.000000
     -0.000328       0.000844       0.000000
     -0.000204       0.000460       0.000000
     -0.000132       0.000145       0.000000
     -0.000071       0.000123       0.000000
     -0.000105       0.000395       0.000000
     -0.000328       0.000844       0.000000
     -0.000105       0.000395       0.000000
     -0.000036       0.000290       0.000000
     -0.000257       0.000647       0.000000
     -0.000105       0.000395       0.000000
     -0.000071       0.000123       0.000000
     -0.000028       0.000092       0.000000
     -0.000036       0.000290       0.000000
     -0.000132       0.000145       0.000000
     -0.000154       0.000126       0.000000
     -0.000135       0.000123       0.000000
     -0.000071       0.000123       0.000000
     -0.000154       0.000126       0.000000
     -0.000135       0.000372       0.000000
     -0.000122       0.000343       0.000000
     -0.000135       0.000123       0.000000
     -0.000071       0.000123       0.000000
     -0.000135       0.000123       0.000000
     -0.000107       0.000100       0.000000
     -0.000028       0.000092       0.000000
     -0.000135       0.000123       0.000000
     -0.000122       0.000343       0.000000
     -0.000094       0.000258       0.000000
     -0.000107       0.000100       0.000000
     -0.000135       0.000372       0.000000
      0.000010       0.000747       0.000000
      0.000038       0.000635       0.000000
     -0.000122       0.000343       0.000000
      0.000010       0.000747       0.000000
      0.000265       0.001143       0.000000
      0.000310       0.000939       0.000000
      0.000038       0.000635       0.000000
     -0.000122       0.000343       0.000000
      0.000038       0.000635       0.000000
      0.000057       0.000448       0.000000
     -0.000094       0.000258       0.000000
      0.000038       0.000635       0.000000
      0.000310       0.000939       0.000000
      0.000318       0.000671       0.000000
      0.000057       0.000448       0.000000
     -0.000257       0.000647       0.000000
     -0.000036       0.000290       0.000000
      0.000002       0.000154       0.000000
     -0.000200       0.000362       0.000000
     -0.000036       0.000290       0.000000
     -0.000028       0.000092       0.000000
     -0.000003       0.000051       0.000000
      0.000002       0.000154       0.000000
     -0.000200       0.000362       0.000000
      0.000002       0.000154       0.000000
      0.000000       0.000000       0.000000
      0.000000       0.000000       0.000000
      0.000002       0.000154       0.000000
     -0.000003       0.000051       0.000000
      0.000000       0.000000       0.000000
      0.000000       0.000000       0.000000
     -0.000028       0.000092       0.000000
     -0.000107       0.000100       0.000000
     -0.000066       0.000058       0.000000
     -0.000003       0.000051       0.000000
     -0.000107       0.000100       0.000000
     -0.000094       0.000258       0.000000
     -0.000053       0.000137       0.000000
     -0.000066       0.000058       0.000000
     -0.000003       0.000051       0.000000
     -0.000066       0.000058       0.000000
      0.000000       0.000000       0.000000
      0.000000       0.000000       0.000000
     -0.000066       0.000058       0.000000
     -0.000053       0.000137       0.000000
      0.000000       0.000000       0.000000
      0.000000       0.000000       0.000000
     -0.000094       0.000258       0.000000
      0.000057       0.000448       0.000000
      0.000049       0.000227       0.000000
     -0.000053       0.000137       0.000000
      0.000057       0.000448       0.000000
      0.000318       0.000671       0.000000
      0.000258       0.000370       0.000000
      0.000049       0.000227       0.000000
     -0.000053       0.000137       0.000000
      0.000049       0.000227       0.000000
      0.000000       0.000000       0.000000
      0.000000       0.000000       0.000000
      0.000049       0.000227       0.000000
      0.000258       0.000370       0.000000
      0.000000       0.000000       0.000000
      0.000000       0.000000       0.000000
     -0.000975       0.000740       0.000000
     -0.001320       0.001243       0.000000
     -0.001076       0.001509       0.000000
     -0.000612       0.000968       0.000000
     -0.001320       0.001243       0.000000
     -0.001632       0.001975       0.000000
     -0.001658       0.002206       0.000000
     -0.001076       0.001509       0.000000
     -0.000612       0.000968       0.000000
     -0.001076       0.001509       0.000000
     -0.000929       0.001554       0.000000