# vtk DataFile Version 2.0
time_10.vtk
ASCII
DATASET UNSTRUCTURED_GRID
POINTS  2304 float
      0.458579       0.641421       0.000000
      0.497369       0.671659       0.000000
      0.438243       0.730363       0.000000
      0.382149       0.701184       0.000000
      0.497369       0.671659       0.000000
      0.545805       0.692517       0.000000
      0.506084       0.750000       0.000000
      0.438243       0.730363       0.000000
      0.382149       0.701184       0.000000
      0.438243       0.730363       0.000000
      0.380813       0.787383       0.000000
      0.305719       0.760948       0.000000
      0.438243       0.730363       0.000000
      0.506084       0.750000       0.000000
      0.468251       0.804752       0.000000
      0.380813       0.787383       0.000000
      0.545805       0.692517       0.000000
      0.600000       0.700000       0.000000
      0.581017       0.756950       0.000000
      0.506084       0.750000       0.000000
      0.600000       0.700000       0.000000
      0.654195       0.692517       0.000000
      0.656527       0.750000       0.000000
      0.581017       0.756950       0.000000
      0.506084       0.750000       0.000000
      0.581017       0.756950       0.000000
      0.563060       0.810819       0.000000
      0.468251       0.804752       0.000000
      0.581017       0.756950       0.000000
      0.656527       0.750000       0.000000
      0.658747       0.804752       0.000000
      0.563060       0.810819       0.000000
      0.654195       0.692517       0.000000
      0.702631       0.671659       0.000000
      0.725999       0.730363       0.000000
      0.656527       0.750000       0.000000
      0.702631       0.671659       0.000000
      0.741421       0.641421       0.000000
      0.784518       0.701184       0.000000
      0.725999       0.730363       0.000000
      0.656527       0.750000       0.000000
      0.725999       0.730363       0.000000
      0.748697       0.787383       0.000000
      0.658747       0.804752       0.000000
      0.725999       0.730363       0.000000
      0.784518       0.701184       0.000000
      0.827614       0.760948       0.000000
      0.748697       0.787383       0.000000
      0.305719       0.760948       0.000000
      0.380813       0.787383       0.000000
      0.325006       0.842791       0.000000
      0.229289       0.820711       0.000000
      0.380813       0.787383       0.000000
      0.468251       0.804752       0.000000
      0.432173       0.856962       0.000000
      0.325006       0.842791       0.000000
      0.229289       0.820711       0.000000
      0.325006       0.842791       0.000000
      0.270755       0.896655       0.000000
      0.152860       0.880474       0.000000
      0.325006       0.842791       0.000000
      0.432173       0.856962       0.000000
      0.397732       0.906804       0.000000
      0.270755       0.896655       0.000000
      0.468251       0.804752       0.000000
      0.563060       0.810819       0.000000
      0.546050       0.861851       0.000000
      0.432173       0.856962       0.000000
      0.563060       0.810819       0.000000
      0.658747       0.804752       0.000000
      0.660865       0.856962       0.000000
      0.546050       0.861851       0.000000
      0.432173       0.856962       0.000000
      0.546050       0.861851       0.000000
      0.529912       0.910264       0.000000
      0.397732       0.906804       0.000000
      0.546050       0.861851       0.000000
      0.660865       0.856962       0.000000
      0.662887       0.906804       0.000000
      0.529912       0.910264       0.000000
      0.658747       0.804752       0.000000
      0.748697       0.787383       0.000000
      0.770753       0.842791       0.000000
      0.660865       0.856962       0.000000
      0.748697       0.787383       0.000000
      0.827614       0.760948       0.000000
      0.870711       0.820711       0.000000
      0.770753       0.842791       0.000000
      0.660865       0.856962       0.000000
      0.770753       0.842791       0.000000
      0.792195       0.896655       0.000000
      0.662887       0.906804       0.000000
      0.770753       0.842791       0.000000
      0.870711       0.820711       0.000000
      0.913807       0.880474       0.000000
      0.792195       0.896655       0.000000
      0.152860       0.880474       0.000000
      0.270755       0.896655       0.000000
      0.217995       0.949038       0.000000
      0.076430       0.940237       0.000000
      0.270755       0.896655       0.000000
      0.397732       0.906804       0.000000
      0.364819       0.954435       0.000000
      0.217995       0.949038       0.000000
      0.076430       0.940237       0.000000
      0.217995       0.949038       0.000000
      0.166667       1.000000       0.000000
      0.000000       1.000000       0.000000
      0.217995       0.949038       0.000000
      0.364819       0.954435       0.000000
      0.333333       1.000000       0.000000
      0.166667       1.000000       0.000000
      0.397732       0.906804       0.000000
      0.529912       0.910264       0.000000
      0.514582       0.956255       0.000000
      0.364819       0.954435       0.000000
      0.529912       0.910264       0.000000
      0.662887       0.906804       0.000000
      0.664819       0.954435       0.000000
      0.514582       0.956255       0.000000
      0.364819       0.954435       0.000000
      0.514582       0.956255       0.000000
      0.500000       1.000000       0.000000
      0.333333       1.000000       0.000000
      0.514582       0.956255       0.000000
      0.664819       0.954435       0.000000
      0.666667       1.000000       0.000000
      0.500000       1.000000       0.000000
      0.662887       0.906804       0.000000
      0.792195       0.896655       0.000000
      0.813047       0.949038       0.000000
      0.664819       0.954435       0.000000
      0.792195       0.896655       0.000000
      0.913807       0.880474       0.000000
      0.956904       0.940237       0.000000
      0.813047       0.949038       0.000000
      0.664819       0.954435       0.000000
      0.813047       0.949038       0.000000
      0.833333       1.000000       0.000000
      0.666667       1.000000       0.000000
      0.813047       0.949038       0.000000
      0.956904       0.940237       0.000000
      1.000000       1.000000       0.000000
      0.833333       1.000000       0.000000
      0.458579       0.358579       0.000000
      0.428341       0.397369       0.000000
      0.351758       0.356122       0.000000
      0.382149       0.298816       0.000000
      0.382149       0.298816       0.000000
      0.351758       0.356122       0.000000
      0.277372       0.316058       0.000000
      0.305719       0.239052       0.000000
      0.351758       0.356122       0.000000
      0.331305       0.424779       0.000000
      0.258747       0.404752       0.000000
      0.277372       0.316058       0.000000
      0.331305       0.424779       0.000000
      0.324066       0.500000       0.000000
      0.252241       0.500000       0.000000
      0.258747       0.404752       0.000000
      0.324066       0.500000       0.000000
      0.331305       0.575221       0.000000
      0.258747       0.595248       0.000000
      0.252241       0.500000       0.000000
      0.428341       0.602631       0.000000
      0.458579       0.641421       0.000000
      0.382149       0.701184       0.000000
      0.351758       0.643878       0.000000
      0.331305       0.575221       0.000000
      0.351758       0.643878       0.000000
      0.277372       0.683942       0.000000
      0.258747       0.595248       0.000000
      0.351758       0.643878       0.000000
      0.382149       0.701184       0.000000
      0.305719       0.760948       0.000000
      0.277372       0.683942       0.000000
      0.305719       0.239052       0.000000
      0.277372       0.316058       0.000000
      0.205089       0.277126       0.000000
      0.229289       0.179289       0.000000
      0.277372       0.316058       0.000000
      0.258747       0.404752       0.000000
      0.189557       0.385654       0.000000
      0.205089       0.277126       0.000000
      0.229289       0.179289       0.000000
      0.205089       0.277126       0.000000
      0.134820       0.239280       0.000000
      0.152860       0.119526       0.000000
      0.205089       0.277126       0.000000
      0.189557       0.385654       0.000000
      0.123505       0.367423       0.000000
      0.134820       0.239280       0.000000
      0.258747       0.404752       0.000000
      0.252241       0.500000       0.000000
      0.184198       0.500000       0.000000
      0.189557       0.385654       0.000000
      0.252241       0.500000       0.000000
      0.258747       0.595248       0.000000
      0.189557       0.614346       0.000000
      0.184198       0.500000       0.000000
      0.189557       0.385654       0.000000
      0.184198       0.500000       0.000000
      0.119648       0.500000       0.000000
      0.123505       0.367423       0.000000
      0.184198       0.500000       0.000000
      0.189557       0.614346       0.000000
      0.123505       0.632577       0.000000
      0.119648       0.500000       0.000000
      0.258747       0.595248       0.000000
      0.277372       0.683942       0.000000
      0.205089       0.722874       0.000000
      0.189557       0.614346       0.000000
      0.277372       0.683942       0.000000
      0.305719       0.760948       0.000000
      0.229289       0.820711       0.000000
      0.205089       0.722874       0.000000
      0.189557       0.614346       0.000000
      0.205089       0.722874       0.000000
      0.134820       0.760720       0.000000
      0.123505       0.632577       0.000000
[...]
POINT_DATA  2304
VECTORS U float 
      0.000555       0.005741       0.000000
      0.000363       0.006128       0.000000
      0.000148       0.005816       0.000000
      0.000384       0.005321       0.000000
      0.000363       0.006128       0.000000
      0.000190       0.006401       0.000000
      0.000005       0.006257       0.000000
      0.000148       0.005816       0.000000
      0.000384       0.005321       0.000000
      0.000148       0.005816       0.000000
      0.000129       0.005773       0.000000
      0.000424       0.005347       0.000000
      0.000148       0.005816       0.000000
      0.000005       0.006257       0.000000
     -0.000073       0.006197       0.000000
      0.000129       0.005773       0.000000
      0.000190       0.006401       0.000000
      0.000057       0.006559       0.000000
     -0.000050       0.006539       0.000000
      0.000005       0.006257       0.000000
      0.000057       0.006559       0.000000
     -0.000029       0.006632       0.000000
     -0.000072       0.006651       0.000000
     -0.000050       0.006539       0.000000
      0.000005       0.006257       0.000000
     -0.000050       0.006539       0.000000
     -0.000142       0.006517       0.000000
     -0.000073       0.006197       0.000000
     -0.000050       0.006539       0.000000
     -0.000072       0.006651       0.000000
     -0.000139       0.006659       0.000000
     -0.000142       0.006517       0.000000
     -0.000029       0.006632       0.000000
     -0.000078       0.006655       0.000000
     -0.000090       0.006671       0.000000
     -0.000072       0.006651       0.000000
     -0.000078       0.006655       0.000000
     -0.000105       0.006657       0.000000
     -0.000104       0.006661       0.000000
     -0.000090       0.006671       0.000000
     -0.000072       0.006651       0.000000
     -0.000090       0.006671       0.000000
     -0.000132       0.006683       0.000000
     -0.000139       0.006659       0.000000
     -0.000090       0.006671       0.000000
     -0.000104       0.006661       0.000000
     -0.000132       0.006670       0.000000
     -0.000132       0.006683       0.000000
      0.000424       0.005347       0.000000
      0.000129       0.005773       0.000000
      0.000168       0.005889       0.000000
      0.000512       0.005561       0.000000
      0.000129       0.005773       0.000000
     -0.000073       0.006197       0.000000
     -0.000094       0.006233       0.000000
      0.000168       0.005889       0.000000
      0.000512       0.005561       0.000000
      0.000168       0.005889       0.000000
      0.000238       0.006100       0.000000
      0.000629       0.005866       0.000000
      0.000168       0.005889       0.000000
     -0.000094       0.006233       0.000000
     -0.000083       0.006338       0.000000
      0.000238       0.006100       0.000000
     -0.000073       0.006197       0.000000
     -0.000142       0.006517       0.000000
     -0.000201       0.006524       0.000000
     -0.000094       0.006233       0.000000
     -0.000142       0.006517       0.000000
     -0.000139       0.006659       0.000000
     -0.000194       0.006665       0.000000
     -0.000201       0.006524       0.000000
     -0.000094       0.006233       0.000000
     -0.000201       0.006524       0.000000
     -0.000233       0.006558       0.000000
     -0.000083       0.006338       0.000000
     -0.000201       0.006524       0.000000
     -0.000194       0.006665       0.000000
     -0.000231       0.006673       0.000000
     -0.000233       0.006558       0.000000
     -0.000139       0.006659       0.000000
     -0.000132       0.006683       0.000000
     -0.000171       0.006689       0.000000
     -0.000194       0.006665       0.000000
     -0.000132       0.006683       0.000000
     -0.000132       0.006670       0.000000
     -0.000163       0.006677       0.000000
     -0.000171       0.006689       0.000000
     -0.000194       0.006665       0.000000
     -0.000171       0.006689       0.000000
     -0.000199       0.006691       0.000000
     -0.000231       0.006673       0.000000
     -0.000171       0.006689       0.000000
     -0.000163       0.006677       0.000000
     -0.000188       0.006684       0.000000
     -0.000199       0.006691       0.000000
      0.000629       0.005866       0.000000
      0.000238       0.006100       0.000000
      0.000338       0.006373       0.000000
      0.000794       0.006235       0.000000
      0.000238       0.006100       0.000000
     -0.000083       0.006338       0.000000
     -0.000048       0.006495       0.000000
      0.000338       0.006373       0.000000
      0.000794       0.006235       0.000000
      0.000338       0.006373       0.000000
      0.000476       0.006692       0.000000
      0.001033       0.006692       0.000000
      0.000338       0.006373       0.000000
     -0.000048       0.006495       0.000000
      0.000011       0.006692       0.000000
      0.000476       0.006692       0.000000
     -0.000083       0.006338       0.000000
     -0.000233       0.006558       0.000000
     -0.000247       0.006616       0.000000
     -0.000048       0.006495       0.000000
     -0.000233       0.006558       0.000000
     -0.000231       0.006673       0.000000
     -0.000252       0.006683       0.000000
     -0.000247       0.006616       0.000000
     -0.000048       0.006495       0.000000
     -0.000247       0.006616       0.000000
     -0.000244       0.006692       0.000000
      0.000011       0.006692       0.000000
     -0.000247       0.006616       0.000000
     -0.000252       0.006683       0.000000
     -0.000258       0.006692       0.000000
     -0.000244       0.006692       0.000000
     -0.000231       0.006673       0.000000
     -0.000199       0.006691       0.000000
     -0.000214       0.006692       0.000000
     -0.000252       0.006683       0.000000
     -0.000199       0.006691       0.000000
     -0.000188       0.006684       0.000000
     -0.000205       0.006690       0.000000
     -0.000214       0.006692       0.000000
     -0.000252       0.006683       0.000000
     -0.000214       0.006692       0.000000
     -0.000217       0.006692       0.000000
     -0.000258       0.006692       0.000000
     -0.000214       0.006692       0.000000
     -0.000205       0.006690       0.000000
     -0.000210       0.006692       0.000000
     -0.000217       0.006692       0.000000
      0.000499       0.000804       0.000000
      0.000696       0.001304       0.000000
      0.000663       0.001762       0.000000
      0.000331       0.001202       0.000000
      0.000331       0.001202       0.000000
      0.000663       0.001762       0.000000
      0.000729       0.001800       0.000000
      0.000344       0.001171       0.000000
      0.000663       0.001762       0.000000
      0.001051       0.002456       0.000000
      0.001173       0.002542       0.000000
      0.000729       0.001800       0.000000
      0.001051       0.002456       0.000000
      0.001286       0.003261       0.000000
      0.001416       0.003272       0.000000
      0.001173       0.002542       0.000000
      0.001286       0.003261       0.000000
      0.001090       0.004063       0.000000
      0.001212       0.003992       0.000000
      0.001416       0.003272       0.000000
      0.000749       0.005218       0.000000
      0.000555       0.005741       0.000000
      0.000384       0.005321       0.000000
      0.000720       0.004753       0.000000
      0.001090       0.004063       0.000000
      0.000720       0.004753       0.000000
      0.000796       0.004718       0.000000
      0.001212       0.003992       0.000000
      0.000720       0.004753       0.000000
      0.000384       0.005321       0.000000
      0.000424       0.005347       0.000000
      0.000796       0.004718       0.000000
      0.000344       0.001171       0.000000
      0.000729       0.001800       0.000000
      0.000809       0.001700       0.000000
      0.000368       0.000967       0.000000
      0.000729       0.001800       0.000000
      0.001173       0.002542       0.000000
      0.001290       0.002517       0.000000
      0.000809       0.001700       0.000000
      0.000368       0.000967       0.000000
      0.000809       0.001700       0.000000
      0.000881       0.001575       0.000000
      0.000357       0.000694       0.000000
      0.000809       0.001700       0.000000
      0.001290       0.002517       0.000000
      0.001407       0.002479       0.000000
      0.000881       0.001575       0.000000
      0.001173       0.002542       0.000000
      0.001416       0.003272       0.000000
      0.001534       0.003284       0.000000
      0.001290       0.002517       0.000000
      0.001416       0.003272       0.000000
      0.001212       0.003992       0.000000
      0.001330       0.004042       0.000000
      0.001534       0.003284       0.000000
      0.001290       0.002517       0.000000
      0.001534       0.003284       0.000000
      0.001664       0.003298       0.000000
      0.001407       0.002479       0.000000
      0.001534       0.003284       0.000000
      0.001330       0.004042       0.000000
      0.001451       0.004112       0.000000
      0.001664       0.003298       0.000000
      0.001212       0.003992       0.000000
      0.000796       0.004718       0.000000
      0.000896       0.004837       0.000000
      0.001330       0.004042       0.000000
      0.000796       0.004718       0.000000
      0.000424       0.005347       0.000000
      0.000512       0.005561       0.000000
      0.000896       0.004837       0.000000
      0.001330       0.004042       0.000000
      0.000896       0.004837       0.000000
      0.000999       0.004999       0.000000
      0.001451       0.004112       0.000000
      0.000896       0.004837       0.000000
      0.000512       0.005561       0.000000
      0.000629       0.005866       0.000000
      0.000999       0.004999       0.000000
      0.000357       0.000694       0.000000
      0.000881       0.001575       0.000000
      0.000943       0.001486       0.000000
      0.000278       0.000385       0.000000
      0.000881       0.001575       0.000000
      0.001407       0.002479       0.000000
      0.001517       0.002473       0.000000
      0.000943       0.001486       0.000000
      0.000278       0.000385       0.000000
      0.000943       0.001486       0.000000
      0.000996       0.001453       0.000000
      0.000000       0.000000       0.000000
      0.000943       0.001486       0.000000
      0.001517       0.002473       0.000000
      0.001612       0.002527       0.000000
      0.000996       0.001453       0.000000
      0.001407       0.002479       0.000000
      0.001664       0.003298       0.000000
      0.001797       0.003312       0.000000
      0.001517       0.002473       0.000000
      0.001664       0.003298       0.000000
      0.001451       0.004112       0.000000
      0.001568       0.004157       0.000000
      0.001797       0.003312       0.000000
      0.001517       0.002473       0.000000
      0.001797       0.003312       0.000000
      0.001918       0.003324       0.000000
      0.001612       0.002527       0.000000
      0.001797       0.003312       0.000000
      0.001568       0.004157       0.000000
      0.001677       0.004140       0.000000
      0.001918       0.003324       0.000000
      0.001451       0.004112       0.000000
      0.000999       0.004999       0.000000
      0.001104       0.005156       0.000000
      0.001568       0.004157       0.000000
      0.000999       0.004999       0.000000
      0.000629       0.005866       0.000000
      0.000794       0.006235       0.000000
      0.001104       0.005156       0.000000
      0.001568       0.004157       0.000000
      0.001104       0.005156       0.000000
      0.001229       0.005294       0.000000
      0.001677       0.004140       0.000000
      0.001104       0.005156       0.000000
      0.000794       0.006235       0.000000
      0.001033       0.006692       0.000000
      0.001229       0.005294       0.000000
      0.001164       0.003253       0.000000
      0.001124       0.003779       0.000000
      0.001234       0.003672       0.000000
      0.001286       0.003261       0.000000
      0.001124       0.003779       0.000000
      0.001015       0.004215       0.000000
      0.001090       0.004063       0.000000
      0.001234       0.003672       0.000000
      0.000977       0.002298       0.000000
      0.001103       0.002730       0.000000
      0.001212       0.002849       0.000000
      0.001051       0.002456       0.000000
      0.001103       0.002730       0.000000
      0.001164       0.003253       0.000000
      0.001286       0.003261       0.000000
      0.001212       0.002849       0.000000
      0.001050       0.003247       0.000000
      0.001049       0.003574       0.000000
      0.001156       0.003524       0.000000
      0.001164       0.003253       0.000000
      0.001049       0.003574       0.000000
      0.001034       0.003867       0.000000
      0.001124       0.003779       0.000000
      0.001156       0.003524       0.000000
      0.001015       0.002636       0.000000
      0.001039       0.002923       0.000000
      0.001145       0.002983       0.000000
      0.001103       0.002730       0.000000
      0.001039       0.002923       0.000000
      0.001050       0.003247       0.000000
      0.001164       0.003253       0.000000
      0.001145       0.002983       0.000000
      0.000861       0.003242       0.000000
      0.000865       0.003434       0.000000
      0.000969       0.003426       0.000000
      0.000967       0.003244       0.000000
      0.000865       0.003434       0.000000
      0.000874       0.003620       0.000000
      0.000972       0.003601       0.000000
      0.000969       0.003426       0.000000
      0.000967       0.003244       0.000000
      0.000969       0.003426       0.000000
      0.001051       0.003413       0.000000
      0.001050       0.003247       0.000000
      0.000969       0.003426       0.000000
      0.000972       0.003601       0.000000
      0.001049       0.003574       0.000000
      0.001051       0.003413       0.000000
      0.000868       0.002867       0.000000
      0.000863       0.003051       0.000000
      0.000965       0.003064       0.000000
      0.000963       0.002892       0.000000
      0.000863       0.003051       0.000000
      0.000861       0.003242       0.000000
      0.000967       0.003244       0.000000
      0.000965       0.003064       0.000000
      0.000963       0.002892       0.000000
      0.000965       0.003064       0.000000
      0.001046       0.003082       0.000000
      0.001039       0.002923       0.000000
      0.000965       0.003064       0.000000
      0.000967       0.003244       0.000000
      0.001050       0.003247       0.000000
      0.001046       0.003082       0.000000
      0.000890       0.004478       0.000000
      0.000834       0.004882       0.000000
      0.000871       0.004579       0.000000
      0.001015       0.004215       0.000000
      0.000834       0.004882       0.000000
      0.000749       0.005218       0.000000
      0.000712       0.004898       0.000000
      0.000871       0.004579       0.000000
      0.001015       0.004215       0.000000
      0.000871       0.004579       0.000000
      0.000909       0.004423       0.000000
      0.001090       0.004063       0.000000
      0.000871       0.004579       0.000000
      0.000712       0.004898       0.000000
      0.000720       0.004753       0.000000
      0.000909       0.004423       0.000000
      0.000893       0.003955       0.000000
      0.000899       0.004236       0.000000
      0.001006       0.004118       0.000000
      0.001034       0.003867       0.000000
      0.000899       0.004236       0.000000
      0.000890       0.004478       0.000000
      0.000966       0.004335       0.000000
      0.001006       0.004118       0.000000
      0.001034       0.003867       0.000000
      0.001006       0.004118       0.000000
      0.001076       0.004008       0.000000
      0.001124       0.003779       0.000000
      0.001006       0.004118       0.000000
      0.000966       0.004335       0.000000
      0.001015       0.004215       0.000000
      0.001076       0.004008       0.000000
      0.000874       0.003620       0.000000
      0.000884       0.003794       0.000000
      0.000973       0.003764       0.000000
      0.000972       0.003601       0.000000
      0.000884       0.003794       0.000000
      0.000893       0.003955       0.000000
      0.000972       0.003914       0.000000
      0.000973       0.003764       0.000000
      0.000972       0.003601       0.000000
      0.000973       0.003764       0.000000
      0.001043       0.003726       0.000000
      0.001049       0.003574       0.000000
      0.000973       0.003764       0.000000
      0.000972       0.003914       0.000000
      0.001034       0.003867       0.000000
      0.001043       0.003726       0.000000
      0.000696       0.001304       0.000000
      0.000790       0.001631       0.000000
      0.000822       0.001936       0.000000
      0.000657       0.001619       0.000000
      0.000790       0.001631       0.000000
      0.000859       0.002028       0.000000
      0.000977       0.002298       0.000000
      0.000822       0.001936       0.000000
      0.000657       0.001619       0.000000
      0.000822       0.001936       0.000000
      0.000858       0.002093       0.000000
      0.000663       0.001762       0.000000
      0.000822       0.001936       0.000000
      0.000977       0.002298       0.000000
      0.001051       0.002456       0.000000
      0.000858       0.002093       0.000000
      0.000859       0.002028       0.000000
      0.000876       0.002264       0.000000
      0.000978       0.002390       0.000000
      0.000930       0.002175       0.000000
      0.000876       0.002264       0.000000
      0.000878       0.002540       0.000000
      0.001015       0.002636       0.000000
      0.000978       0.002390       0.000000
      0.000930       0.002175       0.000000
      0.000978       0.002390       0.000000
      0.001046       0.002503       0.000000
      0.000977       0.002298       0.000000
      0.000978       0.002390       0.000000
      0.001015       0.002636       0.000000
      0.001103       0.002730       0.000000
      0.001046       0.002503       0.000000
      0.000878       0.002540       0.000000
      0.000874       0.002697       0.000000
      0.000960       0.002731       0.000000
      0.000955       0.002584       0.000000
      0.000874       0.002697       0.000000
      0.000868       0.002867       0.000000
      0.000963       0.002892       0.000000
      0.000960       0.002731       0.000000
      0.000955       0.002584       0.000000
      0.000960       0.002731       0.000000
      0.001028       0.002774       0.000000
      0.001015       0.002636       0.000000
      0.000960       0.002731       0.000000
      0.000963       0.002892       0.000000
      0.001039       0.002923       0.000000
      0.001028       0.002774       0.000000
     -0.000044       0.000019       0.000000
     -0.000017       0.000014       0.000000
     -0.000016       0.000008       0.000000
     -0.000029       0.000026       0.000000
     -0.000017       0.000014       0.000000
      0.000019       0.000028       0.000000
     -0.000010       0.000016       0.000000
     -0.000016       0.000008       0.000000
     -0.000029       0.000026       0.000000
     -0.000016       0.000008       0.000000
     -0.000030       0.000006       0.000000