# vtk DataFile Version 2.0
time_10.vtk
ASCII
DATASET UNSTRUCTURED_GRID
POINTS   648 float
      0.458579       0.641421       0.000000
      0.497369       0.671659       0.000000
      0.438243       0.730363       0.000000
      0.382149       0.701184       0.000000
      0.497369       0.671659       0.000000
      0.545805       0.692517       0.000000
      0.506084       0.750000       0.000000
      0.438243       0.730363       0.000000
      0.382149       0.701184       0.000000
      0.438243       0.730363       0.000000
      0.380813       0.787383       0.000000
      0.305719       0.760948       0.000000
      0.438243       0.730363       0.000000
      0.506084       0.750000       0.000000
      0.468251       0.804752       0.000000
      0.380813       0.787383       0.000000
      0.545805       0.692517       0.000000
      0.600000       0.700000       0.000000
      0.581017       0.756950       0.000000
      0.506084       0.750000       0.000000
      0.600000       0.700000       0.000000
      0.654195       0.692517       0.000000
      0.656527       0.750000       0.000000
      0.581017       0.756950       0.000000
      0.506084       0.750000       0.000000
      0.581017       0.756950       0.000000
      0.563060       0.810819       0.000000
      0.468251       0.804752       0.000000
      0.581017       0.756950       0.000000
      0.656527       0.750000       0.000000
      0.658747       0.804752       0.000000
      0.563060       0.810819       0.000000
      0.654195       0.692517       0.000000
      0.702631       0.671659       0.000000
      0.725999       0.730363       0.000000
      0.656527       0.750000       0.000000
      0.702631       0.671659       0.000000
      0.741421       0.641421       0.000000
      0.784518       0.701184       0.000000
      0.725999       0.730363       0.000000
      0.656527       0.750000       0.000000
      0.725999       0.730363       0.000000
      0.748697       0.787383       0.000000
      0.658747       0.804752       0.000000
      0.725999       0.730363       0.000000
      0.784518       0.701184       0.000000
      0.827614       0.760948       0.000000
      0.748697       0.787383       0.000000
      0.305719       0.760948       0.000000
      0.380813       0.787383       0.000000
      0.325006       0.842791       0.000000
      0.229289       0.820711       0.000000
      0.380813       0.787383       0.000000
      0.468251       0.804752       0.000000
      0.432173       0.856962       0.000000
      0.325006       0.842791       0.000000
      0.229289       0.820711       0.000000
      0.325006       0.842791       0.000000
      0.270755       0.896655       0.000000
      0.152860       0.880474       0.000000
      0.325006       0.842791       0.000000
      0.432173       0.856962       0.000000
      0.397732       0.906804       0.000000
      0.270755       0.896655       0.000000
      0.468251       0.804752       0.000000
      0.563060       0.810819       0.000000
      0.546050       0.861851       0.000000
      0.432173       0.856962       0.000000
      0.563060       0.810819       0.000000
      0.658747       0.804752       0.000000
      0.660865       0.856962       0.000000
      0.546050       0.861851       0.000000
      0.432173       0.856962       0.000000
      0.546050       0.861851       0.000000
      0.529912       0.910264       0.000000
      0.397732       0.906804       0.000000
      0.546050       0.861851       0.000000
      0.660865       0.856962       0.000000
      0.662887       0.906804       0.000000
      0.529912       0.910264       0.000000
      0.658747       0.804752       0.000000
      0.748697       0.787383       0.000000
      0.770753       0.842791       0.000000
      0.660865       0.856962       0.000000
      0.748697       0.787383       0.000000
      0.827614       0.760948       0.000000
      0.870711       0.820711       0.000000
      0.770753       0.842791       0.000000
      0.660865       0.856962       0.000000
      0.770753       0.842791       0.000000
      0.792195       0.896655       0.000000
      0.662887       0.906804       0.000000
      0.770753       0.842791       0.000000
      0.870711       0.820711       0.000000
      0.913807       0.880474       0.000000
      0.792195       0.896655       0.000000
      0.152860       0.880474       0.000000
      0.270755       0.896655       0.000000
      0.217995       0.949038       0.000000
      0.076430       0.940237       0.000000
      0.270755       0.896655       0.000000
      0.397732       0.906804       0.000000
      0.364819       0.954435       0.000000
      0.217995       0.949038       0.000000
      0.076430       0.940237       0.000000
      0.217995       0.949038       0.000000
      0.166667       1.000000       0.000000
      0.000000       1.000000       0.000000
      0.217995       0.949038       0.000000
      0.364819       0.954435       0.000000
      0.333333       1.000000       0.000000
      0.166667       1.000000       0.000000
      0.397732       0.906804       0.000000
      0.529912       0.910264       0.000000
      0.514582       0.956255       0.000000
      0.364819       0.954435       0.000000
      0.529912       0.910264       0.000000
      0.662887       0.906804       0.000000
      0.664819       0.954435       0.000000
      0.514582       0.956255       0.000000
      0.364819       0.954435       0.000000
      0.514582       0.956255       0.000000
      0.500000       1.000000       0.000000
      0.333333       1.000000       0.000000
      0.514582       0.956255       0.000000
      0.664819       0.954435       0.000000
      0.666667       1.000000       0.000000
      0.500000       1.000000       0.000000
      0.662887       0.906804       0.000000
      0.792195       0.896655       0.000000
      0.813047       0.949038       0.000000
      0.664819       0.954435       0.000000
      0.792195       0.896655       0.000000
      0.913807       0.880474       0.000000
      0.956904       0.940237       0.000000
      0.813047       0.949038       0.000000
      0.664819       0.954435       0.000000
      0.813047       0.949038       0.000000
      0.833333       1.000000       0.000000
      0.666667       1.000000       0.000000
      0.813047       0.949038       0.000000
      0.956904       0.940237       0.000000
      1.000000       1.000000       0.000000
      0.833333       1.000000       0.000000
      0.458579       0.358579       0.000000
      0.428341       0.397369       0.000000
      0.351758       0.356122       0.000000
      0.382149       0.298816       0.000000
      0.428341       0.397369       0.000000
      0.407483       0.445805       0.000000
      0.331305       0.424779       0.000000
      0.351758       0.356122       0.000000
      0.382149       0.298816       0.000000
      0.351758       0.356122       0.000000
      0.277372       0.316058       0.000000
      0.305719       0.239052       0.000000
      0.351758       0.356122       0.000000
      0.331305       0.424779       0.000000
      0.258747       0.404752       0.000000
      0.277372       0.316058       0.000000
      0.407483       0.445805       0.000000
      0.400000       0.500000       0.000000
      0.324066       0.500000       0.000000
      0.331305       0.424779       0.000000
      0.400000       0.500000       0.000000
      0.407483       0.554195       0.000000
      0.331305       0.575221       0.000000
      0.324066       0.500000       0.000000
      0.331305       0.424779       0.000000
      0.324066       0.500000       0.000000
      0.252241       0.500000       0.000000
      0.258747       0.404752       0.000000
      0.324066       0.500000       0.000000
      0.331305       0.575221       0.000000
      0.258747       0.595248       0.000000
      0.252241       0.500000       0.000000
      0.407483       0.554195       0.000000
      0.428341       0.602631       0.000000
      0.351758       0.643878       0.000000
      0.331305       0.575221       0.000000
      0.428341       0.602631       0.000000
      0.458579       0.641421       0.000000
      0.382149       0.701184       0.000000
      0.351758       0.643878       0.000000
      0.331305       0.575221       0.000000
      0.351758       0.643878       0.000000
      0.277372       0.683942       0.000000
      0.258747       0.595248       0.000000
      0.351758       0.643878       0.000000
      0.382149       0.701184       0.000000
      0.305719       0.760948       0.000000
      0.277372       0.683942       0.000000
      0.305719       0.239052       0.000000
      0.277372       0.316058       0.000000
      0.205089       0.277126       0.000000
      0.229289       0.179289       0.000000
      0.277372       0.316058       0.000000
      0.258747       0.404752       0.000000
      0.189557       0.385654       0.000000
      0.205089       0.277126       0.000000
      0.229289       0.179289       0.000000
      0.205089       0.277126       0.000000
      0.134820       0.239280       0.000000
      0.152860       0.119526       0.000000
      0.205089       0.277126       0.000000
      0.189557       0.385654       0.000000
      0.123505       0.367423       0.000000
      0.134820       0.239280       0.000000
      0.258747       0.404752       0.000000
      0.252241       0.500000       0.000000
      0.184198       0.500000       0.000000
      0.189557       0.385654       0.000000
      0.252241       0.500000       0.000000
      0.258747       0.595248       0.000000
      0.189557       0.614346       0.000000
      0.184198       0.500000       0.000000
      0.189557       0.385654       0.000000
      0.184198       0.500000       0.000000
      0.119648       0.500000       0.000000
      0.123505       0.367423       0.000000
[...]
POINT_DATA   648
VECTORS U float 
      0.000426       0.005535       0.000000
      0.000219       0.005915       0.000000
      0.000037       0.005625       0.000000
      0.000276       0.005135       0.000000
      0.000219       0.005915       0.000000
      0.000005       0.006168       0.000000
     -0.000120       0.006057       0.000000
      0.000037       0.005625       0.000000
      0.000276       0.005135       0.000000
      0.000037       0.005625       0.000000
      0.000059       0.005592       0.000000
      0.000344       0.005173       0.000000
      0.000037       0.005625       0.000000
     -0.000120       0.006057       0.000000
     -0.000137       0.006009       0.000000
      0.000059       0.005592       0.000000
      0.000005       0.006168       0.000000
     -0.000216       0.006272       0.000000
     -0.000203       0.006298       0.000000
     -0.000120       0.006057       0.000000
     -0.000216       0.006272       0.000000
     -0.000456       0.006220       0.000000
     -0.000283       0.006258       0.000000
     -0.000203       0.006298       0.000000
     -0.000120       0.006057       0.000000
     -0.000203       0.006298       0.000000
     -0.000202       0.006294       0.000000
     -0.000137       0.006009       0.000000
     -0.000203       0.006298       0.000000
     -0.000283       0.006258       0.000000
     -0.000213       0.006284       0.000000
     -0.000202       0.006294       0.000000
     -0.000456       0.006220       0.000000
     -0.000731       0.006013       0.000000
     -0.000430       0.005941       0.000000
     -0.000283       0.006258       0.000000
     -0.000731       0.006013       0.000000
     -0.001033       0.005666       0.000000
     -0.000688       0.005447       0.000000
     -0.000430       0.005941       0.000000
     -0.000283       0.006258       0.000000
     -0.000430       0.005941       0.000000
     -0.000305       0.005961       0.000000
     -0.000213       0.006284       0.000000
     -0.000430       0.005941       0.000000
     -0.000688       0.005447       0.000000
     -0.000544       0.005468       0.000000
     -0.000305       0.005961       0.000000
      0.000344       0.005173       0.000000
      0.000059       0.005592       0.000000
      0.000122       0.005703       0.000000
      0.000448       0.005381       0.000000
      0.000059       0.005592       0.000000
     -0.000137       0.006009       0.000000
     -0.000118       0.006043       0.000000
      0.000122       0.005703       0.000000
      0.000448       0.005381       0.000000
      0.000122       0.005703       0.000000
      0.000202       0.005901       0.000000
      0.000570       0.005674       0.000000
      0.000122       0.005703       0.000000
     -0.000118       0.006043       0.000000
     -0.000088       0.006138       0.000000
      0.000202       0.005901       0.000000
     -0.000137       0.006009       0.000000
     -0.000202       0.006294       0.000000
     -0.000197       0.006308       0.000000
     -0.000118       0.006043       0.000000
     -0.000202       0.006294       0.000000
     -0.000213       0.006284       0.000000
     -0.000175       0.006319       0.000000
     -0.000197       0.006308       0.000000
     -0.000118       0.006043       0.000000
     -0.000197       0.006308       0.000000
     -0.000191       0.006343       0.000000
     -0.000088       0.006138       0.000000
     -0.000197       0.006308       0.000000
     -0.000175       0.006319       0.000000
     -0.000153       0.006362       0.000000
     -0.000191       0.006343       0.000000
     -0.000213       0.006284       0.000000
     -0.000305       0.005961       0.000000
     -0.000238       0.006031       0.000000
     -0.000175       0.006319       0.000000
     -0.000305       0.005961       0.000000
     -0.000544       0.005468       0.000000
     -0.000466       0.005586       0.000000
     -0.000238       0.006031       0.000000
     -0.000175       0.006319       0.000000
     -0.000238       0.006031       0.000000
     -0.000202       0.006140       0.000000
     -0.000153       0.006362       0.000000
     -0.000238       0.006031       0.000000
     -0.000466       0.005586       0.000000
     -0.000443       0.005787       0.000000
     -0.000202       0.006140       0.000000
      0.000570       0.005674       0.000000
      0.000202       0.005901       0.000000
      0.000301       0.006159       0.000000
      0.000732       0.006028       0.000000
      0.000202       0.005901       0.000000
     -0.000088       0.006138       0.000000
     -0.000048       0.006280       0.000000
      0.000301       0.006159       0.000000
      0.000732       0.006028       0.000000
      0.000301       0.006159       0.000000
      0.000432       0.006462       0.000000
      0.000960       0.006462       0.000000
      0.000301       0.006159       0.000000
     -0.000048       0.006280       0.000000
      0.000005       0.006462       0.000000
      0.000432       0.006462       0.000000
     -0.000088       0.006138       0.000000
     -0.000191       0.006343       0.000000
     -0.000187       0.006395       0.000000
     -0.000048       0.006280       0.000000
     -0.000191       0.006343       0.000000
     -0.000153       0.006362       0.000000
     -0.000140       0.006411       0.000000
     -0.000187       0.006395       0.000000
     -0.000048       0.006280       0.000000
     -0.000187       0.006395       0.000000
     -0.000184       0.006462       0.000000
      0.000005       0.006462       0.000000
     -0.000187       0.006395       0.000000
     -0.000140       0.006411       0.000000
     -0.000136       0.006462       0.000000
     -0.000184       0.006462       0.000000
     -0.000153       0.006362       0.000000
     -0.000202       0.006140       0.000000
     -0.000192       0.006283       0.000000
     -0.000140       0.006411       0.000000
     -0.000202       0.006140       0.000000
     -0.000443       0.005787       0.000000
     -0.000483       0.006080       0.000000
     -0.000192       0.006283       0.000000
     -0.000140       0.006411       0.000000
     -0.000192       0.006283       0.000000
     -0.000205       0.006462       0.000000
     -0.000136       0.006462       0.000000
     -0.000192       0.006283       0.000000
     -0.000483       0.006080       0.000000
     -0.000584       0.006462       0.000000
     -0.000205       0.006462       0.000000
      0.000374       0.000799       0.000000
      0.000573       0.001296       0.000000
      0.000548       0.001732       0.000000
      0.000224       0.001181       0.000000
      0.000573       0.001296       0.000000
      0.000729       0.002017       0.000000
      0.000920       0.002403       0.000000
      0.000548       0.001732       0.000000
      0.000224       0.001181       0.000000
      0.000548       0.001732       0.000000
      0.000624       0.001753       0.000000
      0.000264       0.001139       0.000000
      0.000548       0.001732       0.000000
      0.000920       0.002403       0.000000
      0.001040       0.002468       0.000000
      0.000624       0.001753       0.000000
      0.000729       0.002017       0.000000
      0.000755       0.003141       0.000000
      0.001132       0.003157       0.000000
      0.000920       0.002403       0.000000
      0.000755       0.003141       0.000000
      0.000758       0.004280       0.000000
      0.000957       0.003907       0.000000
      0.001132       0.003157       0.000000
      0.000920       0.002403       0.000000
      0.001132       0.003157       0.000000
      0.001263       0.003167       0.000000
      0.001040       0.002468       0.000000
      0.001132       0.003157       0.000000
      0.000957       0.003907       0.000000
      0.001078       0.003857       0.000000
      0.001263       0.003167       0.000000
      0.000758       0.004280       0.000000
      0.000622       0.005017       0.000000
      0.000603       0.004575       0.000000
      0.000957       0.003907       0.000000
      0.000622       0.005017       0.000000
      0.000426       0.005535       0.000000
      0.000276       0.005135       0.000000
      0.000603       0.004575       0.000000
      0.000957       0.003907       0.000000
      0.000603       0.004575       0.000000
      0.000690       0.004558       0.000000
      0.001078       0.003857       0.000000
      0.000603       0.004575       0.000000
      0.000276       0.005135       0.000000
      0.000344       0.005173       0.000000
      0.000690       0.004558       0.000000
      0.000264       0.001139       0.000000
      0.000624       0.001753       0.000000
      0.000712       0.001646       0.000000
      0.000309       0.000936       0.000000
      0.000624       0.001753       0.000000
      0.001040       0.002468       0.000000
      0.001156       0.002435       0.000000
      0.000712       0.001646       0.000000
      0.000309       0.000936       0.000000
      0.000712       0.001646       0.000000
      0.000792       0.001517       0.000000
      0.000317       0.000669       0.000000
      0.000712       0.001646       0.000000
      0.001156       0.002435       0.000000
      0.001274       0.002392       0.000000
      0.000792       0.001517       0.000000
      0.001040       0.002468       0.000000
      0.001263       0.003167       0.000000
      0.001381       0.003178       0.000000
      0.001156       0.002435       0.000000
      0.001263       0.003167       0.000000
      0.001078       0.003857       0.000000
      0.001196       0.003912       0.000000
      0.001381       0.003178       0.000000
      0.001156       0.002435       0.000000
      0.001381       0.003178       0.000000
      0.001510       0.003191       0.000000
      0.001274       0.002392       0.000000
      0.001381       0.003178       0.000000
      0.001196       0.003912       0.000000
      0.001317       0.003984       0.000000
      0.001510       0.003191       0.000000
      0.001078       0.003857       0.000000
      0.000690       0.004558       0.000000
      0.000798       0.004681       0.000000
      0.001196       0.003912       0.000000
      0.000690       0.004558       0.000000
      0.000344       0.005173       0.000000
      0.000448       0.005381       0.000000
      0.000798       0.004681       0.000000
      0.001196       0.003912       0.000000
      0.000798       0.004681       0.000000
      0.000905       0.004842       0.000000
      0.001317       0.003984       0.000000
      0.000798       0.004681       0.000000
      0.000448       0.005381       0.000000
      0.000570       0.005674       0.000000
      0.000905       0.004842       0.000000
      0.000317       0.000669       0.000000
      0.000792       0.001517       0.000000
      0.000861       0.001421       0.000000
      0.000257       0.000368       0.000000
      0.000792       0.001517       0.000000
      0.001274       0.002392       0.000000
      0.001384       0.002380       0.000000
      0.000861       0.001421       0.000000
      0.000257       0.000368       0.000000
      0.000861       0.001421       0.000000
      0.000921       0.001378       0.000000
      0.000000       0.000000       0.000000
      0.000861       0.001421       0.000000
      0.001384       0.002380       0.000000
      0.001481       0.002422       0.000000
      0.000921       0.001378       0.000000
      0.001274       0.002392       0.000000
      0.001510       0.003191       0.000000
      0.001642       0.003204       0.000000
      0.001384       0.002380       0.000000
      0.001510       0.003191       0.000000
      0.001317       0.003984       0.000000
      0.001435       0.004032       0.000000
      0.001642       0.003204       0.000000
      0.001384       0.002380       0.000000
      0.001642       0.003204       0.000000
      0.001762       0.003215       0.000000
      0.001481       0.002422       0.000000
      0.001642       0.003204       0.000000
      0.001435       0.004032       0.000000
      0.001544       0.004023       0.000000
      0.001762       0.003215       0.000000
      0.001317       0.003984       0.000000
      0.000905       0.004842       0.000000
      0.001013       0.004998       0.000000
      0.001435       0.004032       0.000000
      0.000905       0.004842       0.000000
      0.000570       0.005674       0.000000
      0.000732       0.006028       0.000000
      0.001013       0.004998       0.000000
      0.001435       0.004032       0.000000
      0.001013       0.004998       0.000000
      0.001137       0.005136       0.000000
      0.001544       0.004023       0.000000
      0.001013       0.004998       0.000000
      0.000732       0.006028       0.000000
      0.000960       0.006462       0.000000
      0.001137       0.005136       0.000000
     -0.000971       0.000740       0.000000
     -0.000663       0.000395       0.000000
     -0.000353       0.000472       0.000000
     -0.000610       0.000967       0.000000
     -0.000663       0.000395       0.000000
     -0.000399       0.000191       0.000000
     -0.000221       0.000161       0.000000
     -0.000353       0.000472       0.000000
     -0.000610       0.000967       0.000000
     -0.000353       0.000472       0.000000
     -0.000203       0.000460       0.000000
     -0.000440       0.000954       0.000000
     -0.000353       0.000472       0.000000
     -0.000221       0.000161       0.000000
     -0.000131       0.000146       0.000000
     -0.000203       0.000460       0.000000
     -0.000399       0.000191       0.000000
     -0.000187       0.000136       0.000000
     -0.000166       0.000116       0.000000
     -0.000221       0.000161       0.000000
     -0.000187       0.000136       0.000000
     -0.000004       0.000223       0.000000
     -0.000116       0.000325       0.000000
     -0.000166       0.000116       0.000000
     -0.000221       0.000161       0.000000
     -0.000166       0.000116       0.000000
     -0.000154       0.000126       0.000000
     -0.000131       0.000146       0.000000
     -0.000166       0.000116       0.000000
     -0.000116       0.000325       0.000000
     -0.000135       0.000372       0.000000
     -0.000154       0.000126       0.000000
     -0.000004       0.000223       0.000000
      0.000181       0.000448       0.000000
      0.000007       0.000717       0.000000
     -0.000116       0.000325       0.000000
      0.000181       0.000448       0.000000
      0.000374       0.000799       0.000000
      0.000224       0.001181       0.000000
      0.000007       0.000717       0.000000
     -0.000116       0.000325       0.000000
      0.000007       0.000717       0.000000
      0.000010       0.000745       0.000000
     -0.000135       0.000372       0.000000
      0.000007       0.000717       0.000000
      0.000224       0.001181       0.000000
      0.000264       0.001139       0.000000
      0.000010       0.000745       0.000000
     -0.000440       0.000954       0.000000
     -0.000203       0.000460       0.000000
     -0.000105       0.000394       0.000000
     -0.000327       0.000841       0.000000
     -0.000203       0.000460       0.000000
     -0.000131       0.000146       0.000000
     -0.000071       0.000123       0.000000
     -0.000105       0.000394       0.000000
     -0.000327       0.000841       0.000000
     -0.000105       0.000394       0.000000
     -0.000036       0.000289       0.000000
     -0.000257       0.000645       0.000000
     -0.000105       0.000394       0.000000
     -0.000071       0.000123       0.000000
     -0.000028       0.000092       0.000000
     -0.000036       0.000289       0.000000
     -0.000131       0.000146       0.000000
     -0.000154       0.000126       0.000000
     -0.000134       0.000123       0.000000
     -0.000071       0.000123       0.000000
     -0.000154       0.000126       0.000000
     -0.000135       0.000372       0.000000
     -0.000121       0.000342       0.000000
     -0.000134       0.000123       0.000000
     -0.000071       0.000123       0.000000
     -0.000134       0.000123       0.000000
     -0.000107       0.000100       0.000000
     -0.000028       0.000092       0.000000
     -0.000134       0.000123       0.000000
     -0.000121       0.000342       0.000000
     -0.000093       0.000257       0.000000
     -0.000107       0.000100       0.000000
     -0.000135       0.000372       0.000000
      0.000010       0.000745       0.000000
      0.000038       0.000633       0.000000
     -0.000121       0.000342       0.000000
      0.000010       0.000745       0.000000
      0.000264       0.001139       0.000000
      0.000309       0.000936       0.000000
      0.000038       0.000633       0.000000
     -0.000121       0.000342       0.000000
      0.000038       0.000633       0.000000
      0.000057       0.000447       0.000000
     -0.000093       0.000257       0.000000
      0.000038       0.000633       0.000000
      0.000309       0.000936       0.000000
      0.000317       0.000669       0.000000
      0.000057       0.000447       0.000000
     -0.000257       0.000645       0.000000
     -0.000036       0.000289       0.000000
      0.000001       0.000154       0.000000
     -0.000199       0.000361       0.000000
     -0.000036       0.000289       0.000000
     -0.000028       0.000092       0.000000
     -0.000003       0.000051       0.000000
      0.000001       0.000154       0.000000
     -0.000199       0.000361       0.000000
      0.000001       0.000154       0.000000
      0.000000       0.000000       0.000000
      0.000000       0.000000       0.000000
      0.000001       0.000154       0.000000
     -0.000003       0.000051       0.000000
      0.000000       0.000000       0.000000
      0.000000       0.000000       0.000000
     -0.000028       0.000092       0.000000
     -0.000107       0.000100       0.000000
     -0.000065       0.000058       0.000000
     -0.000003       0.000051       0.000000
     -0.000107       0.000100       0.000000
     -0.000093       0.000257       0.000000
     -0.000052       0.000137       0.000000
     -0.000065       0.000058       0.000000
     -0.000003       0.000051       0.000000
     -0.000065       0.000058       0.000000
      0.000000       0.000000       0.000000
      0.000000       0.000000       0.000000
     -0.000065       0.000058       0.000000
     -0.000052       0.000137       0.000000
      0.000000       0.000000       0.000000
      0.000000       0.000000       0.000000
     -0.000093       0.000257       0.000000
      0.000057       0.000447       0.000000
      0.000049       0.000226       0.000000
     -0.000052       0.000137       0.000000
      0.000057       0.000447       0.000000
      0.000317       0.000669       0.000000
      0.000257       0.000368       0.000000
      0.000049       0.000226       0.000000
     -0.000052       0.000137       0.000000
      0.000049       0.000226       0.000000
      0.000000       0.000000       0.000000
      0.000000       0.000000       0.000000
      0.000049       0.000226       0.000000
      0.000257       0.000368       0.000000
      0.000000       0.000000       0.000000
      0.000000       0.000000       0.000000
     -0.000971       0.000740       0.000000
     -0.001314       0.001242       0.000000
     -0.001072       0.001506       0.000000
     -0.000610       0.000967       0.000000
     -0.001314       0.001242       0.000000
     -0.001622       0.001975       0.000000
     -0.001650       0.002201       0.000000
     -0.001072       0.001506       0.000000
     -0.000610       0.000967       0.000000
     -0.001072       0.001506       0.000000
     -0.000926       0.001550       0.000000