# vtk DataFile Version 2.0
time_10.vtk
ASCII
DATASET UNSTRUCTURED_GRID
POINTS  2376 float
      0.458579       0.641421       0.000000
      0.497369       0.671659       0.000000
      0.438243       0.730363       0.000000
      0.382149       0.701184       0.000000
      0.497369       0.671659       0.000000
      0.545805       0.692517       0.000000
      0.506084       0.750000       0.000000
      0.438243       0.730363       0.000000
      0.382149       0.701184       0.000000
      0.438243       0.730363       0.000000
      0.380813       0.787383       0.000000
      0.305719       0.760948       0.000000
      0.438243       0.730363       0.000000
      0.506084       0.750000       0.000000
      0.468251       0.804752       0.000000
      0.380813       0.787383       0.000000
      0.545805       0.692517       0.000000
      0.600000       0.700000       0.000000
      0.581017       0.756950       0.000000
      0.506084       0.750000       0.000000
      0.600000       0.700000       0.000000
      0.654195       0.692517       0.000000
      0.656527       0.750000       0.000000
      0.581017       0.756950       0.000000
      0.506084       0.750000       0.000000
      0.581017       0.756950       0.000000
      0.563060       0.810819       0.000000
      0.468251       0.804752       0.000000
      0.581017       0.756950       0.000000
      0.656527       0.750000       0.000000
      0.658747       0.804752       0.000000
      0.563060       0.810819       0.000000
      0.654195       0.692517       0.000000
      0.702631       0.671659       0.000000
      0.725999       0.730363       0.000000
      0.656527       0.750000       0.000000
      0.702631       0.671659       0.000000
      0.741421       0.641421       0.000000
      0.784518       0.701184       0.000000
      0.725999       0.730363       0.000000
      0.656527       0.750000       0.000000
      0.725999       0.730363       0.000000
      0.748697       0.787383       0.000000
      0.658747       0.804752       0.000000
      0.725999       0.730363       0.000000
      0.784518       0.701184       0.000000
      0.827614       0.760948       0.000000
      0.748697       0.787383       0.000000
      0.305719       0.760948       0.000000
      0.380813       0.787383       0.000000
      0.325006       0.842791       0.000000
      0.229289       0.820711       0.000000
      0.380813       0.787383       0.000000
      0.468251       0.804752       0.000000
      0.432173       0.856962       0.000000
      0.325006       0.842791       0.000000
      0.229289       0.820711       0.000000
      0.325006       0.842791       0.000000
      0.270755       0.896655       0.000000
      0.152860       0.880474       0.000000
      0.325006       0.842791       0.000000
      0.432173       0.856962       0.000000
      0.397732       0.906804       0.000000
      0.270755       0.896655       0.000000
      0.468251       0.804752       0.000000
      0.563060       0.810819       0.000000
      0.546050       0.861851       0.000000
      0.432173       0.856962       0.000000
      0.563060       0.810819       0.000000
      0.658747       0.804752       0.000000
      0.660865       0.856962       0.000000
      0.546050       0.861851       0.000000
      0.432173       0.856962       0.000000
      0.546050       0.861851       0.000000
      0.529912       0.910264       0.000000
      0.397732       0.906804       0.000000
      0.546050       0.861851       0.000000
      0.660865       0.856962       0.000000
      0.662887       0.906804       0.000000
      0.529912       0.910264       0.000000
      0.658747       0.804752       0.000000
      0.748697       0.787383       0.000000
      0.770753       0.842791       0.000000
      0.660865       0.856962       0.000000
      0.748697       0.787383       0.000000
      0.827614       0.760948       0.000000
      0.870711       0.820711       0.000000
      0.770753       0.842791       0.000000
      0.660865       0.856962       0.000000
      0.770753       0.842791       0.000000
      0.792195       0.896655       0.000000
      0.662887       0.906804       0.000000
      0.770753       0.842791       0.000000
      0.870711       0.820711       0.000000
      0.913807       0.880474       0.000000
      0.792195       0.896655       0.000000
      0.152860       0.880474       0.000000
      0.270755       0.896655       0.000000
      0.217995       0.949038       0.000000
      0.076430       0.940237       0.000000
      0.270755       0.896655       0.000000
      0.397732       0.906804       0.000000
      0.364819       0.954435       0.000000
      0.217995       0.949038       0.000000
      0.076430       0.940237       0.000000
      0.217995       0.949038       0.000000
      0.166667       1.000000       0.000000
      0.000000       1.000000       0.000000
      0.217995       0.949038       0.000000
      0.364819       0.954435       0.000000
      0.333333       1.000000       0.000000
      0.166667       1.000000       0.000000
      0.397732       0.906804       0.000000
      0.529912       0.910264       0.000000
      0.514582       0.956255       0.000000
      0.364819       0.954435       0.000000
      0.529912       0.910264       0.000000
      0.662887       0.906804       0.000000
      0.664819       0.954435       0.000000
      0.514582       0.956255       0.000000
      0.364819       0.954435       0.000000
      0.514582       0.956255       0.000000
      0.500000       1.000000       0.000000
      0.333333       1.000000       0.000000
      0.514582       0.956255       0.000000
      0.664819       0.954435       0.000000
      0.666667       1.000000       0.000000
      0.500000       1.000000       0.000000
      0.662887       0.906804       0.000000
      0.792195       0.896655       0.000000
      0.813047       0.949038       0.000000
      0.664819       0.954435       0.000000
      0.792195       0.896655       0.000000
      0.913807       0.880474       0.000000
      0.956904       0.940237       0.000000
      0.813047       0.949038       0.000000
      0.664819       0.954435       0.000000
      0.813047       0.949038       0.000000
      0.833333       1.000000       0.000000
      0.666667       1.000000       0.000000
      0.813047       0.949038       0.000000
      0.956904       0.940237       0.000000
      1.000000       1.000000       0.000000
      0.833333       1.000000       0.000000
      0.458579       0.358579       0.000000
      0.428341       0.397369       0.000000
      0.351758       0.356122       0.000000
      0.382149       0.298816       0.000000
      0.382149       0.298816       0.000000
      0.351758       0.356122       0.000000
      0.277372       0.316058       0.000000
      0.305719       0.239052       0.000000
      0.351758       0.356122       0.000000
      0.331305       0.424779       0.000000
      0.258747       0.404752       0.000000
      0.277372       0.316058       0.000000
      0.428341       0.602631       0.000000
      0.458579       0.641421       0.000000
      0.382149       0.701184       0.000000
      0.351758       0.643878       0.000000
      0.331305       0.575221       0.000000
      0.351758       0.643878       0.000000
      0.277372       0.683942       0.000000
      0.258747       0.595248       0.000000
      0.351758       0.643878       0.000000
      0.382149       0.701184       0.000000
      0.305719       0.760948       0.000000
      0.277372       0.683942       0.000000
      0.305719       0.239052       0.000000
      0.277372       0.316058       0.000000
      0.205089       0.277126       0.000000
      0.229289       0.179289       0.000000
      0.277372       0.316058       0.000000
      0.258747       0.404752       0.000000
      0.189557       0.385654       0.000000
      0.205089       0.277126       0.000000
      0.229289       0.179289       0.000000
      0.205089       0.277126       0.000000
      0.134820       0.239280       0.000000
      0.152860       0.119526       0.000000
      0.205089       0.277126       0.000000
      0.189557       0.385654       0.000000
      0.123505       0.367423       0.000000
      0.134820       0.239280       0.000000
      0.258747       0.404752       0.000000
      0.252241       0.500000       0.000000
      0.184198       0.500000       0.000000
      0.189557       0.385654       0.000000
      0.252241       0.500000       0.000000
      0.258747       0.595248       0.000000
      0.189557       0.614346       0.000000
      0.184198       0.500000       0.000000
      0.189557       0.385654       0.000000
      0.184198       0.500000       0.000000
      0.119648       0.500000       0.000000
      0.123505       0.367423       0.000000
      0.184198       0.500000       0.000000
      0.189557       0.614346       0.000000
      0.123505       0.632577       0.000000
      0.119648       0.500000       0.000000
      0.258747       0.595248       0.000000
      0.277372       0.683942       0.000000
      0.205089       0.722874       0.000000
      0.189557       0.614346       0.000000
      0.277372       0.683942       0.000000
      0.305719       0.760948       0.000000
      0.229289       0.820711       0.000000
      0.205089       0.722874       0.000000
      0.189557       0.614346       0.000000
      0.205089       0.722874       0.000000
      0.134820       0.760720       0.000000
      0.123505       0.632577       0.000000
      0.205089       0.722874       0.000000
      0.229289       0.820711       0.000000
      0.152860       0.880474       0.000000
      0.134820       0.760720       0.000000
      0.152860       0.119526       0.000000
      0.134820       0.239280       0.000000
      0.066483       0.202474       0.000000
      0.076430       0.059763       0.000000
[...]
POINT_DATA  2376
VECTORS U float 
      0.000566       0.005872       0.000000
      0.000370       0.006260       0.000000
      0.000152       0.005946       0.000000
      0.000390       0.005445       0.000000
      0.000370       0.006260       0.000000
      0.000193       0.006533       0.000000
      0.000007       0.006388       0.000000
      0.000152       0.005946       0.000000
      0.000390       0.005445       0.000000
      0.000152       0.005946       0.000000
      0.000129       0.005898       0.000000
      0.000428       0.005464       0.000000
      0.000152       0.005946       0.000000
      0.000007       0.006388       0.000000
     -0.000073       0.006327       0.000000
      0.000129       0.005898       0.000000
      0.000193       0.006533       0.000000
      0.000059       0.006691       0.000000
     -0.000049       0.006671       0.000000
      0.000007       0.006388       0.000000
      0.000059       0.006691       0.000000
     -0.000028       0.006763       0.000000
     -0.000071       0.006783       0.000000
     -0.000049       0.006671       0.000000
      0.000007       0.006388       0.000000
     -0.000049       0.006671       0.000000
     -0.000142       0.006649       0.000000
     -0.000073       0.006327       0.000000
     -0.000049       0.006671       0.000000
     -0.000071       0.006783       0.000000
     -0.000139       0.006790       0.000000
     -0.000142       0.006649       0.000000
     -0.000028       0.006763       0.000000
     -0.000077       0.006786       0.000000
     -0.000089       0.006802       0.000000
     -0.000071       0.006783       0.000000
     -0.000077       0.006786       0.000000
     -0.000104       0.006788       0.000000
     -0.000104       0.006792       0.000000
     -0.000089       0.006802       0.000000
     -0.000071       0.006783       0.000000
     -0.000089       0.006802       0.000000
     -0.000132       0.006814       0.000000
     -0.000139       0.006790       0.000000
     -0.000089       0.006802       0.000000
     -0.000104       0.006792       0.000000
     -0.000132       0.006802       0.000000
     -0.000132       0.006814       0.000000
      0.000428       0.005464       0.000000
      0.000129       0.005898       0.000000
      0.000167       0.006013       0.000000
      0.000515       0.005676       0.000000
      0.000129       0.005898       0.000000
     -0.000073       0.006327       0.000000
     -0.000097       0.006362       0.000000
      0.000167       0.006013       0.000000
      0.000515       0.005676       0.000000
      0.000167       0.006013       0.000000
      0.000236       0.006224       0.000000
      0.000633       0.005982       0.000000
      0.000167       0.006013       0.000000
     -0.000097       0.006362       0.000000
     -0.000087       0.006467       0.000000
      0.000236       0.006224       0.000000
     -0.000073       0.006327       0.000000
     -0.000142       0.006649       0.000000
     -0.000202       0.006655       0.000000
     -0.000097       0.006362       0.000000
     -0.000142       0.006649       0.000000
     -0.000139       0.006790       0.000000
     -0.000194       0.006796       0.000000
     -0.000202       0.006655       0.000000
     -0.000097       0.006362       0.000000
     -0.000202       0.006655       0.000000
     -0.000236       0.006689       0.000000
     -0.000087       0.006467       0.000000
     -0.000202       0.006655       0.000000
     -0.000194       0.006796       0.000000
     -0.000232       0.006804       0.000000
     -0.000236       0.006689       0.000000
     -0.000139       0.006790       0.000000
     -0.000132       0.006814       0.000000
     -0.000172       0.006820       0.000000
     -0.000194       0.006796       0.000000
     -0.000132       0.006814       0.000000
     -0.000132       0.006802       0.000000
     -0.000163       0.006809       0.000000
     -0.000172       0.006820       0.000000
     -0.000194       0.006796       0.000000
     -0.000172       0.006820       0.000000
     -0.000200       0.006822       0.000000
     -0.000232       0.006804       0.000000
     -0.000172       0.006820       0.000000
     -0.000163       0.006809       0.000000
     -0.000188       0.006815       0.000000
     -0.000200       0.006822       0.000000
      0.000633       0.005982       0.000000
      0.000236       0.006224       0.000000
      0.000337       0.006499       0.000000
      0.000800       0.006356       0.000000
      0.000236       0.006224       0.000000
     -0.000087       0.006467       0.000000
     -0.000052       0.006624       0.000000
      0.000337       0.006499       0.000000
      0.000800       0.006356       0.000000
      0.000337       0.006499       0.000000
      0.000475       0.006822       0.000000
      0.001044       0.006822       0.000000
      0.000337       0.006499       0.000000
     -0.000052       0.006624       0.000000
      0.000006       0.006822       0.000000
      0.000475       0.006822       0.000000
     -0.000087       0.006467       0.000000
     -0.000236       0.006689       0.000000
     -0.000250       0.006746       0.000000
     -0.000052       0.006624       0.000000
     -0.000236       0.006689       0.000000
     -0.000232       0.006804       0.000000
     -0.000254       0.006813       0.000000
     -0.000250       0.006746       0.000000
     -0.000052       0.006624       0.000000
     -0.000250       0.006746       0.000000
     -0.000247       0.006822       0.000000
      0.000006       0.006822       0.000000
     -0.000250       0.006746       0.000000
     -0.000254       0.006813       0.000000
     -0.000260       0.006822       0.000000
     -0.000247       0.006822       0.000000
     -0.000232       0.006804       0.000000
     -0.000200       0.006822       0.000000
     -0.000215       0.006822       0.000000
     -0.000254       0.006813       0.000000
     -0.000200       0.006822       0.000000
     -0.000188       0.006815       0.000000
     -0.000205       0.006821       0.000000
     -0.000215       0.006822       0.000000
     -0.000254       0.006813       0.000000
     -0.000215       0.006822       0.000000
     -0.000218       0.006822       0.000000
     -0.000260       0.006822       0.000000
     -0.000215       0.006822       0.000000
     -0.000205       0.006821       0.000000
     -0.000210       0.006822       0.000000
     -0.000218       0.006822       0.000000
      0.000510       0.000803       0.000000
      0.000714       0.001300       0.000000
      0.000674       0.001772       0.000000
      0.000337       0.001207       0.000000
      0.000337       0.001207       0.000000
      0.000674       0.001772       0.000000
      0.000741       0.001823       0.000000
      0.000348       0.001182       0.000000
      0.000674       0.001772       0.000000
      0.001074       0.002479       0.000000
      0.001201       0.002585       0.000000
      0.000741       0.001823       0.000000
      0.000767       0.005352       0.000000
      0.000566       0.005872       0.000000
      0.000390       0.005445       0.000000
      0.000731       0.004871       0.000000
      0.001114       0.004167       0.000000
      0.000731       0.004871       0.000000
      0.000808       0.004824       0.000000
      0.001240       0.004077       0.000000
      0.000731       0.004871       0.000000
      0.000390       0.005445       0.000000
      0.000428       0.005464       0.000000
      0.000808       0.004824       0.000000
      0.000348       0.001182       0.000000
      0.000741       0.001823       0.000000
      0.000823       0.001726       0.000000
      0.000372       0.000980       0.000000
      0.000741       0.001823       0.000000
      0.001201       0.002585       0.000000
      0.001321       0.002564       0.000000
      0.000823       0.001726       0.000000
      0.000372       0.000980       0.000000
      0.000823       0.001726       0.000000
      0.000896       0.001603       0.000000
      0.000361       0.000705       0.000000
      0.000823       0.001726       0.000000
      0.001321       0.002564       0.000000
      0.001440       0.002528       0.000000
      0.000896       0.001603       0.000000
      0.001201       0.002585       0.000000
      0.001461       0.003336       0.000000
      0.001578       0.003348       0.000000
      0.001321       0.002564       0.000000
      0.001461       0.003336       0.000000
      0.001240       0.004077       0.000000
      0.001362       0.004122       0.000000
      0.001578       0.003348       0.000000
      0.001321       0.002564       0.000000
      0.001578       0.003348       0.000000
      0.001708       0.003362       0.000000
      0.001440       0.002528       0.000000
      0.001578       0.003348       0.000000
      0.001362       0.004122       0.000000
      0.001484       0.004191       0.000000
      0.001708       0.003362       0.000000
      0.001240       0.004077       0.000000
      0.000808       0.004824       0.000000
      0.000910       0.004938       0.000000
      0.001362       0.004122       0.000000
      0.000808       0.004824       0.000000
      0.000428       0.005464       0.000000
      0.000515       0.005676       0.000000
      0.000910       0.004938       0.000000
      0.001362       0.004122       0.000000
      0.000910       0.004938       0.000000
      0.001013       0.005098       0.000000
      0.001484       0.004191       0.000000
      0.000910       0.004938       0.000000
      0.000515       0.005676       0.000000
      0.000633       0.005982       0.000000
      0.001013       0.005098       0.000000
      0.000361       0.000705       0.000000
      0.000896       0.001603       0.000000
      0.000959       0.001515       0.000000
      0.000282       0.000392       0.000000
      0.000896       0.001603       0.000000
      0.001440       0.002528       0.000000
      0.001551       0.002523       0.000000
      0.000959       0.001515       0.000000
      0.000282       0.000392       0.000000
      0.000959       0.001515       0.000000
      0.001014       0.001484       0.000000
      0.000000       0.000000       0.000000
      0.000959       0.001515       0.000000
      0.001551       0.002523       0.000000
      0.001648       0.002581       0.000000
      0.001014       0.001484       0.000000
      0.001440       0.002528       0.000000
      0.001708       0.003362       0.000000
      0.001843       0.003376       0.000000
      0.001551       0.002523       0.000000
      0.001708       0.003362       0.000000
      0.001484       0.004191       0.000000
      0.001603       0.004234       0.000000
      0.001843       0.003376       0.000000
      0.001551       0.002523       0.000000
      0.001843       0.003376       0.000000
      0.001965       0.003387       0.000000
      0.001648       0.002581       0.000000
      0.001843       0.003376       0.000000
      0.001603       0.004234       0.000000
      0.001712       0.004213       0.000000
      0.001965       0.003387       0.000000
      0.001484       0.004191       0.000000
      0.001013       0.005098       0.000000
      0.001120       0.005254       0.000000
      0.001603       0.004234       0.000000
      0.001013       0.005098       0.000000
      0.000633       0.005982       0.000000
      0.000800       0.006356       0.000000
      0.001120       0.005254       0.000000
      0.001603       0.004234       0.000000
      0.001120       0.005254       0.000000
      0.001246       0.005392       0.000000
      0.001712       0.004213       0.000000
      0.001120       0.005254       0.000000
      0.000800       0.006356       0.000000
      0.001044       0.006822       0.000000
      0.001246       0.005392       0.000000
      0.001159       0.003893       0.000000
      0.001039       0.004342       0.000000
      0.001114       0.004167       0.000000
      0.001272       0.003760       0.000000
      0.001000       0.002300       0.000000
      0.001137       0.002744       0.000000
      0.001249       0.002889       0.000000
      0.001074       0.002479       0.000000
      0.001082       0.003687       0.000000
      0.001066       0.004004       0.000000
      0.001159       0.003893       0.000000
      0.001199       0.003619       0.000000
      0.001046       0.002627       0.000000
      0.001072       0.002936       0.000000
      0.001186       0.003015       0.000000
      0.001137       0.002744       0.000000
      0.000862       0.003303       0.000000
      0.000869       0.003529       0.000000
      0.000991       0.003521       0.000000
      0.000988       0.003305       0.000000
      0.000869       0.003529       0.000000
      0.000886       0.003742       0.000000
      0.000997       0.003723       0.000000
      0.000991       0.003521       0.000000
      0.000988       0.003305       0.000000
      0.000991       0.003521       0.000000
      0.001085       0.003503       0.000000
      0.001084       0.003309       0.000000
      0.000991       0.003521       0.000000
      0.000997       0.003723       0.000000
      0.001082       0.003687       0.000000
      0.001085       0.003503       0.000000
      0.000882       0.002871       0.000000
      0.000868       0.003079       0.000000
      0.000987       0.003092       0.000000
      0.000989       0.002895       0.000000
      0.000868       0.003079       0.000000
      0.000862       0.003303       0.000000
      0.000988       0.003305       0.000000
      0.000987       0.003092       0.000000
      0.000989       0.002895       0.000000
      0.000987       0.003092       0.000000
      0.001080       0.003116       0.000000
      0.001072       0.002936       0.000000
      0.000987       0.003092       0.000000
      0.000988       0.003305       0.000000
      0.001084       0.003309       0.000000
      0.001080       0.003116       0.000000
      0.000920       0.004623       0.000000
      0.000858       0.005019       0.000000
      0.000888       0.004706       0.000000
      0.001039       0.004342       0.000000
      0.000858       0.005019       0.000000
      0.000767       0.005352       0.000000
      0.000726       0.005025       0.000000
      0.000888       0.004706       0.000000
      0.001039       0.004342       0.000000
      0.000888       0.004706       0.000000
      0.000925       0.004536       0.000000
      0.001114       0.004167       0.000000
      0.000888       0.004706       0.000000
      0.000726       0.005025       0.000000
      0.000731       0.004871       0.000000
      0.000925       0.004536       0.000000
      0.000920       0.004101       0.000000
      0.000931       0.004386       0.000000
      0.001035       0.004259       0.000000
      0.001066       0.004004       0.000000
      0.000931       0.004386       0.000000
      0.000920       0.004623       0.000000
      0.000992       0.004474       0.000000
      0.001035       0.004259       0.000000
      0.001066       0.004004       0.000000
      0.001035       0.004259       0.000000
      0.001104       0.004132       0.000000
      0.001159       0.003893       0.000000
      0.001035       0.004259       0.000000
      0.000992       0.004474       0.000000
      0.001039       0.004342       0.000000
      0.001104       0.004132       0.000000
      0.000886       0.003742       0.000000
      0.000905       0.003933       0.000000
      0.001001       0.003902       0.000000
      0.000997       0.003723       0.000000
      0.000905       0.003933       0.000000
      0.000920       0.004101       0.000000
      0.001002       0.004060       0.000000
      0.001001       0.003902       0.000000
      0.000997       0.003723       0.000000
      0.001001       0.003902       0.000000
      0.001076       0.003854       0.000000
      0.001082       0.003687       0.000000
      0.001001       0.003902       0.000000
      0.001002       0.004060       0.000000
      0.001066       0.004004       0.000000
      0.001076       0.003854       0.000000
      0.000714       0.001300       0.000000
      0.000813       0.001624       0.000000
      0.000839       0.001938       0.000000
      0.000671       0.001621       0.000000
      0.000813       0.001624       0.000000
      0.000888       0.002013       0.000000
      0.001000       0.002300       0.000000
      0.000839       0.001938       0.000000
      0.000671       0.001621       0.000000
      0.000839       0.001938       0.000000
      0.000874       0.002108       0.000000
      0.000674       0.001772       0.000000
      0.000839       0.001938       0.000000
      0.001000       0.002300       0.000000
      0.001074       0.002479       0.000000
      0.000874       0.002108       0.000000
      0.000888       0.002013       0.000000
      0.000908       0.002245       0.000000
      0.001007       0.002378       0.000000
      0.000956       0.002166       0.000000
      0.000908       0.002245       0.000000
      0.000906       0.002522       0.000000
      0.001046       0.002627       0.000000
      0.001007       0.002378       0.000000
      0.000956       0.002166       0.000000
      0.001007       0.002378       0.000000
      0.001073       0.002508       0.000000
      0.001000       0.002300       0.000000
      0.001007       0.002378       0.000000
      0.001046       0.002627       0.000000
      0.001137       0.002744       0.000000
      0.001073       0.002508       0.000000
      0.000906       0.002522       0.000000
      0.000896       0.002685       0.000000
      0.000989       0.002720       0.000000
      0.000985       0.002567       0.000000
      0.000896       0.002685       0.000000
      0.000882       0.002871       0.000000
      0.000989       0.002895       0.000000
      0.000989       0.002720       0.000000
      0.000985       0.002567       0.000000
      0.000989       0.002720       0.000000
      0.001061       0.002773       0.000000
      0.001046       0.002627       0.000000
      0.000989       0.002720       0.000000
      0.000989       0.002895       0.000000
      0.001072       0.002936       0.000000
      0.001061       0.002773       0.000000
      0.001074       0.002479       0.000000
      0.001249       0.002889       0.000000
      0.001322       0.002949       0.000000
      0.001140       0.002560       0.000000
      0.001249       0.002889       0.000000
      0.001335       0.003325       0.000000
      0.001404       0.003331       0.000000
      0.001322       0.002949       0.000000
      0.001140       0.002560       0.000000
      0.001322       0.002949       0.000000
      0.001382       0.002968       0.000000
      0.001201       0.002585       0.000000
      0.001322       0.002949       0.000000
      0.001404       0.003331       0.000000
      0.001461       0.003336       0.000000
      0.001382       0.002968       0.000000
      0.001335       0.003325       0.000000
      0.001272       0.003760       0.000000
      0.001344       0.003710       0.000000
      0.001404       0.003331       0.000000
      0.001272       0.003760       0.000000
      0.001114       0.004167       0.000000
      0.001179       0.004093       0.000000
      0.001344       0.003710       0.000000
      0.001404       0.003331       0.000000
      0.001344       0.003710       0.000000
      0.001403       0.003701       0.000000
      0.001461       0.003336       0.000000
      0.001344       0.003710       0.000000
      0.001179       0.004093       0.000000
      0.001240       0.004077       0.000000
      0.001403       0.003701       0.000000
      0.001210       0.003316       0.000000
      0.001199       0.003619       0.000000
      0.001271       0.003572       0.000000