# vtk DataFile Version 2.0
time_10.vtk
ASCII
DATASET UNSTRUCTURED_GRID
POINTS   912 float
      0.458579       0.641421       0.000000
      0.497369       0.671659       0.000000
      0.438243       0.730363       0.000000
      0.382149       0.701184       0.000000
      0.497369       0.671659       0.000000
      0.545805       0.692517       0.000000
      0.506084       0.750000       0.000000
      0.438243       0.730363       0.000000
      0.382149       0.701184       0.000000
      0.438243       0.730363       0.000000
      0.380813       0.787383       0.000000
      0.305719       0.760948       0.000000
      0.438243       0.730363       0.000000
      0.506084       0.750000       0.000000
      0.468251       0.804752       0.000000
      0.380813       0.787383       0.000000
      0.545805       0.692517       0.000000
      0.600000       0.700000       0.000000
      0.581017       0.756950       0.000000
      0.506084       0.750000       0.000000
      0.600000       0.700000       0.000000
      0.654195       0.692517       0.000000
      0.656527       0.750000       0.000000
      0.581017       0.756950       0.000000
      0.506084       0.750000       0.000000
      0.581017       0.756950       0.000000
      0.563060       0.810819       0.000000
      0.468251       0.804752       0.000000
      0.581017       0.756950       0.000000
      0.656527       0.750000       0.000000
      0.658747       0.804752       0.000000
      0.563060       0.810819       0.000000
      0.654195       0.692517       0.000000
      0.702631       0.671659       0.000000
      0.725999       0.730363       0.000000
      0.656527       0.750000       0.000000
      0.702631       0.671659       0.000000
      0.741421       0.641421       0.000000
      0.784518       0.701184       0.000000
      0.725999       0.730363       0.000000
      0.656527       0.750000       0.000000
      0.725999       0.730363       0.000000
      0.748697       0.787383       0.000000
      0.658747       0.804752       0.000000
      0.725999       0.730363       0.000000
      0.784518       0.701184       0.000000
      0.827614       0.760948       0.000000
      0.748697       0.787383       0.000000
      0.305719       0.760948       0.000000
      0.380813       0.787383       0.000000
      0.325006       0.842791       0.000000
      0.229289       0.820711       0.000000
      0.380813       0.787383       0.000000
      0.468251       0.804752       0.000000
      0.432173       0.856962       0.000000
      0.325006       0.842791       0.000000
      0.229289       0.820711       0.000000
      0.325006       0.842791       0.000000
      0.270755       0.896655       0.000000
      0.152860       0.880474       0.000000
      0.325006       0.842791       0.000000
      0.432173       0.856962       0.000000
      0.397732       0.906804       0.000000
      0.270755       0.896655       0.000000
      0.468251       0.804752       0.000000
      0.563060       0.810819       0.000000
      0.546050       0.861851       0.000000
      0.432173       0.856962       0.000000
      0.563060       0.810819       0.000000
      0.658747       0.804752       0.000000
      0.660865       0.856962       0.000000
      0.546050       0.861851       0.000000
      0.432173       0.856962       0.000000
      0.546050       0.861851       0.000000
      0.529912       0.910264       0.000000
      0.397732       0.906804       0.000000
      0.546050       0.861851       0.000000
      0.660865       0.856962       0.000000
      0.662887       0.906804       0.000000
      0.529912       0.910264       0.000000
      0.658747       0.804752       0.000000
      0.748697       0.787383       0.000000
      0.770753       0.842791       0.000000
      0.660865       0.856962       0.000000
      0.748697       0.787383       0.000000
      0.827614       0.760948       0.000000
      0.870711       0.820711       0.000000
      0.770753       0.842791       0.000000
      0.660865       0.856962       0.000000
      0.770753       0.842791       0.000000
      0.792195       0.896655       0.000000
      0.662887       0.906804       0.000000
      0.770753       0.842791       0.000000
      0.870711       0.820711       0.000000
      0.913807       0.880474       0.000000
      0.792195       0.896655       0.000000
      0.152860       0.880474       0.000000
      0.270755       0.896655       0.000000
      0.217995       0.949038       0.000000
      0.076430       0.940237       0.000000
      0.270755       0.896655       0.000000
      0.397732       0.906804       0.000000
      0.364819       0.954435       0.000000
      0.217995       0.949038       0.000000
      0.076430       0.940237       0.000000
      0.217995       0.949038       0.000000
      0.166667       1.000000       0.000000
      0.000000       1.000000       0.000000
      0.217995       0.949038       0.000000
      0.364819       0.954435       0.000000
      0.333333       1.000000       0.000000
      0.166667       1.000000       0.000000
      0.397732       0.906804       0.000000
      0.529912       0.910264       0.000000
      0.514582       0.956255       0.000000
      0.364819       0.954435       0.000000
      0.529912       0.910264       0.000000
      0.662887       0.906804       0.000000
      0.664819       0.954435       0.000000
      0.514582       0.956255       0.000000
      0.364819       0.954435       0.000000
      0.514582       0.956255       0.000000
      0.500000       1.000000       0.000000
      0.333333       1.000000       0.000000
      0.514582       0.956255       0.000000
      0.664819       0.954435       0.000000
      0.666667       1.000000       0.000000
      0.500000       1.000000       0.000000
      0.662887       0.906804       0.000000
      0.792195       0.896655       0.000000
      0.813047       0.949038       0.000000
      0.664819       0.954435       0.000000
      0.792195       0.896655       0.000000
      0.913807       0.880474       0.000000
      0.956904       0.940237       0.000000
      0.813047       0.949038       0.000000
      0.664819       0.954435       0.000000
      0.813047       0.949038       0.000000
      0.833333       1.000000       0.000000
      0.666667       1.000000       0.000000
      0.813047       0.949038       0.000000
      0.956904       0.940237       0.000000
      1.000000       1.000000       0.000000
      0.833333       1.000000       0.000000
      0.458579       0.358579       0.000000
      0.428341       0.397369       0.000000
      0.351758       0.356122       0.000000
      0.382149       0.298816       0.000000
      0.428341       0.397369       0.000000
      0.407483       0.445805       0.000000
      0.331305       0.424779       0.000000
      0.351758       0.356122       0.000000
      0.382149       0.298816       0.000000
      0.351758       0.356122       0.000000
      0.277372       0.316058       0.000000
      0.305719       0.239052       0.000000
      0.351758       0.356122       0.000000
      0.331305       0.424779       0.000000
      0.258747       0.404752       0.000000
      0.277372       0.316058       0.000000
      0.331305       0.424779       0.000000
      0.324066       0.500000       0.000000
      0.252241       0.500000       0.000000
      0.258747       0.404752       0.000000
      0.324066       0.500000       0.000000
      0.331305       0.575221       0.000000
      0.258747       0.595248       0.000000
      0.252241       0.500000       0.000000
      0.407483       0.554195       0.000000
      0.428341       0.602631       0.000000
      0.351758       0.643878       0.000000
      0.331305       0.575221       0.000000
      0.428341       0.602631       0.000000
      0.458579       0.641421       0.000000
      0.382149       0.701184       0.000000
      0.351758       0.643878       0.000000
      0.331305       0.575221       0.000000
      0.351758       0.643878       0.000000
      0.277372       0.683942       0.000000
      0.258747       0.595248       0.000000
      0.351758       0.643878       0.000000
      0.382149       0.701184       0.000000
      0.305719       0.760948       0.000000
      0.277372       0.683942       0.000000
      0.305719       0.239052       0.000000
      0.277372       0.316058       0.000000
      0.205089       0.277126       0.000000
      0.229289       0.179289       0.000000
      0.277372       0.316058       0.000000
      0.258747       0.404752       0.000000
      0.189557       0.385654       0.000000
      0.205089       0.277126       0.000000
      0.229289       0.179289       0.000000
      0.205089       0.277126       0.000000
      0.134820       0.239280       0.000000
      0.152860       0.119526       0.000000
      0.205089       0.277126       0.000000
      0.189557       0.385654       0.000000
      0.123505       0.367423       0.000000
      0.134820       0.239280       0.000000
      0.258747       0.404752       0.000000
      0.252241       0.500000       0.000000
      0.184198       0.500000       0.000000
      0.189557       0.385654       0.000000
      0.252241       0.500000       0.000000
      0.258747       0.595248       0.000000
      0.189557       0.614346       0.000000
      0.184198       0.500000       0.000000
      0.189557       0.385654       0.000000
      0.184198       0.500000       0.000000
      0.119648       0.500000       0.000000
      0.123505       0.367423       0.000000
      0.184198       0.500000       0.000000
      0.189557       0.614346       0.000000
      0.123505       0.632577       0.000000
      0.119648       0.500000       0.000000
      0.258747       0.595248       0.000000
      0.277372       0.683942       0.000000
      0.205089       0.722874       0.000000
      0.189557       0.614346       0.000000
[...]
POINT_DATA   912
VECTORS U float 
      0.000440       0.005711       0.000000
      0.000226       0.006095       0.000000
      0.000038       0.005799       0.000000
      0.000282       0.005299       0.000000
      0.000226       0.006095       0.000000
      0.000006       0.006351       0.000000
     -0.000121       0.006238       0.000000
      0.000038       0.005799       0.000000
      0.000282       0.005299       0.000000
      0.000038       0.005799       0.000000
      0.000058       0.005762       0.000000
      0.000350       0.005331       0.000000
      0.000038       0.005799       0.000000
     -0.000121       0.006238       0.000000
     -0.000140       0.006188       0.000000
      0.000058       0.005762       0.000000
      0.000006       0.006351       0.000000
     -0.000219       0.006457       0.000000
     -0.000206       0.006484       0.000000
     -0.000121       0.006238       0.000000
     -0.000219       0.006457       0.000000
     -0.000465       0.006407       0.000000
     -0.000289       0.006446       0.000000
     -0.000206       0.006484       0.000000
     -0.000121       0.006238       0.000000
     -0.000206       0.006484       0.000000
     -0.000206       0.006479       0.000000
     -0.000140       0.006188       0.000000
     -0.000206       0.006484       0.000000
     -0.000289       0.006446       0.000000
     -0.000216       0.006471       0.000000
     -0.000206       0.006479       0.000000
     -0.000465       0.006407       0.000000
     -0.000746       0.006200       0.000000
     -0.000438       0.006127       0.000000
     -0.000289       0.006446       0.000000
     -0.000746       0.006200       0.000000
     -0.001058       0.005853       0.000000
     -0.000700       0.005628       0.000000
     -0.000438       0.006127       0.000000
     -0.000289       0.006446       0.000000
     -0.000438       0.006127       0.000000
     -0.000309       0.006144       0.000000
     -0.000216       0.006471       0.000000
     -0.000438       0.006127       0.000000
     -0.000700       0.005628       0.000000
     -0.000549       0.005641       0.000000
     -0.000309       0.006144       0.000000
      0.000350       0.005331       0.000000
      0.000058       0.005762       0.000000
      0.000121       0.005872       0.000000
      0.000453       0.005539       0.000000
      0.000058       0.005762       0.000000
     -0.000140       0.006188       0.000000
     -0.000123       0.006220       0.000000
      0.000121       0.005872       0.000000
      0.000453       0.005539       0.000000
      0.000121       0.005872       0.000000
      0.000200       0.006072       0.000000
      0.000577       0.005835       0.000000
      0.000121       0.005872       0.000000
     -0.000123       0.006220       0.000000
     -0.000094       0.006316       0.000000
      0.000200       0.006072       0.000000
     -0.000140       0.006188       0.000000
     -0.000206       0.006479       0.000000
     -0.000201       0.006491       0.000000
     -0.000123       0.006220       0.000000
     -0.000206       0.006479       0.000000
     -0.000216       0.006471       0.000000
     -0.000177       0.006504       0.000000
     -0.000201       0.006491       0.000000
     -0.000123       0.006220       0.000000
     -0.000201       0.006491       0.000000
     -0.000196       0.006525       0.000000
     -0.000094       0.006316       0.000000
     -0.000201       0.006491       0.000000
     -0.000177       0.006504       0.000000
     -0.000154       0.006546       0.000000
     -0.000196       0.006525       0.000000
     -0.000216       0.006471       0.000000
     -0.000309       0.006144       0.000000
     -0.000239       0.006212       0.000000
     -0.000177       0.006504       0.000000
     -0.000309       0.006144       0.000000
     -0.000549       0.005641       0.000000
     -0.000467       0.005756       0.000000
     -0.000239       0.006212       0.000000
     -0.000177       0.006504       0.000000
     -0.000239       0.006212       0.000000
     -0.000201       0.006320       0.000000
     -0.000154       0.006546       0.000000
     -0.000239       0.006212       0.000000
     -0.000467       0.005756       0.000000
     -0.000444       0.005957       0.000000
     -0.000201       0.006320       0.000000
      0.000577       0.005835       0.000000
      0.000200       0.006072       0.000000
      0.000301       0.006334       0.000000
      0.000742       0.006197       0.000000
      0.000200       0.006072       0.000000
     -0.000094       0.006316       0.000000
     -0.000054       0.006460       0.000000
      0.000301       0.006334       0.000000
      0.000742       0.006197       0.000000
      0.000301       0.006334       0.000000
      0.000434       0.006644       0.000000
      0.000977       0.006644       0.000000
      0.000301       0.006334       0.000000
     -0.000054       0.006460       0.000000
     -0.000001       0.006644       0.000000
      0.000434       0.006644       0.000000
     -0.000094       0.006316       0.000000
     -0.000196       0.006525       0.000000
     -0.000192       0.006577       0.000000
     -0.000054       0.006460       0.000000
     -0.000196       0.006525       0.000000
     -0.000154       0.006546       0.000000
     -0.000141       0.006594       0.000000
     -0.000192       0.006577       0.000000
     -0.000054       0.006460       0.000000
     -0.000192       0.006577       0.000000
     -0.000190       0.006644       0.000000
     -0.000001       0.006644       0.000000
     -0.000192       0.006577       0.000000
     -0.000141       0.006594       0.000000
     -0.000137       0.006644       0.000000
     -0.000190       0.006644       0.000000
     -0.000154       0.006546       0.000000
     -0.000201       0.006320       0.000000
     -0.000189       0.006464       0.000000
     -0.000141       0.006594       0.000000
     -0.000201       0.006320       0.000000
     -0.000444       0.005957       0.000000
     -0.000484       0.006255       0.000000
     -0.000189       0.006464       0.000000
     -0.000141       0.006594       0.000000
     -0.000189       0.006464       0.000000
     -0.000203       0.006644       0.000000
     -0.000137       0.006644       0.000000
     -0.000189       0.006464       0.000000
     -0.000484       0.006255       0.000000
     -0.000587       0.006644       0.000000
     -0.000203       0.006644       0.000000
      0.000387       0.000805       0.000000
      0.000593       0.001307       0.000000
      0.000563       0.001761       0.000000
      0.000230       0.001197       0.000000
      0.000593       0.001307       0.000000
      0.000760       0.002030       0.000000
      0.000951       0.002452       0.000000
      0.000563       0.001761       0.000000
      0.000230       0.001197       0.000000
      0.000563       0.001761       0.000000
      0.000641       0.001792       0.000000
      0.000269       0.001160       0.000000
      0.000563       0.001761       0.000000
      0.000951       0.002452       0.000000
      0.001075       0.002532       0.000000
      0.000641       0.001792       0.000000
      0.000951       0.002452       0.000000
      0.001183       0.003246       0.000000
      0.001313       0.003256       0.000000
      0.001075       0.002532       0.000000
      0.001183       0.003246       0.000000
      0.000989       0.004037       0.000000
      0.001114       0.003972       0.000000
      0.001313       0.003256       0.000000
      0.000790       0.004447       0.000000
      0.000644       0.005187       0.000000
      0.000618       0.004726       0.000000
      0.000989       0.004037       0.000000
      0.000644       0.005187       0.000000
      0.000440       0.005711       0.000000
      0.000282       0.005299       0.000000
      0.000618       0.004726       0.000000
      0.000989       0.004037       0.000000
      0.000618       0.004726       0.000000
      0.000707       0.004698       0.000000
      0.001114       0.003972       0.000000
      0.000618       0.004726       0.000000
      0.000282       0.005299       0.000000
      0.000350       0.005331       0.000000
      0.000707       0.004698       0.000000
      0.000269       0.001160       0.000000
      0.000641       0.001792       0.000000
      0.000732       0.001686       0.000000
      0.000315       0.000956       0.000000
      0.000641       0.001792       0.000000
      0.001075       0.002532       0.000000
      0.001196       0.002502       0.000000
      0.000732       0.001686       0.000000
      0.000315       0.000956       0.000000
      0.000732       0.001686       0.000000
      0.000813       0.001558       0.000000
      0.000323       0.000685       0.000000
      0.000732       0.001686       0.000000
      0.001196       0.002502       0.000000
      0.001316       0.002460       0.000000
      0.000813       0.001558       0.000000
      0.001075       0.002532       0.000000
      0.001313       0.003256       0.000000
      0.001433       0.003267       0.000000
      0.001196       0.002502       0.000000
      0.001313       0.003256       0.000000
      0.001114       0.003972       0.000000
      0.001236       0.004024       0.000000
      0.001433       0.003267       0.000000
      0.001196       0.002502       0.000000
      0.001433       0.003267       0.000000
      0.001564       0.003280       0.000000
      0.001316       0.002460       0.000000
      0.001433       0.003267       0.000000
      0.001236       0.004024       0.000000
      0.001359       0.004095       0.000000
      0.001564       0.003280       0.000000
      0.001114       0.003972       0.000000
      0.000707       0.004698       0.000000
      0.000817       0.004818       0.000000
      0.001236       0.004024       0.000000
      0.000707       0.004698       0.000000
      0.000350       0.005331       0.000000
      0.000453       0.005539       0.000000
      0.000817       0.004818       0.000000
      0.001236       0.004024       0.000000
      0.000817       0.004818       0.000000
      0.000926       0.004979       0.000000
      0.001359       0.004095       0.000000
      0.000817       0.004818       0.000000
      0.000453       0.005539       0.000000
      0.000577       0.005835       0.000000
      0.000926       0.004979       0.000000
      0.000323       0.000685       0.000000
      0.000813       0.001558       0.000000
      0.000883       0.001462       0.000000
      0.000262       0.000378       0.000000
      0.000813       0.001558       0.000000
      0.001316       0.002460       0.000000
      0.001429       0.002449       0.000000
      0.000883       0.001462       0.000000
      0.000262       0.000378       0.000000
      0.000883       0.001462       0.000000
      0.000945       0.001419       0.000000
      0.000000       0.000000       0.000000
      0.000883       0.001462       0.000000
      0.001429       0.002449       0.000000
      0.001527       0.002495       0.000000
      0.000945       0.001419       0.000000
      0.001316       0.002460       0.000000
      0.001564       0.003280       0.000000
      0.001698       0.003293       0.000000
      0.001429       0.002449       0.000000
      0.001564       0.003280       0.000000
      0.001359       0.004095       0.000000
      0.001479       0.004142       0.000000
      0.001698       0.003293       0.000000
      0.001429       0.002449       0.000000
      0.001698       0.003293       0.000000
      0.001820       0.003304       0.000000
      0.001527       0.002495       0.000000
      0.001698       0.003293       0.000000
      0.001479       0.004142       0.000000
      0.001590       0.004129       0.000000
      0.001820       0.003304       0.000000
      0.001359       0.004095       0.000000
      0.000926       0.004979       0.000000
      0.001036       0.005135       0.000000
      0.001479       0.004142       0.000000
      0.000926       0.004979       0.000000
      0.000577       0.005835       0.000000
      0.000742       0.006197       0.000000
      0.001036       0.005135       0.000000
      0.001479       0.004142       0.000000
      0.001036       0.005135       0.000000
      0.001162       0.005276       0.000000
      0.001590       0.004129       0.000000
      0.001036       0.005135       0.000000
      0.000742       0.006197       0.000000
      0.000977       0.006644       0.000000
      0.001162       0.005276       0.000000
      0.000795       0.003924       0.000000
      0.000790       0.004447       0.000000
      0.000916       0.004185       0.000000
      0.001023       0.003752       0.000000
      0.001062       0.003239       0.000000
      0.001023       0.003752       0.000000
      0.001131       0.003651       0.000000
      0.001183       0.003246       0.000000
      0.001023       0.003752       0.000000
      0.000916       0.004185       0.000000
      0.000989       0.004037       0.000000
      0.001131       0.003651       0.000000
      0.000760       0.002030       0.000000
      0.000781       0.002542       0.000000
      0.001002       0.002728       0.000000
      0.000879       0.002299       0.000000
      0.000879       0.002299       0.000000
      0.001002       0.002728       0.000000
      0.001110       0.002840       0.000000
      0.000951       0.002452       0.000000
      0.001002       0.002728       0.000000
      0.001062       0.003239       0.000000
      0.001183       0.003246       0.000000
      0.001110       0.002840       0.000000
      0.000779       0.003595       0.000000
      0.000795       0.003924       0.000000
      0.000935       0.003837       0.000000
      0.000949       0.003550       0.000000
      0.000951       0.003233       0.000000
      0.000949       0.003550       0.000000
      0.001055       0.003503       0.000000
      0.001062       0.003239       0.000000
      0.000949       0.003550       0.000000
      0.000935       0.003837       0.000000
      0.001023       0.003752       0.000000
      0.001055       0.003503       0.000000
      0.000781       0.002542       0.000000
      0.000773       0.002864       0.000000
      0.000940       0.002919       0.000000
      0.000916       0.002636       0.000000
      0.000916       0.002636       0.000000
      0.000940       0.002919       0.000000
      0.001044       0.002975       0.000000
      0.001002       0.002728       0.000000
      0.000940       0.002919       0.000000
      0.000951       0.003233       0.000000
      0.001062       0.003239       0.000000
      0.001044       0.002975       0.000000
      0.000768       0.003228       0.000000
      0.000772       0.003415       0.000000
      0.000872       0.003406       0.000000
      0.000870       0.003231       0.000000
      0.000772       0.003415       0.000000
      0.000779       0.003595       0.000000
      0.000874       0.003576       0.000000
      0.000872       0.003406       0.000000
      0.000870       0.003231       0.000000
      0.000872       0.003406       0.000000
      0.000952       0.003394       0.000000
      0.000951       0.003233       0.000000
      0.000872       0.003406       0.000000
      0.000874       0.003576       0.000000
      0.000949       0.003550       0.000000
      0.000952       0.003394       0.000000
      0.000773       0.002864       0.000000
      0.000769       0.003043       0.000000
      0.000868       0.003056       0.000000
      0.000866       0.002888       0.000000
      0.000769       0.003043       0.000000
      0.000768       0.003228       0.000000
      0.000870       0.003231       0.000000
      0.000868       0.003056       0.000000
      0.000866       0.002888       0.000000
      0.000868       0.003056       0.000000
      0.000947       0.003074       0.000000
      0.000940       0.002919       0.000000
      0.000868       0.003056       0.000000
      0.000870       0.003231       0.000000
      0.000951       0.003233       0.000000
      0.000947       0.003074       0.000000
     -0.000994       0.000735       0.000000
     -0.000677       0.000391       0.000000
     -0.000360       0.000469       0.000000
     -0.000621       0.000969       0.000000
     -0.000677       0.000391       0.000000
     -0.000406       0.000188       0.000000
     -0.000226       0.000157       0.000000
     -0.000360       0.000469       0.000000
     -0.000621       0.000969       0.000000
     -0.000360       0.000469       0.000000
     -0.000206       0.000460       0.000000
     -0.000444       0.000964       0.000000
     -0.000360       0.000469       0.000000
     -0.000226       0.000157       0.000000
     -0.000134       0.000143       0.000000
     -0.000206       0.000460       0.000000
     -0.000406       0.000188       0.000000
     -0.000189       0.000134       0.000000
     -0.000169       0.000113       0.000000
     -0.000226       0.000157       0.000000
     -0.000189       0.000134       0.000000
     -0.000002       0.000222       0.000000
     -0.000116       0.000326       0.000000
     -0.000169       0.000113       0.000000
     -0.000226       0.000157       0.000000
     -0.000169       0.000113       0.000000
     -0.000156       0.000125       0.000000
     -0.000134       0.000143       0.000000
     -0.000169       0.000113       0.000000
     -0.000116       0.000326       0.000000
     -0.000137       0.000375       0.000000
     -0.000156       0.000125       0.000000
     -0.000002       0.000222       0.000000
      0.000187       0.000450       0.000000
      0.000009       0.000724       0.000000
     -0.000116       0.000326       0.000000
      0.000187       0.000450       0.000000
      0.000387       0.000805       0.000000
      0.000230       0.001197       0.000000
      0.000009       0.000724       0.000000
     -0.000116       0.000326       0.000000
      0.000009       0.000724       0.000000
      0.000010       0.000756       0.000000
     -0.000137       0.000375       0.000000
      0.000009       0.000724       0.000000
      0.000230       0.001197       0.000000
      0.000269       0.001160       0.000000
      0.000010       0.000756       0.000000
     -0.000444       0.000964       0.000000
     -0.000206       0.000460       0.000000
     -0.000104       0.000396       0.000000
     -0.000328       0.000853       0.000000
     -0.000206       0.000460       0.000000
     -0.000134       0.000143       0.000000
     -0.000072       0.000121       0.000000
     -0.000104       0.000396       0.000000
     -0.000328       0.000853       0.000000
     -0.000104       0.000396       0.000000
     -0.000035       0.000291       0.000000
     -0.000257       0.000655       0.000000
     -0.000104       0.000396       0.000000
     -0.000072       0.000121       0.000000
     -0.000028       0.000091       0.000000
     -0.000035       0.000291       0.000000
     -0.000134       0.000143       0.000000
     -0.000156       0.000125       0.000000
     -0.000137       0.000122       0.000000
     -0.000072       0.000121       0.000000
     -0.000156       0.000125       0.000000
     -0.000137       0.000375       0.000000
     -0.000124       0.000346       0.000000
     -0.000137       0.000122       0.000000
     -0.000072       0.000121       0.000000
     -0.000137       0.000122       0.000000
     -0.000109       0.000099       0.000000
     -0.000028       0.000091       0.000000
     -0.000137       0.000122       0.000000
     -0.000124       0.000346       0.000000
     -0.000096       0.000261       0.000000
     -0.000109       0.000099       0.000000
     -0.000137       0.000375       0.000000
      0.000010       0.000756       0.000000
      0.000038       0.000644       0.000000