# vtk DataFile Version 2.0
time_10.vtk
ASCII
DATASET UNSTRUCTURED_GRID
POINTS   648 float
      0.458579       0.641421       0.000000
      0.497369       0.671659       0.000000
      0.438243       0.730363       0.000000
      0.382149       0.701184       0.000000
      0.497369       0.671659       0.000000
      0.545805       0.692517       0.000000
      0.506084       0.750000       0.000000
      0.438243       0.730363       0.000000
      0.382149       0.701184       0.000000
      0.438243       0.730363       0.000000
      0.380813       0.787383       0.000000
      0.305719       0.760948       0.000000
      0.438243       0.730363       0.000000
      0.506084       0.750000       0.000000
      0.468251       0.804752       0.000000
      0.380813       0.787383       0.000000
      0.545805       0.692517       0.000000
      0.600000       0.700000       0.000000
      0.581017       0.756950       0.000000
      0.506084       0.750000       0.000000
      0.600000       0.700000       0.000000
      0.654195       0.692517       0.000000
      0.656527       0.750000       0.000000
      0.581017       0.756950       0.000000
      0.506084       0.750000       0.000000
      0.581017       0.756950       0.000000
      0.563060       0.810819       0.000000
      0.468251       0.804752       0.000000
      0.581017       0.756950       0.000000
      0.656527       0.750000       0.000000
      0.658747       0.804752       0.000000
      0.563060       0.810819       0.000000
      0.654195       0.692517       0.000000
      0.702631       0.671659       0.000000
      0.725999       0.730363       0.000000
      0.656527       0.750000       0.000000
      0.702631       0.671659       0.000000
      0.741421       0.641421       0.000000
      0.784518       0.701184       0.000000
      0.725999       0.730363       0.000000
      0.656527       0.750000       0.000000
      0.725999       0.730363       0.000000
      0.748697       0.787383       0.000000
      0.658747       0.804752       0.000000
      0.725999       0.730363       0.000000
      0.784518       0.701184       0.000000
      0.827614       0.760948       0.000000
      0.748697       0.787383       0.000000
      0.305719       0.760948       0.000000
      0.380813       0.787383       0.000000
      0.325006       0.842791       0.000000
      0.229289       0.820711       0.000000
      0.380813       0.787383       0.000000
      0.468251       0.804752       0.000000
      0.432173       0.856962       0.000000
      0.325006       0.842791       0.000000
      0.229289       0.820711       0.000000
      0.325006       0.842791       0.000000
      0.270755       0.896655       0.000000
      0.152860       0.880474       0.000000
      0.325006       0.842791       0.000000
      0.432173       0.856962       0.000000
      0.397732       0.906804       0.000000
      0.270755       0.896655       0.000000
      0.468251       0.804752       0.000000
      0.563060       0.810819       0.000000
      0.546050       0.861851       0.000000
      0.432173       0.856962       0.000000
      0.563060       0.810819       0.000000
      0.658747       0.804752       0.000000
      0.660865       0.856962       0.000000
      0.546050       0.861851       0.000000
      0.432173       0.856962       0.000000
      0.546050       0.861851       0.000000
      0.529912       0.910264       0.000000
      0.397732       0.906804       0.000000
      0.546050       0.861851       0.000000
      0.660865       0.856962       0.000000
      0.662887       0.906804       0.000000
      0.529912       0.910264       0.000000
      0.658747       0.804752       0.000000
      0.748697       0.787383       0.000000
      0.770753       0.842791       0.000000
      0.660865       0.856962       0.000000
      0.748697       0.787383       0.000000
      0.827614       0.760948       0.000000
      0.870711       0.820711       0.000000
      0.770753       0.842791       0.000000
      0.660865       0.856962       0.000000
      0.770753       0.842791       0.000000
      0.792195       0.896655       0.000000
      0.662887       0.906804       0.000000
      0.770753       0.842791       0.000000
      0.870711       0.820711       0.000000
      0.913807       0.880474       0.000000
      0.792195       0.896655       0.000000
      0.152860       0.880474       0.000000
      0.270755       0.896655       0.000000
      0.217995       0.949038       0.000000
      0.076430       0.940237       0.000000
      0.270755       0.896655       0.000000
      0.397732       0.906804       0.000000
      0.364819       0.954435       0.000000
      0.217995       0.949038       0.000000
      0.076430       0.940237       0.000000
      0.217995       0.949038       0.000000
      0.166667       1.000000       0.000000
      0.000000       1.000000       0.000000
      0.217995       0.949038       0.000000
      0.364819       0.954435       0.000000
      0.333333       1.000000       0.000000
      0.166667       1.000000       0.000000
      0.397732       0.906804       0.000000
      0.529912       0.910264       0.000000
      0.514582       0.956255       0.000000
      0.364819       0.954435       0.000000
      0.529912       0.910264       0.000000
      0.662887       0.906804       0.000000
      0.664819       0.954435       0.000000
      0.514582       0.956255       0.000000
      0.364819       0.954435       0.000000
      0.514582       0.956255       0.000000
      0.500000       1.000000       0.000000
      0.333333       1.000000       0.000000
      0.514582       0.956255       0.000000
      0.664819       0.954435       0.000000
      0.666667       1.000000       0.000000
      0.500000       1.000000       0.000000
      0.662887       0.906804       0.000000
      0.792195       0.896655       0.000000
      0.813047       0.949038       0.000000
      0.664819       0.954435       0.000000
      0.792195       0.896655       0.000000
      0.913807       0.880474       0.000000
      0.956904       0.940237       0.000000
      0.813047       0.949038       0.000000
      0.664819       0.954435       0.000000
      0.813047       0.949038       0.000000
      0.833333       1.000000       0.000000
      0.666667       1.000000       0.000000
      0.813047       0.949038       0.000000
      0.956904       0.940237       0.000000
      1.000000       1.000000       0.000000
      0.833333       1.000000       0.000000
      0.458579       0.358579       0.000000
      0.428341       0.397369       0.000000
      0.351758       0.356122       0.000000
      0.382149       0.298816       0.000000
      0.428341       0.397369       0.000000
      0.407483       0.445805       0.000000
      0.331305       0.424779       0.000000
      0.351758       0.356122       0.000000
      0.382149       0.298816       0.000000
      0.351758       0.356122       0.000000
      0.277372       0.316058       0.000000
      0.305719       0.239052       0.000000
      0.351758       0.356122       0.000000
      0.331305       0.424779       0.000000
      0.258747       0.404752       0.000000
      0.277372       0.316058       0.000000
      0.407483       0.445805       0.000000
      0.400000       0.500000       0.000000
      0.324066       0.500000       0.000000
      0.331305       0.424779       0.000000
      0.400000       0.500000       0.000000
      0.407483       0.554195       0.000000
      0.331305       0.575221       0.000000
      0.324066       0.500000       0.000000
      0.331305       0.424779       0.000000
      0.324066       0.500000       0.000000
      0.252241       0.500000       0.000000
      0.258747       0.404752       0.000000
      0.324066       0.500000       0.000000
      0.331305       0.575221       0.000000
      0.258747       0.595248       0.000000
      0.252241       0.500000       0.000000
      0.407483       0.554195       0.000000
      0.428341       0.602631       0.000000
      0.351758       0.643878       0.000000
      0.331305       0.575221       0.000000
      0.428341       0.602631       0.000000
      0.458579       0.641421       0.000000
      0.382149       0.701184       0.000000
      0.351758       0.643878       0.000000
      0.331305       0.575221       0.000000
      0.351758       0.643878       0.000000
      0.277372       0.683942       0.000000
      0.258747       0.595248       0.000000
      0.351758       0.643878       0.000000
      0.382149       0.701184       0.000000
      0.305719       0.760948       0.000000
      0.277372       0.683942       0.000000
      0.305719       0.239052       0.000000
      0.277372       0.316058       0.000000
      0.205089       0.277126       0.000000
      0.229289       0.179289       0.000000
      0.277372       0.316058       0.000000
      0.258747       0.404752       0.000000
      0.189557       0.385654       0.000000
      0.205089       0.277126       0.000000
      0.229289       0.179289       0.000000
      0.205089       0.277126       0.000000
      0.134820       0.239280       0.000000
      0.152860       0.119526       0.000000
      0.205089       0.277126       0.000000
      0.189557       0.385654       0.000000
      0.123505       0.367423       0.000000
      0.134820       0.239280       0.000000
      0.258747       0.404752       0.000000
      0.252241       0.500000       0.000000
      0.184198       0.500000       0.000000
      0.189557       0.385654       0.000000
      0.252241       0.500000       0.000000
      0.258747       0.595248       0.000000
      0.189557       0.614346       0.000000
      0.184198       0.500000       0.000000
      0.189557       0.385654       0.000000
      0.184198       0.500000       0.000000
      0.119648       0.500000       0.000000
      0.123505       0.367423       0.000000
[...]
POINT_DATA   648
VECTORS U float 
      0.000424       0.005507       0.000000
      0.000218       0.005885       0.000000
      0.000037       0.005597       0.000000
      0.000275       0.005109       0.000000
      0.000218       0.005885       0.000000
      0.000005       0.006138       0.000000
     -0.000119       0.006027       0.000000
      0.000037       0.005597       0.000000
      0.000275       0.005109       0.000000
      0.000037       0.005597       0.000000
      0.000059       0.005564       0.000000
      0.000343       0.005147       0.000000
      0.000037       0.005597       0.000000
     -0.000119       0.006027       0.000000
     -0.000136       0.005979       0.000000
      0.000059       0.005564       0.000000
      0.000005       0.006138       0.000000
     -0.000215       0.006241       0.000000
     -0.000202       0.006268       0.000000
     -0.000119       0.006027       0.000000
     -0.000215       0.006241       0.000000
     -0.000455       0.006190       0.000000
     -0.000282       0.006228       0.000000
     -0.000202       0.006268       0.000000
     -0.000119       0.006027       0.000000
     -0.000202       0.006268       0.000000
     -0.000201       0.006264       0.000000
     -0.000136       0.005979       0.000000
     -0.000202       0.006268       0.000000
     -0.000282       0.006228       0.000000
     -0.000212       0.006254       0.000000
     -0.000201       0.006264       0.000000
     -0.000455       0.006190       0.000000
     -0.000728       0.005983       0.000000
     -0.000428       0.005911       0.000000
     -0.000282       0.006228       0.000000
     -0.000728       0.005983       0.000000
     -0.001029       0.005636       0.000000
     -0.000685       0.005419       0.000000
     -0.000428       0.005911       0.000000
     -0.000282       0.006228       0.000000
     -0.000428       0.005911       0.000000
     -0.000304       0.005931       0.000000
     -0.000212       0.006254       0.000000
     -0.000428       0.005911       0.000000
     -0.000685       0.005419       0.000000
     -0.000543       0.005441       0.000000
     -0.000304       0.005931       0.000000
      0.000343       0.005147       0.000000
      0.000059       0.005564       0.000000
      0.000122       0.005676       0.000000
      0.000446       0.005356       0.000000
      0.000059       0.005564       0.000000
     -0.000136       0.005979       0.000000
     -0.000118       0.006013       0.000000
      0.000122       0.005676       0.000000
      0.000446       0.005356       0.000000
      0.000122       0.005676       0.000000
      0.000202       0.005873       0.000000
      0.000568       0.005647       0.000000
      0.000122       0.005676       0.000000
     -0.000118       0.006013       0.000000
     -0.000087       0.006109       0.000000
      0.000202       0.005873       0.000000
     -0.000136       0.005979       0.000000
     -0.000201       0.006264       0.000000
     -0.000196       0.006278       0.000000
     -0.000118       0.006013       0.000000
     -0.000201       0.006264       0.000000
     -0.000212       0.006254       0.000000
     -0.000174       0.006288       0.000000
     -0.000196       0.006278       0.000000
     -0.000118       0.006013       0.000000
     -0.000196       0.006278       0.000000
     -0.000190       0.006313       0.000000
     -0.000087       0.006109       0.000000
     -0.000196       0.006278       0.000000
     -0.000174       0.006288       0.000000
     -0.000152       0.006332       0.000000
     -0.000190       0.006313       0.000000
     -0.000212       0.006254       0.000000
     -0.000304       0.005931       0.000000
     -0.000238       0.006002       0.000000
     -0.000174       0.006288       0.000000
     -0.000304       0.005931       0.000000
     -0.000543       0.005441       0.000000
     -0.000465       0.005559       0.000000
     -0.000238       0.006002       0.000000
     -0.000174       0.006288       0.000000
     -0.000238       0.006002       0.000000
     -0.000202       0.006111       0.000000
     -0.000152       0.006332       0.000000
     -0.000238       0.006002       0.000000
     -0.000465       0.005559       0.000000
     -0.000443       0.005759       0.000000
     -0.000202       0.006111       0.000000
      0.000568       0.005647       0.000000
      0.000202       0.005873       0.000000
      0.000301       0.006130       0.000000
      0.000730       0.006000       0.000000
      0.000202       0.005873       0.000000
     -0.000087       0.006109       0.000000
     -0.000048       0.006251       0.000000
      0.000301       0.006130       0.000000
      0.000730       0.006000       0.000000
      0.000301       0.006130       0.000000
      0.000431       0.006432       0.000000
      0.000957       0.006432       0.000000
      0.000301       0.006130       0.000000
     -0.000048       0.006251       0.000000
      0.000006       0.006432       0.000000
      0.000431       0.006432       0.000000
     -0.000087       0.006109       0.000000
     -0.000190       0.006313       0.000000
     -0.000186       0.006365       0.000000
     -0.000048       0.006251       0.000000
     -0.000190       0.006313       0.000000
     -0.000152       0.006332       0.000000
     -0.000140       0.006381       0.000000
     -0.000186       0.006365       0.000000
     -0.000048       0.006251       0.000000
     -0.000186       0.006365       0.000000
     -0.000183       0.006432       0.000000
      0.000006       0.006432       0.000000
     -0.000186       0.006365       0.000000
     -0.000140       0.006381       0.000000
     -0.000136       0.006432       0.000000
     -0.000183       0.006432       0.000000
     -0.000152       0.006332       0.000000
     -0.000202       0.006111       0.000000
     -0.000192       0.006254       0.000000
     -0.000140       0.006381       0.000000
     -0.000202       0.006111       0.000000
     -0.000443       0.005759       0.000000
     -0.000482       0.006051       0.000000
     -0.000192       0.006254       0.000000
     -0.000140       0.006381       0.000000
     -0.000192       0.006254       0.000000
     -0.000206       0.006432       0.000000
     -0.000136       0.006432       0.000000
     -0.000192       0.006254       0.000000
     -0.000482       0.006051       0.000000
     -0.000583       0.006432       0.000000
     -0.000206       0.006432       0.000000
      0.000372       0.000798       0.000000
      0.000569       0.001293       0.000000
      0.000546       0.001727       0.000000
      0.000223       0.001177       0.000000
      0.000569       0.001293       0.000000
      0.000724       0.002013       0.000000
      0.000915       0.002395       0.000000
      0.000546       0.001727       0.000000
      0.000223       0.001177       0.000000
      0.000546       0.001727       0.000000
      0.000621       0.001747       0.000000
      0.000263       0.001135       0.000000
      0.000546       0.001727       0.000000
      0.000915       0.002395       0.000000
      0.001034       0.002457       0.000000
      0.000621       0.001747       0.000000
      0.000724       0.002013       0.000000
      0.000752       0.003126       0.000000
      0.001125       0.003142       0.000000
      0.000915       0.002395       0.000000
      0.000752       0.003126       0.000000
      0.000753       0.004254       0.000000
      0.000952       0.003886       0.000000
      0.001125       0.003142       0.000000
      0.000915       0.002395       0.000000
      0.001125       0.003142       0.000000
      0.001255       0.003152       0.000000
      0.001034       0.002457       0.000000
      0.001125       0.003142       0.000000
      0.000952       0.003886       0.000000
      0.001072       0.003838       0.000000
      0.001255       0.003152       0.000000
      0.000753       0.004254       0.000000
      0.000619       0.004990       0.000000
      0.000600       0.004550       0.000000
      0.000952       0.003886       0.000000
      0.000619       0.004990       0.000000
      0.000424       0.005507       0.000000
      0.000275       0.005109       0.000000
      0.000600       0.004550       0.000000
      0.000952       0.003886       0.000000
      0.000600       0.004550       0.000000
      0.000688       0.004535       0.000000
      0.001072       0.003838       0.000000
      0.000600       0.004550       0.000000
      0.000275       0.005109       0.000000
      0.000343       0.005147       0.000000
      0.000688       0.004535       0.000000
      0.000263       0.001135       0.000000
      0.000621       0.001747       0.000000
      0.000709       0.001639       0.000000
      0.000308       0.000932       0.000000
      0.000621       0.001747       0.000000
      0.001034       0.002457       0.000000
      0.001150       0.002424       0.000000
      0.000709       0.001639       0.000000
      0.000308       0.000932       0.000000
      0.000709       0.001639       0.000000
      0.000788       0.001510       0.000000
      0.000316       0.000666       0.000000
      0.000709       0.001639       0.000000
      0.001150       0.002424       0.000000
      0.001267       0.002381       0.000000
      0.000788       0.001510       0.000000
      0.001034       0.002457       0.000000
      0.001255       0.003152       0.000000
      0.001373       0.003163       0.000000
      0.001150       0.002424       0.000000
      0.001255       0.003152       0.000000
      0.001072       0.003838       0.000000
      0.001190       0.003894       0.000000
      0.001373       0.003163       0.000000
      0.001150       0.002424       0.000000
      0.001373       0.003163       0.000000
      0.001502       0.003176       0.000000
      0.001267       0.002381       0.000000
      0.001373       0.003163       0.000000
      0.001190       0.003894       0.000000
      0.001310       0.003966       0.000000
      0.001502       0.003176       0.000000
      0.001072       0.003838       0.000000
      0.000688       0.004535       0.000000
      0.000794       0.004658       0.000000
      0.001190       0.003894       0.000000
      0.000688       0.004535       0.000000
      0.000343       0.005147       0.000000
      0.000446       0.005356       0.000000
      0.000794       0.004658       0.000000
      0.001190       0.003894       0.000000
      0.000794       0.004658       0.000000
      0.000901       0.004819       0.000000
      0.001310       0.003966       0.000000
      0.000794       0.004658       0.000000
      0.000446       0.005356       0.000000
      0.000568       0.005647       0.000000
      0.000901       0.004819       0.000000
      0.000316       0.000666       0.000000
      0.000788       0.001510       0.000000
      0.000857       0.001415       0.000000
      0.000256       0.000367       0.000000
      0.000788       0.001510       0.000000
      0.001267       0.002381       0.000000
      0.001377       0.002368       0.000000
      0.000857       0.001415       0.000000
      0.000256       0.000367       0.000000
      0.000857       0.001415       0.000000
      0.000917       0.001371       0.000000
      0.000000       0.000000       0.000000
      0.000857       0.001415       0.000000
      0.001377       0.002368       0.000000
      0.001474       0.002410       0.000000
      0.000917       0.001371       0.000000
      0.001267       0.002381       0.000000
      0.001502       0.003176       0.000000
      0.001633       0.003189       0.000000
      0.001377       0.002368       0.000000
      0.001502       0.003176       0.000000
      0.001310       0.003966       0.000000
      0.001427       0.004014       0.000000
      0.001633       0.003189       0.000000
      0.001377       0.002368       0.000000
      0.001633       0.003189       0.000000
      0.001753       0.003200       0.000000
      0.001474       0.002410       0.000000
      0.001633       0.003189       0.000000
      0.001427       0.004014       0.000000
      0.001536       0.004006       0.000000
      0.001753       0.003200       0.000000
      0.001310       0.003966       0.000000
      0.000901       0.004819       0.000000
      0.001009       0.004975       0.000000
      0.001427       0.004014       0.000000
      0.000901       0.004819       0.000000
      0.000568       0.005647       0.000000
      0.000730       0.006000       0.000000
      0.001009       0.004975       0.000000
      0.001427       0.004014       0.000000
      0.001009       0.004975       0.000000
      0.001133       0.005113       0.000000
      0.001536       0.004006       0.000000
      0.001009       0.004975       0.000000
      0.000730       0.006000       0.000000
      0.000957       0.006432       0.000000
      0.001133       0.005113       0.000000
     -0.000967       0.000740       0.000000
     -0.000660       0.000395       0.000000
     -0.000352       0.000472       0.000000
     -0.000607       0.000965       0.000000
     -0.000660       0.000395       0.000000
     -0.000398       0.000191       0.000000
     -0.000221       0.000162       0.000000
     -0.000352       0.000472       0.000000
     -0.000607       0.000965       0.000000
     -0.000352       0.000472       0.000000
     -0.000203       0.000459       0.000000
     -0.000439       0.000952       0.000000
     -0.000352       0.000472       0.000000
     -0.000221       0.000162       0.000000
     -0.000131       0.000146       0.000000
     -0.000203       0.000459       0.000000
     -0.000398       0.000191       0.000000
     -0.000187       0.000136       0.000000
     -0.000166       0.000116       0.000000
     -0.000221       0.000162       0.000000
     -0.000187       0.000136       0.000000
     -0.000004       0.000222       0.000000
     -0.000115       0.000324       0.000000
     -0.000166       0.000116       0.000000
     -0.000221       0.000162       0.000000
     -0.000166       0.000116       0.000000
     -0.000153       0.000126       0.000000
     -0.000131       0.000146       0.000000
     -0.000166       0.000116       0.000000
     -0.000115       0.000324       0.000000
     -0.000135       0.000371       0.000000
     -0.000153       0.000126       0.000000
     -0.000004       0.000222       0.000000
      0.000180       0.000447       0.000000
      0.000007       0.000716       0.000000
     -0.000115       0.000324       0.000000
      0.000180       0.000447       0.000000
      0.000372       0.000798       0.000000
      0.000223       0.001177       0.000000
      0.000007       0.000716       0.000000
     -0.000115       0.000324       0.000000
      0.000007       0.000716       0.000000
      0.000010       0.000743       0.000000
     -0.000135       0.000371       0.000000
      0.000007       0.000716       0.000000
      0.000223       0.001177       0.000000
      0.000263       0.001135       0.000000
      0.000010       0.000743       0.000000
     -0.000439       0.000952       0.000000
     -0.000203       0.000459       0.000000
     -0.000105       0.000393       0.000000
     -0.000327       0.000839       0.000000
     -0.000203       0.000459       0.000000
     -0.000131       0.000146       0.000000
     -0.000071       0.000123       0.000000
     -0.000105       0.000393       0.000000
     -0.000327       0.000839       0.000000
     -0.000105       0.000393       0.000000
     -0.000037       0.000289       0.000000
     -0.000256       0.000643       0.000000
     -0.000105       0.000393       0.000000
     -0.000071       0.000123       0.000000
     -0.000028       0.000092       0.000000
     -0.000037       0.000289       0.000000
     -0.000131       0.000146       0.000000
     -0.000153       0.000126       0.000000
     -0.000134       0.000123       0.000000
     -0.000071       0.000123       0.000000
     -0.000153       0.000126       0.000000
     -0.000135       0.000371       0.000000
     -0.000121       0.000341       0.000000
     -0.000134       0.000123       0.000000
     -0.000071       0.000123       0.000000
     -0.000134       0.000123       0.000000
     -0.000106       0.000099       0.000000
     -0.000028       0.000092       0.000000
     -0.000134       0.000123       0.000000
     -0.000121       0.000341       0.000000
     -0.000093       0.000257       0.000000
     -0.000106       0.000099       0.000000
     -0.000135       0.000371       0.000000
      0.000010       0.000743       0.000000
      0.000038       0.000631       0.000000
     -0.000121       0.000341       0.000000
      0.000010       0.000743       0.000000
      0.000263       0.001135       0.000000
      0.000308       0.000932       0.000000
      0.000038       0.000631       0.000000
     -0.000121       0.000341       0.000000
      0.000038       0.000631       0.000000
      0.000057       0.000445       0.000000
     -0.000093       0.000257       0.000000
      0.000038       0.000631       0.000000
      0.000308       0.000932       0.000000
      0.000316       0.000666       0.000000
      0.000057       0.000445       0.000000
     -0.000256       0.000643       0.000000
     -0.000037       0.000289       0.000000
      0.000001       0.000153       0.000000
     -0.000199       0.000360       0.000000
     -0.000037       0.000289       0.000000
     -0.000028       0.000092       0.000000
     -0.000003       0.000051       0.000000
      0.000001       0.000153       0.000000
     -0.000199       0.000360       0.000000
      0.000001       0.000153       0.000000
      0.000000       0.000000       0.000000
      0.000000       0.000000       0.000000
      0.000001       0.000153       0.000000
     -0.000003       0.000051       0.000000
      0.000000       0.000000       0.000000
      0.000000       0.000000       0.000000
     -0.000028       0.000092       0.000000
     -0.000106       0.000099       0.000000
     -0.000065       0.000058       0.000000
     -0.000003       0.000051       0.000000
     -0.000106       0.000099       0.000000
     -0.000093       0.000257       0.000000
     -0.000052       0.000136       0.000000
     -0.000065       0.000058       0.000000
     -0.000003       0.000051       0.000000
     -0.000065       0.000058       0.000000
      0.000000       0.000000       0.000000
      0.000000       0.000000       0.000000
     -0.000065       0.000058       0.000000
     -0.000052       0.000136       0.000000
      0.000000       0.000000       0.000000
      0.000000       0.000000       0.000000
     -0.000093       0.000257       0.000000
      0.000057       0.000445       0.000000
      0.000049       0.000225       0.000000
     -0.000052       0.000136       0.000000
      0.000057       0.000445       0.000000
      0.000316       0.000666       0.000000
      0.000256       0.000367       0.000000
      0.000049       0.000225       0.000000
     -0.000052       0.000136       0.000000
      0.000049       0.000225       0.000000
      0.000000       0.000000       0.000000
      0.000000       0.000000       0.000000
      0.000049       0.000225       0.000000
      0.000256       0.000367       0.000000
      0.000000       0.000000       0.000000
      0.000000       0.000000       0.000000
     -0.000967       0.000740       0.000000
     -0.001308       0.001241       0.000000
     -0.001067       0.001503       0.000000
     -0.000607       0.000965       0.000000
     -0.001308       0.001241       0.000000
     -0.001614       0.001973       0.000000
     -0.001642       0.002196       0.000000
     -0.001067       0.001503       0.000000
     -0.000607       0.000965       0.000000
     -0.001067       0.001503       0.000000
     -0.000923       0.001546       0.000000