# vtk DataFile Version 2.0
time_10.vtk
ASCII
DATASET UNSTRUCTURED_GRID
POINTS  2304 float
      0.458579       0.641421       0.000000
      0.497369       0.671659       0.000000
      0.438243       0.730363       0.000000
      0.382149       0.701184       0.000000
      0.497369       0.671659       0.000000
      0.545805       0.692517       0.000000
      0.506084       0.750000       0.000000
      0.438243       0.730363       0.000000
      0.382149       0.701184       0.000000
      0.438243       0.730363       0.000000
      0.380813       0.787383       0.000000
      0.305719       0.760948       0.000000
      0.438243       0.730363       0.000000
      0.506084       0.750000       0.000000
      0.468251       0.804752       0.000000
      0.380813       0.787383       0.000000
      0.545805       0.692517       0.000000
      0.600000       0.700000       0.000000
      0.581017       0.756950       0.000000
      0.506084       0.750000       0.000000
      0.600000       0.700000       0.000000
      0.654195       0.692517       0.000000
      0.656527       0.750000       0.000000
      0.581017       0.756950       0.000000
      0.506084       0.750000       0.000000
      0.581017       0.756950       0.000000
      0.563060       0.810819       0.000000
      0.468251       0.804752       0.000000
      0.581017       0.756950       0.000000
      0.656527       0.750000       0.000000
      0.658747       0.804752       0.000000
      0.563060       0.810819       0.000000
      0.654195       0.692517       0.000000
      0.702631       0.671659       0.000000
      0.725999       0.730363       0.000000
      0.656527       0.750000       0.000000
      0.702631       0.671659       0.000000
      0.741421       0.641421       0.000000
      0.784518       0.701184       0.000000
      0.725999       0.730363       0.000000
      0.656527       0.750000       0.000000
      0.725999       0.730363       0.000000
      0.748697       0.787383       0.000000
      0.658747       0.804752       0.000000
      0.725999       0.730363       0.000000
      0.784518       0.701184       0.000000
      0.827614       0.760948       0.000000
      0.748697       0.787383       0.000000
      0.305719       0.760948       0.000000
      0.380813       0.787383       0.000000
      0.325006       0.842791       0.000000
      0.229289       0.820711       0.000000
      0.380813       0.787383       0.000000
      0.468251       0.804752       0.000000
      0.432173       0.856962       0.000000
      0.325006       0.842791       0.000000
      0.229289       0.820711       0.000000
      0.325006       0.842791       0.000000
      0.270755       0.896655       0.000000
      0.152860       0.880474       0.000000
      0.325006       0.842791       0.000000
      0.432173       0.856962       0.000000
      0.397732       0.906804       0.000000
      0.270755       0.896655       0.000000
      0.468251       0.804752       0.000000
      0.563060       0.810819       0.000000
      0.546050       0.861851       0.000000
      0.432173       0.856962       0.000000
      0.563060       0.810819       0.000000
      0.658747       0.804752       0.000000
      0.660865       0.856962       0.000000
      0.546050       0.861851       0.000000
      0.432173       0.856962       0.000000
      0.546050       0.861851       0.000000
      0.529912       0.910264       0.000000
      0.397732       0.906804       0.000000
      0.546050       0.861851       0.000000
      0.660865       0.856962       0.000000
      0.662887       0.906804       0.000000
      0.529912       0.910264       0.000000
      0.658747       0.804752       0.000000
      0.748697       0.787383       0.000000
      0.770753       0.842791       0.000000
      0.660865       0.856962       0.000000
      0.748697       0.787383       0.000000
      0.827614       0.760948       0.000000
      0.870711       0.820711       0.000000
      0.770753       0.842791       0.000000
      0.660865       0.856962       0.000000
      0.770753       0.842791       0.000000
      0.792195       0.896655       0.000000
      0.662887       0.906804       0.000000
      0.770753       0.842791       0.000000
      0.870711       0.820711       0.000000
      0.913807       0.880474       0.000000
      0.792195       0.896655       0.000000
      0.152860       0.880474       0.000000
      0.270755       0.896655       0.000000
      0.217995       0.949038       0.000000
      0.076430       0.940237       0.000000
      0.270755       0.896655       0.000000
      0.397732       0.906804       0.000000
      0.364819       0.954435       0.000000
      0.217995       0.949038       0.000000
      0.076430       0.940237       0.000000
      0.217995       0.949038       0.000000
      0.166667       1.000000       0.000000
      0.000000       1.000000       0.000000
      0.217995       0.949038       0.000000
      0.364819       0.954435       0.000000
      0.333333       1.000000       0.000000
      0.166667       1.000000       0.000000
      0.397732       0.906804       0.000000
      0.529912       0.910264       0.000000
      0.514582       0.956255       0.000000
      0.364819       0.954435       0.000000
      0.529912       0.910264       0.000000
      0.662887       0.906804       0.000000
      0.664819       0.954435       0.000000
      0.514582       0.956255       0.000000
      0.364819       0.954435       0.000000
      0.514582       0.956255       0.000000
      0.500000       1.000000       0.000000
      0.333333       1.000000       0.000000
      0.514582       0.956255       0.000000
      0.664819       0.954435       0.000000
      0.666667       1.000000       0.000000
      0.500000       1.000000       0.000000
      0.662887       0.906804       0.000000
      0.792195       0.896655       0.000000
      0.813047       0.949038       0.000000
      0.664819       0.954435       0.000000
      0.792195       0.896655       0.000000
      0.913807       0.880474       0.000000
      0.956904       0.940237       0.000000
      0.813047       0.949038       0.000000
      0.664819       0.954435       0.000000
      0.813047       0.949038       0.000000
      0.833333       1.000000       0.000000
      0.666667       1.000000       0.000000
      0.813047       0.949038       0.000000
      0.956904       0.940237       0.000000
      1.000000       1.000000       0.000000
      0.833333       1.000000       0.000000
      0.458579       0.358579       0.000000
      0.428341       0.397369       0.000000
      0.351758       0.356122       0.000000
      0.382149       0.298816       0.000000
      0.382149       0.298816       0.000000
      0.351758       0.356122       0.000000
      0.277372       0.316058       0.000000
      0.305719       0.239052       0.000000
      0.351758       0.356122       0.000000
      0.331305       0.424779       0.000000
      0.258747       0.404752       0.000000
      0.277372       0.316058       0.000000
      0.331305       0.424779       0.000000
      0.324066       0.500000       0.000000
      0.252241       0.500000       0.000000
      0.258747       0.404752       0.000000
      0.324066       0.500000       0.000000
      0.331305       0.575221       0.000000
      0.258747       0.595248       0.000000
      0.252241       0.500000       0.000000
      0.428341       0.602631       0.000000
      0.458579       0.641421       0.000000
      0.382149       0.701184       0.000000
      0.351758       0.643878       0.000000
      0.331305       0.575221       0.000000
      0.351758       0.643878       0.000000
      0.277372       0.683942       0.000000
      0.258747       0.595248       0.000000
      0.351758       0.643878       0.000000
      0.382149       0.701184       0.000000
      0.305719       0.760948       0.000000
      0.277372       0.683942       0.000000
      0.305719       0.239052       0.000000
      0.277372       0.316058       0.000000
      0.205089       0.277126       0.000000
      0.229289       0.179289       0.000000
      0.277372       0.316058       0.000000
      0.258747       0.404752       0.000000
      0.189557       0.385654       0.000000
      0.205089       0.277126       0.000000
      0.229289       0.179289       0.000000
      0.205089       0.277126       0.000000
      0.134820       0.239280       0.000000
      0.152860       0.119526       0.000000
      0.205089       0.277126       0.000000
      0.189557       0.385654       0.000000
      0.123505       0.367423       0.000000
      0.134820       0.239280       0.000000
      0.258747       0.404752       0.000000
      0.252241       0.500000       0.000000
      0.184198       0.500000       0.000000
      0.189557       0.385654       0.000000
      0.252241       0.500000       0.000000
      0.258747       0.595248       0.000000
      0.189557       0.614346       0.000000
      0.184198       0.500000       0.000000
      0.189557       0.385654       0.000000
      0.184198       0.500000       0.000000
      0.119648       0.500000       0.000000
      0.123505       0.367423       0.000000
      0.184198       0.500000       0.000000
      0.189557       0.614346       0.000000
      0.123505       0.632577       0.000000
      0.119648       0.500000       0.000000
      0.258747       0.595248       0.000000
      0.277372       0.683942       0.000000
      0.205089       0.722874       0.000000
      0.189557       0.614346       0.000000
      0.277372       0.683942       0.000000
      0.305719       0.760948       0.000000
      0.229289       0.820711       0.000000
      0.205089       0.722874       0.000000
      0.189557       0.614346       0.000000
      0.205089       0.722874       0.000000
      0.134820       0.760720       0.000000
      0.123505       0.632577       0.000000
[...]
POINT_DATA  2304
VECTORS U float 
      0.000559       0.005790       0.000000
      0.000366       0.006178       0.000000
      0.000150       0.005865       0.000000
      0.000386       0.005367       0.000000
      0.000366       0.006178       0.000000
      0.000191       0.006452       0.000000
      0.000006       0.006307       0.000000
      0.000150       0.005865       0.000000
      0.000386       0.005367       0.000000
      0.000150       0.005865       0.000000
      0.000129       0.005820       0.000000
      0.000426       0.005391       0.000000
      0.000150       0.005865       0.000000
      0.000006       0.006307       0.000000
     -0.000073       0.006246       0.000000
      0.000129       0.005820       0.000000
      0.000191       0.006452       0.000000
      0.000058       0.006610       0.000000
     -0.000050       0.006590       0.000000
      0.000006       0.006307       0.000000
      0.000058       0.006610       0.000000
     -0.000028       0.006682       0.000000
     -0.000072       0.006702       0.000000
     -0.000050       0.006590       0.000000
      0.000006       0.006307       0.000000
     -0.000050       0.006590       0.000000
     -0.000142       0.006568       0.000000
     -0.000073       0.006246       0.000000
     -0.000050       0.006590       0.000000
     -0.000072       0.006702       0.000000
     -0.000139       0.006709       0.000000
     -0.000142       0.006568       0.000000
     -0.000028       0.006682       0.000000
     -0.000078       0.006706       0.000000
     -0.000090       0.006721       0.000000
     -0.000072       0.006702       0.000000
     -0.000078       0.006706       0.000000
     -0.000105       0.006707       0.000000
     -0.000104       0.006711       0.000000
     -0.000090       0.006721       0.000000
     -0.000072       0.006702       0.000000
     -0.000090       0.006721       0.000000
     -0.000132       0.006733       0.000000
     -0.000139       0.006709       0.000000
     -0.000090       0.006721       0.000000
     -0.000104       0.006711       0.000000
     -0.000132       0.006721       0.000000
     -0.000132       0.006733       0.000000
      0.000426       0.005391       0.000000
      0.000129       0.005820       0.000000
      0.000168       0.005936       0.000000
      0.000514       0.005604       0.000000
      0.000129       0.005820       0.000000
     -0.000073       0.006246       0.000000
     -0.000095       0.006282       0.000000
      0.000168       0.005936       0.000000
      0.000514       0.005604       0.000000
      0.000168       0.005936       0.000000
      0.000238       0.006147       0.000000
      0.000631       0.005910       0.000000
      0.000168       0.005936       0.000000
     -0.000095       0.006282       0.000000
     -0.000085       0.006388       0.000000
      0.000238       0.006147       0.000000
     -0.000073       0.006246       0.000000
     -0.000142       0.006568       0.000000
     -0.000202       0.006574       0.000000
     -0.000095       0.006282       0.000000
     -0.000142       0.006568       0.000000
     -0.000139       0.006709       0.000000
     -0.000194       0.006716       0.000000
     -0.000202       0.006574       0.000000
     -0.000095       0.006282       0.000000
     -0.000202       0.006574       0.000000
     -0.000235       0.006608       0.000000
     -0.000085       0.006388       0.000000
     -0.000202       0.006574       0.000000
     -0.000194       0.006716       0.000000
     -0.000232       0.006723       0.000000
     -0.000235       0.006608       0.000000
     -0.000139       0.006709       0.000000
     -0.000132       0.006733       0.000000
     -0.000172       0.006739       0.000000
     -0.000194       0.006716       0.000000
     -0.000132       0.006733       0.000000
     -0.000132       0.006721       0.000000
     -0.000163       0.006728       0.000000
     -0.000172       0.006739       0.000000
     -0.000194       0.006716       0.000000
     -0.000172       0.006739       0.000000
     -0.000200       0.006742       0.000000
     -0.000232       0.006723       0.000000
     -0.000172       0.006739       0.000000
     -0.000163       0.006728       0.000000
     -0.000188       0.006734       0.000000
     -0.000200       0.006742       0.000000
      0.000631       0.005910       0.000000
      0.000238       0.006147       0.000000
      0.000338       0.006421       0.000000
      0.000797       0.006282       0.000000
      0.000238       0.006147       0.000000
     -0.000085       0.006388       0.000000
     -0.000050       0.006545       0.000000
      0.000338       0.006421       0.000000
      0.000797       0.006282       0.000000
      0.000338       0.006421       0.000000
      0.000476       0.006742       0.000000
      0.001038       0.006742       0.000000
      0.000338       0.006421       0.000000
     -0.000050       0.006545       0.000000
      0.000009       0.006742       0.000000
      0.000476       0.006742       0.000000
     -0.000085       0.006388       0.000000
     -0.000235       0.006608       0.000000
     -0.000248       0.006666       0.000000
     -0.000050       0.006545       0.000000
     -0.000235       0.006608       0.000000
     -0.000232       0.006723       0.000000
     -0.000253       0.006733       0.000000
     -0.000248       0.006666       0.000000
     -0.000050       0.006545       0.000000
     -0.000248       0.006666       0.000000
     -0.000245       0.006742       0.000000
      0.000009       0.006742       0.000000
     -0.000248       0.006666       0.000000
     -0.000253       0.006733       0.000000
     -0.000259       0.006742       0.000000
     -0.000245       0.006742       0.000000
     -0.000232       0.006723       0.000000
     -0.000200       0.006742       0.000000
     -0.000215       0.006742       0.000000
     -0.000253       0.006733       0.000000
     -0.000200       0.006742       0.000000
     -0.000188       0.006734       0.000000
     -0.000205       0.006740       0.000000
     -0.000215       0.006742       0.000000
     -0.000253       0.006733       0.000000
     -0.000215       0.006742       0.000000
     -0.000218       0.006742       0.000000
     -0.000259       0.006742       0.000000
     -0.000215       0.006742       0.000000
     -0.000205       0.006740       0.000000
     -0.000210       0.006742       0.000000
     -0.000218       0.006742       0.000000
      0.000503       0.000805       0.000000
      0.000703       0.001305       0.000000
      0.000668       0.001767       0.000000
      0.000334       0.001206       0.000000
      0.000334       0.001206       0.000000
      0.000668       0.001767       0.000000
      0.000734       0.001810       0.000000
      0.000346       0.001176       0.000000
      0.000668       0.001767       0.000000
      0.001060       0.002467       0.000000
      0.001183       0.002559       0.000000
      0.000734       0.001810       0.000000
      0.001060       0.002467       0.000000
      0.001303       0.003285       0.000000
      0.001432       0.003297       0.000000
      0.001183       0.002559       0.000000
      0.001303       0.003285       0.000000
      0.001099       0.004101       0.000000
      0.001223       0.004024       0.000000
      0.001432       0.003297       0.000000
      0.000756       0.005267       0.000000
      0.000559       0.005790       0.000000
      0.000386       0.005367       0.000000
      0.000724       0.004796       0.000000
      0.001099       0.004101       0.000000
      0.000724       0.004796       0.000000
      0.000801       0.004758       0.000000
      0.001223       0.004024       0.000000
      0.000724       0.004796       0.000000
      0.000386       0.005367       0.000000
      0.000426       0.005391       0.000000
      0.000801       0.004758       0.000000
      0.000346       0.001176       0.000000
      0.000734       0.001810       0.000000
      0.000815       0.001710       0.000000
      0.000370       0.000972       0.000000
      0.000734       0.001810       0.000000
      0.001183       0.002559       0.000000
      0.001302       0.002535       0.000000
      0.000815       0.001710       0.000000
      0.000370       0.000972       0.000000
      0.000815       0.001710       0.000000
      0.000887       0.001586       0.000000
      0.000359       0.000699       0.000000
      0.000815       0.001710       0.000000
      0.001302       0.002535       0.000000
      0.001419       0.002498       0.000000
      0.000887       0.001586       0.000000
      0.001183       0.002559       0.000000
      0.001432       0.003297       0.000000
      0.001550       0.003309       0.000000
      0.001302       0.002535       0.000000
      0.001432       0.003297       0.000000
      0.001223       0.004024       0.000000
      0.001342       0.004073       0.000000
      0.001550       0.003309       0.000000
      0.001302       0.002535       0.000000
      0.001550       0.003309       0.000000
      0.001680       0.003323       0.000000
      0.001419       0.002498       0.000000
      0.001550       0.003309       0.000000
      0.001342       0.004073       0.000000
      0.001464       0.004143       0.000000
      0.001680       0.003323       0.000000
      0.001223       0.004024       0.000000
      0.000801       0.004758       0.000000
      0.000902       0.004875       0.000000
      0.001342       0.004073       0.000000
      0.000801       0.004758       0.000000
      0.000426       0.005391       0.000000
      0.000514       0.005604       0.000000
      0.000902       0.004875       0.000000
      0.001342       0.004073       0.000000
      0.000902       0.004875       0.000000
      0.001005       0.005037       0.000000
      0.001464       0.004143       0.000000
      0.000902       0.004875       0.000000
      0.000514       0.005604       0.000000
      0.000631       0.005910       0.000000
      0.001005       0.005037       0.000000
      0.000359       0.000699       0.000000
      0.000887       0.001586       0.000000
      0.000949       0.001497       0.000000
      0.000280       0.000388       0.000000
      0.000887       0.001586       0.000000
      0.001419       0.002498       0.000000
      0.001530       0.002492       0.000000
      0.000949       0.001497       0.000000
      0.000280       0.000388       0.000000
      0.000949       0.001497       0.000000
      0.001003       0.001465       0.000000
      0.000000       0.000000       0.000000
      0.000949       0.001497       0.000000
      0.001530       0.002492       0.000000
      0.001625       0.002547       0.000000
      0.001003       0.001465       0.000000
      0.001419       0.002498       0.000000
      0.001680       0.003323       0.000000
      0.001814       0.003337       0.000000
      0.001530       0.002492       0.000000
      0.001680       0.003323       0.000000
      0.001464       0.004143       0.000000
      0.001581       0.004187       0.000000
      0.001814       0.003337       0.000000
      0.001530       0.002492       0.000000
      0.001814       0.003337       0.000000
      0.001935       0.003348       0.000000
      0.001625       0.002547       0.000000
      0.001814       0.003337       0.000000
      0.001581       0.004187       0.000000
      0.001690       0.004168       0.000000
      0.001935       0.003348       0.000000
      0.001464       0.004143       0.000000
      0.001005       0.005037       0.000000
      0.001111       0.005194       0.000000
      0.001581       0.004187       0.000000
      0.001005       0.005037       0.000000
      0.000631       0.005910       0.000000
      0.000797       0.006282       0.000000
      0.001111       0.005194       0.000000
      0.001581       0.004187       0.000000
      0.001111       0.005194       0.000000
      0.001236       0.005332       0.000000
      0.001690       0.004168       0.000000
      0.001111       0.005194       0.000000
      0.000797       0.006282       0.000000
      0.001038       0.006742       0.000000
      0.001236       0.005332       0.000000
      0.001179       0.003277       0.000000
      0.001137       0.003819       0.000000
      0.001247       0.003705       0.000000
      0.001303       0.003285       0.000000
      0.001137       0.003819       0.000000
      0.001024       0.004260       0.000000
      0.001099       0.004101       0.000000
      0.001247       0.003705       0.000000
      0.000986       0.002302       0.000000
      0.001115       0.002739       0.000000
      0.001225       0.002865       0.000000
      0.001060       0.002467       0.000000
      0.001115       0.002739       0.000000
      0.001179       0.003277       0.000000
      0.001303       0.003285       0.000000
      0.001225       0.002865       0.000000
      0.001062       0.003271       0.000000
      0.001060       0.003613       0.000000
      0.001171       0.003558       0.000000
      0.001179       0.003277       0.000000
      0.001060       0.003613       0.000000
      0.001045       0.003913       0.000000
      0.001137       0.003819       0.000000
      0.001171       0.003558       0.000000
      0.001026       0.002639       0.000000
      0.001050       0.002933       0.000000
      0.001159       0.002998       0.000000
      0.001115       0.002739       0.000000
      0.001050       0.002933       0.000000
      0.001062       0.003271       0.000000
      0.001179       0.003277       0.000000
      0.001159       0.002998       0.000000
      0.000864       0.003266       0.000000
      0.000869       0.003467       0.000000
      0.000977       0.003459       0.000000
      0.000975       0.003268       0.000000
      0.000869       0.003467       0.000000
      0.000879       0.003661       0.000000
      0.000981       0.003641       0.000000
      0.000977       0.003459       0.000000
      0.000975       0.003268       0.000000
      0.000977       0.003459       0.000000
      0.001063       0.003445       0.000000
      0.001062       0.003271       0.000000
      0.000977       0.003459       0.000000
      0.000981       0.003641       0.000000
      0.001060       0.003613       0.000000
      0.001063       0.003445       0.000000
      0.000873       0.002875       0.000000
      0.000866       0.003065       0.000000
      0.000973       0.003079       0.000000
      0.000972       0.002899       0.000000
      0.000866       0.003065       0.000000
      0.000864       0.003266       0.000000
      0.000975       0.003268       0.000000
      0.000973       0.003079       0.000000
      0.000972       0.002899       0.000000
      0.000973       0.003079       0.000000
      0.001057       0.003099       0.000000
      0.001050       0.002933       0.000000
      0.000973       0.003079       0.000000
      0.000975       0.003268       0.000000
      0.001062       0.003271       0.000000
      0.001057       0.003099       0.000000
      0.000901       0.004529       0.000000
      0.000842       0.004932       0.000000
      0.000878       0.004625       0.000000
      0.001024       0.004260       0.000000
      0.000842       0.004932       0.000000
      0.000756       0.005267       0.000000
      0.000718       0.004945       0.000000
      0.000878       0.004625       0.000000
      0.001024       0.004260       0.000000
      0.000878       0.004625       0.000000
      0.000915       0.004464       0.000000
      0.001099       0.004101       0.000000
      0.000878       0.004625       0.000000
      0.000718       0.004945       0.000000
      0.000724       0.004796       0.000000
      0.000915       0.004464       0.000000
      0.000902       0.004004       0.000000
      0.000910       0.004287       0.000000
      0.001016       0.004166       0.000000
      0.001045       0.003913       0.000000
      0.000910       0.004287       0.000000
      0.000901       0.004529       0.000000
      0.000975       0.004384       0.000000
      0.001016       0.004166       0.000000
      0.001045       0.003913       0.000000
      0.001016       0.004166       0.000000
      0.001086       0.004052       0.000000
      0.001137       0.003819       0.000000
      0.001016       0.004166       0.000000
      0.000975       0.004384       0.000000
      0.001024       0.004260       0.000000
      0.001086       0.004052       0.000000
      0.000879       0.003661       0.000000
      0.000891       0.003840       0.000000
      0.000983       0.003810       0.000000
      0.000981       0.003641       0.000000
      0.000891       0.003840       0.000000
      0.000902       0.004004       0.000000
      0.000982       0.003963       0.000000
      0.000983       0.003810       0.000000
      0.000981       0.003641       0.000000
      0.000983       0.003810       0.000000
      0.001054       0.003769       0.000000
      0.001060       0.003613       0.000000
      0.000983       0.003810       0.000000
      0.000982       0.003963       0.000000
      0.001045       0.003913       0.000000
      0.001054       0.003769       0.000000
      0.000703       0.001305       0.000000
      0.000798       0.001631       0.000000
      0.000828       0.001940       0.000000
      0.000663       0.001622       0.000000
      0.000798       0.001631       0.000000
      0.000869       0.002026       0.000000
      0.000986       0.002302       0.000000
      0.000828       0.001940       0.000000
      0.000663       0.001622       0.000000
      0.000828       0.001940       0.000000
      0.000865       0.002101       0.000000
      0.000668       0.001767       0.000000
      0.000828       0.001940       0.000000
      0.000986       0.002302       0.000000
      0.001060       0.002467       0.000000
      0.000865       0.002101       0.000000
      0.000869       0.002026       0.000000
      0.000887       0.002263       0.000000
      0.000988       0.002390       0.000000
      0.000940       0.002176       0.000000
      0.000887       0.002263       0.000000
      0.000888       0.002540       0.000000
      0.001026       0.002639       0.000000
      0.000988       0.002390       0.000000
      0.000940       0.002176       0.000000
      0.000988       0.002390       0.000000
      0.001056       0.002509       0.000000
      0.000986       0.002302       0.000000
      0.000988       0.002390       0.000000
      0.001026       0.002639       0.000000
      0.001115       0.002739       0.000000
      0.001056       0.002509       0.000000
      0.000888       0.002540       0.000000
      0.000882       0.002699       0.000000
      0.000970       0.002734       0.000000
      0.000965       0.002585       0.000000
      0.000882       0.002699       0.000000
      0.000873       0.002875       0.000000
      0.000972       0.002899       0.000000
      0.000970       0.002734       0.000000
      0.000965       0.002585       0.000000
      0.000970       0.002734       0.000000
      0.001040       0.002780       0.000000
      0.001026       0.002639       0.000000
      0.000970       0.002734       0.000000
      0.000972       0.002899       0.000000
      0.001050       0.002933       0.000000
      0.001040       0.002780       0.000000
     -0.000043       0.000018       0.000000
     -0.000016       0.000014       0.000000
     -0.000015       0.000008       0.000000
     -0.000028       0.000025       0.000000
     -0.000016       0.000014       0.000000
      0.000020       0.000028       0.000000
     -0.000009       0.000016       0.000000
     -0.000015       0.000008       0.000000
     -0.000028       0.000025       0.000000
     -0.000015       0.000008       0.000000
     -0.000029       0.000006       0.000000