# vtk DataFile Version 2.0
time_10.vtk
ASCII
DATASET UNSTRUCTURED_GRID
POINTS   576 float
      0.458579       0.641421       0.000000
      0.497369       0.671659       0.000000
      0.438243       0.730363       0.000000
      0.382149       0.701184       0.000000
      0.497369       0.671659       0.000000
      0.545805       0.692517       0.000000
      0.506084       0.750000       0.000000
      0.438243       0.730363       0.000000
      0.382149       0.701184       0.000000
      0.438243       0.730363       0.000000
      0.380813       0.787383       0.000000
      0.305719       0.760948       0.000000
      0.438243       0.730363       0.000000
      0.506084       0.750000       0.000000
      0.468251       0.804752       0.000000
      0.380813       0.787383       0.000000
      0.545805       0.692517       0.000000
      0.600000       0.700000       0.000000
      0.581017       0.756950       0.000000
      0.506084       0.750000       0.000000
      0.600000       0.700000       0.000000
      0.654195       0.692517       0.000000
      0.656527       0.750000       0.000000
      0.581017       0.756950       0.000000
      0.506084       0.750000       0.000000
      0.581017       0.756950       0.000000
      0.563060       0.810819       0.000000
      0.468251       0.804752       0.000000
      0.581017       0.756950       0.000000
      0.656527       0.750000       0.000000
      0.658747       0.804752       0.000000
      0.563060       0.810819       0.000000
      0.654195       0.692517       0.000000
      0.702631       0.671659       0.000000
      0.725999       0.730363       0.000000
      0.656527       0.750000       0.000000
      0.702631       0.671659       0.000000
      0.741421       0.641421       0.000000
      0.784518       0.701184       0.000000
      0.725999       0.730363       0.000000
      0.656527       0.750000       0.000000
      0.725999       0.730363       0.000000
      0.748697       0.787383       0.000000
      0.658747       0.804752       0.000000
      0.725999       0.730363       0.000000
      0.784518       0.701184       0.000000
      0.827614       0.760948       0.000000
      0.748697       0.787383       0.000000
      0.305719       0.760948       0.000000
      0.380813       0.787383       0.000000
      0.325006       0.842791       0.000000
      0.229289       0.820711       0.000000
      0.380813       0.787383       0.000000
      0.468251       0.804752       0.000000
      0.432173       0.856962       0.000000
      0.325006       0.842791       0.000000
      0.229289       0.820711       0.000000
      0.325006       0.842791       0.000000
      0.270755       0.896655       0.000000
      0.152860       0.880474       0.000000
      0.325006       0.842791       0.000000
      0.432173       0.856962       0.000000
      0.397732       0.906804       0.000000
      0.270755       0.896655       0.000000
      0.468251       0.804752       0.000000
      0.563060       0.810819       0.000000
      0.546050       0.861851       0.000000
      0.432173       0.856962       0.000000
      0.563060       0.810819       0.000000
      0.658747       0.804752       0.000000
      0.660865       0.856962       0.000000
      0.546050       0.861851       0.000000
      0.432173       0.856962       0.000000
      0.546050       0.861851       0.000000
      0.529912       0.910264       0.000000
      0.397732       0.906804       0.000000
      0.546050       0.861851       0.000000
      0.660865       0.856962       0.000000
      0.662887       0.906804       0.000000
      0.529912       0.910264       0.000000
      0.658747       0.804752       0.000000
      0.748697       0.787383       0.000000
      0.770753       0.842791       0.000000
      0.660865       0.856962       0.000000
      0.748697       0.787383       0.000000
      0.827614       0.760948       0.000000
      0.870711       0.820711       0.000000
      0.770753       0.842791       0.000000
      0.660865       0.856962       0.000000
      0.770753       0.842791       0.000000
      0.792195       0.896655       0.000000
      0.662887       0.906804       0.000000
      0.770753       0.842791       0.000000
      0.870711       0.820711       0.000000
      0.913807       0.880474       0.000000
      0.792195       0.896655       0.000000
      0.152860       0.880474       0.000000
      0.270755       0.896655       0.000000
      0.217995       0.949038       0.000000
      0.076430       0.940237       0.000000
      0.270755       0.896655       0.000000
      0.397732       0.906804       0.000000
      0.364819       0.954435       0.000000
      0.217995       0.949038       0.000000
      0.076430       0.940237       0.000000
      0.217995       0.949038       0.000000
      0.166667       1.000000       0.000000
      0.000000       1.000000       0.000000
      0.217995       0.949038       0.000000
      0.364819       0.954435       0.000000
      0.333333       1.000000       0.000000
      0.166667       1.000000       0.000000
      0.397732       0.906804       0.000000
      0.529912       0.910264       0.000000
      0.514582       0.956255       0.000000
      0.364819       0.954435       0.000000
      0.529912       0.910264       0.000000
      0.662887       0.906804       0.000000
      0.664819       0.954435       0.000000
      0.514582       0.956255       0.000000
      0.364819       0.954435       0.000000
      0.514582       0.956255       0.000000
      0.500000       1.000000       0.000000
      0.333333       1.000000       0.000000
      0.514582       0.956255       0.000000
      0.664819       0.954435       0.000000
      0.666667       1.000000       0.000000
      0.500000       1.000000       0.000000
      0.662887       0.906804       0.000000
      0.792195       0.896655       0.000000
      0.813047       0.949038       0.000000
      0.664819       0.954435       0.000000
      0.792195       0.896655       0.000000
      0.913807       0.880474       0.000000
      0.956904       0.940237       0.000000
      0.813047       0.949038       0.000000
      0.664819       0.954435       0.000000
      0.813047       0.949038       0.000000
      0.833333       1.000000       0.000000
      0.666667       1.000000       0.000000
      0.813047       0.949038       0.000000
      0.956904       0.940237       0.000000
      1.000000       1.000000       0.000000
      0.833333       1.000000       0.000000
      0.458579       0.358579       0.000000
      0.428341       0.397369       0.000000
      0.351758       0.356122       0.000000
      0.382149       0.298816       0.000000
      0.428341       0.397369       0.000000
      0.407483       0.445805       0.000000
      0.331305       0.424779       0.000000
      0.351758       0.356122       0.000000
      0.382149       0.298816       0.000000
      0.351758       0.356122       0.000000
      0.277372       0.316058       0.000000
      0.305719       0.239052       0.000000
      0.351758       0.356122       0.000000
      0.331305       0.424779       0.000000
      0.258747       0.404752       0.000000
      0.277372       0.316058       0.000000
      0.407483       0.445805       0.000000
      0.400000       0.500000       0.000000
      0.324066       0.500000       0.000000
      0.331305       0.424779       0.000000
      0.400000       0.500000       0.000000
      0.407483       0.554195       0.000000
      0.331305       0.575221       0.000000
      0.324066       0.500000       0.000000
      0.331305       0.424779       0.000000
      0.324066       0.500000       0.000000
      0.252241       0.500000       0.000000
      0.258747       0.404752       0.000000
      0.324066       0.500000       0.000000
      0.331305       0.575221       0.000000
      0.258747       0.595248       0.000000
      0.252241       0.500000       0.000000
      0.407483       0.554195       0.000000
      0.428341       0.602631       0.000000
      0.351758       0.643878       0.000000
      0.331305       0.575221       0.000000
      0.428341       0.602631       0.000000
      0.458579       0.641421       0.000000
      0.382149       0.701184       0.000000
      0.351758       0.643878       0.000000
      0.331305       0.575221       0.000000
      0.351758       0.643878       0.000000
      0.277372       0.683942       0.000000
      0.258747       0.595248       0.000000
      0.351758       0.643878       0.000000
      0.382149       0.701184       0.000000
      0.305719       0.760948       0.000000
      0.277372       0.683942       0.000000
      0.305719       0.239052       0.000000
      0.277372       0.316058       0.000000
      0.205089       0.277126       0.000000
      0.229289       0.179289       0.000000
      0.277372       0.316058       0.000000
      0.258747       0.404752       0.000000
      0.189557       0.385654       0.000000
      0.205089       0.277126       0.000000
      0.229289       0.179289       0.000000
      0.205089       0.277126       0.000000
      0.134820       0.239280       0.000000
      0.152860       0.119526       0.000000
      0.205089       0.277126       0.000000
      0.189557       0.385654       0.000000
      0.123505       0.367423       0.000000
      0.134820       0.239280       0.000000
      0.258747       0.404752       0.000000
      0.252241       0.500000       0.000000
      0.184198       0.500000       0.000000
      0.189557       0.385654       0.000000
      0.252241       0.500000       0.000000
      0.258747       0.595248       0.000000
      0.189557       0.614346       0.000000
      0.184198       0.500000       0.000000
      0.189557       0.385654       0.000000
      0.184198       0.500000       0.000000
      0.119648       0.500000       0.000000
      0.123505       0.367423       0.000000
[...]
POINT_DATA   576
VECTORS U float 
      0.000401       0.005200       0.000000
      0.000206       0.005567       0.000000
      0.000035       0.005290       0.000000
      0.000263       0.004823       0.000000
      0.000206       0.005567       0.000000
      0.000003       0.005811       0.000000
     -0.000115       0.005705       0.000000
      0.000035       0.005290       0.000000
      0.000263       0.004823       0.000000
      0.000035       0.005290       0.000000
      0.000059       0.005263       0.000000
      0.000331       0.004868       0.000000
      0.000035       0.005290       0.000000
     -0.000115       0.005705       0.000000
     -0.000130       0.005660       0.000000
      0.000059       0.005263       0.000000
      0.000003       0.005811       0.000000
     -0.000207       0.005911       0.000000
     -0.000195       0.005937       0.000000
     -0.000115       0.005705       0.000000
     -0.000207       0.005911       0.000000
     -0.000437       0.005860       0.000000
     -0.000271       0.005897       0.000000
     -0.000195       0.005937       0.000000
     -0.000115       0.005705       0.000000
     -0.000195       0.005937       0.000000
     -0.000193       0.005934       0.000000
     -0.000130       0.005660       0.000000
     -0.000195       0.005937       0.000000
     -0.000271       0.005897       0.000000
     -0.000205       0.005923       0.000000
     -0.000193       0.005934       0.000000
     -0.000437       0.005860       0.000000
     -0.000696       0.005658       0.000000
     -0.000411       0.005590       0.000000
     -0.000271       0.005897       0.000000
     -0.000696       0.005658       0.000000
     -0.000981       0.005321       0.000000
     -0.000657       0.005116       0.000000
     -0.000411       0.005590       0.000000
     -0.000271       0.005897       0.000000
     -0.000411       0.005590       0.000000
     -0.000295       0.005612       0.000000
     -0.000205       0.005923       0.000000
     -0.000411       0.005590       0.000000
     -0.000657       0.005116       0.000000
     -0.000525       0.005143       0.000000
     -0.000295       0.005612       0.000000
      0.000331       0.004868       0.000000
      0.000059       0.005263       0.000000
      0.000122       0.005374       0.000000
      0.000432       0.005073       0.000000
      0.000059       0.005263       0.000000
     -0.000130       0.005660       0.000000
     -0.000110       0.005695       0.000000
      0.000122       0.005374       0.000000
      0.000432       0.005073       0.000000
      0.000122       0.005374       0.000000
      0.000200       0.005566       0.000000
      0.000550       0.005356       0.000000
      0.000122       0.005374       0.000000
     -0.000110       0.005695       0.000000
     -0.000079       0.005789       0.000000
      0.000200       0.005566       0.000000
     -0.000130       0.005660       0.000000
     -0.000193       0.005934       0.000000
     -0.000188       0.005948       0.000000
     -0.000110       0.005695       0.000000
     -0.000193       0.005934       0.000000
     -0.000205       0.005923       0.000000
     -0.000169       0.005958       0.000000
     -0.000188       0.005948       0.000000
     -0.000110       0.005695       0.000000
     -0.000188       0.005948       0.000000
     -0.000181       0.005984       0.000000
     -0.000079       0.005789       0.000000
     -0.000188       0.005948       0.000000
     -0.000169       0.005958       0.000000
     -0.000148       0.006002       0.000000
     -0.000181       0.005984       0.000000
     -0.000205       0.005923       0.000000
     -0.000295       0.005612       0.000000
     -0.000233       0.005683       0.000000
     -0.000169       0.005958       0.000000
     -0.000295       0.005612       0.000000
     -0.000525       0.005143       0.000000
     -0.000453       0.005262       0.000000
     -0.000233       0.005683       0.000000
     -0.000169       0.005958       0.000000
     -0.000233       0.005683       0.000000
     -0.000200       0.005790       0.000000
     -0.000148       0.006002       0.000000
     -0.000233       0.005683       0.000000
     -0.000453       0.005262       0.000000
     -0.000433       0.005456       0.000000
     -0.000200       0.005790       0.000000
      0.000550       0.005356       0.000000
      0.000200       0.005566       0.000000
      0.000297       0.005813       0.000000
      0.000705       0.005693       0.000000
      0.000200       0.005566       0.000000
     -0.000079       0.005789       0.000000
     -0.000040       0.005927       0.000000
      0.000297       0.005813       0.000000
      0.000705       0.005693       0.000000
      0.000297       0.005813       0.000000
      0.000421       0.006102       0.000000
      0.000919       0.006102       0.000000
      0.000297       0.005813       0.000000
     -0.000040       0.005927       0.000000
      0.000012       0.006102       0.000000
      0.000421       0.006102       0.000000
     -0.000079       0.005789       0.000000
     -0.000181       0.005984       0.000000
     -0.000177       0.006036       0.000000
     -0.000040       0.005927       0.000000
     -0.000181       0.005984       0.000000
     -0.000148       0.006002       0.000000
     -0.000137       0.006051       0.000000
     -0.000177       0.006036       0.000000
     -0.000040       0.005927       0.000000
     -0.000177       0.006036       0.000000
     -0.000173       0.006102       0.000000
      0.000012       0.006102       0.000000
     -0.000177       0.006036       0.000000
     -0.000137       0.006051       0.000000
     -0.000133       0.006102       0.000000
     -0.000173       0.006102       0.000000
     -0.000148       0.006002       0.000000
     -0.000200       0.005790       0.000000
     -0.000190       0.005929       0.000000
     -0.000137       0.006051       0.000000
     -0.000200       0.005790       0.000000
     -0.000433       0.005456       0.000000
     -0.000471       0.005737       0.000000
     -0.000190       0.005929       0.000000
     -0.000137       0.006051       0.000000
     -0.000190       0.005929       0.000000
     -0.000204       0.006102       0.000000
     -0.000133       0.006102       0.000000
     -0.000190       0.005929       0.000000
     -0.000471       0.005737       0.000000
     -0.000567       0.006102       0.000000
     -0.000204       0.006102       0.000000
      0.000350       0.000778       0.000000
      0.000534       0.001259       0.000000
      0.000517       0.001663       0.000000
      0.000211       0.001138       0.000000
      0.000534       0.001259       0.000000
      0.000677       0.001955       0.000000
      0.000861       0.002292       0.000000
      0.000517       0.001663       0.000000
      0.000211       0.001138       0.000000
      0.000517       0.001663       0.000000
      0.000590       0.001671       0.000000
      0.000251       0.001091       0.000000
      0.000517       0.001663       0.000000
      0.000861       0.002292       0.000000
      0.000973       0.002338       0.000000
      0.000590       0.001671       0.000000
      0.000677       0.001955       0.000000
      0.000715       0.002966       0.000000
      0.001048       0.002980       0.000000
      0.000861       0.002292       0.000000
      0.000715       0.002966       0.000000
      0.000705       0.003988       0.000000
      0.000897       0.003665       0.000000
      0.001048       0.002980       0.000000
      0.000861       0.002292       0.000000
      0.001048       0.002980       0.000000
      0.001173       0.002990       0.000000
      0.000973       0.002338       0.000000
      0.001048       0.002980       0.000000
      0.000897       0.003665       0.000000
      0.001009       0.003634       0.000000
      0.001173       0.002990       0.000000
      0.000705       0.003988       0.000000
      0.000581       0.004699       0.000000
      0.000570       0.004291       0.000000
      0.000897       0.003665       0.000000
      0.000581       0.004699       0.000000
      0.000401       0.005200       0.000000
      0.000263       0.004823       0.000000
      0.000570       0.004291       0.000000
      0.000897       0.003665       0.000000
      0.000570       0.004291       0.000000
      0.000654       0.004288       0.000000
      0.001009       0.003634       0.000000
      0.000570       0.004291       0.000000
      0.000263       0.004823       0.000000
      0.000331       0.004868       0.000000
      0.000654       0.004288       0.000000
      0.000251       0.001091       0.000000
      0.000590       0.001671       0.000000
      0.000673       0.001562       0.000000
      0.000295       0.000892       0.000000
      0.000590       0.001671       0.000000
      0.000973       0.002338       0.000000
      0.001082       0.002301       0.000000
      0.000673       0.001562       0.000000
      0.000295       0.000892       0.000000
      0.000673       0.001562       0.000000
      0.000748       0.001435       0.000000
      0.000303       0.000635       0.000000
      0.000673       0.001562       0.000000
      0.001082       0.002301       0.000000
      0.001194       0.002259       0.000000
      0.000748       0.001435       0.000000
      0.000973       0.002338       0.000000
      0.001173       0.002990       0.000000
      0.001288       0.003001       0.000000
      0.001082       0.002301       0.000000
      0.001173       0.002990       0.000000
      0.001009       0.003634       0.000000
      0.001121       0.003692       0.000000
      0.001288       0.003001       0.000000
      0.001082       0.002301       0.000000
      0.001288       0.003001       0.000000
      0.001411       0.003014       0.000000
      0.001194       0.002259       0.000000
      0.001288       0.003001       0.000000
      0.001121       0.003692       0.000000
      0.001237       0.003765       0.000000
      0.001411       0.003014       0.000000
      0.001009       0.003634       0.000000
      0.000654       0.004288       0.000000
      0.000757       0.004413       0.000000
      0.001121       0.003692       0.000000
      0.000654       0.004288       0.000000
      0.000331       0.004868       0.000000
      0.000432       0.005073       0.000000
      0.000757       0.004413       0.000000
      0.001121       0.003692       0.000000
      0.000757       0.004413       0.000000
      0.000859       0.004572       0.000000
      0.001237       0.003765       0.000000
      0.000757       0.004413       0.000000
      0.000432       0.005073       0.000000
      0.000550       0.005356       0.000000
      0.000859       0.004572       0.000000
      0.000303       0.000635       0.000000
      0.000748       0.001435       0.000000
      0.000814       0.001341       0.000000
      0.000246       0.000349       0.000000
      0.000748       0.001435       0.000000
      0.001194       0.002259       0.000000
      0.001299       0.002244       0.000000
      0.000814       0.001341       0.000000
      0.000246       0.000349       0.000000
      0.000814       0.001341       0.000000
      0.000871       0.001297       0.000000
      0.000000       0.000000       0.000000
      0.000814       0.001341       0.000000
      0.001299       0.002244       0.000000
      0.001392       0.002281       0.000000
      0.000871       0.001297       0.000000
      0.001194       0.002259       0.000000
      0.001411       0.003014       0.000000
      0.001537       0.003027       0.000000
      0.001299       0.002244       0.000000
      0.001411       0.003014       0.000000
      0.001237       0.003765       0.000000
      0.001349       0.003814       0.000000
      0.001537       0.003027       0.000000
      0.001299       0.002244       0.000000
      0.001537       0.003027       0.000000
      0.001652       0.003038       0.000000
      0.001392       0.002281       0.000000
      0.001537       0.003027       0.000000
      0.001349       0.003814       0.000000
      0.001454       0.003810       0.000000
      0.001652       0.003038       0.000000
      0.001237       0.003765       0.000000
      0.000859       0.004572       0.000000
      0.000963       0.004724       0.000000
      0.001349       0.003814       0.000000
      0.000859       0.004572       0.000000
      0.000550       0.005356       0.000000
      0.000705       0.005693       0.000000
      0.000963       0.004724       0.000000
      0.001349       0.003814       0.000000
      0.000963       0.004724       0.000000
      0.001082       0.004859       0.000000
      0.001454       0.003810       0.000000
      0.000963       0.004724       0.000000
      0.000705       0.005693       0.000000
      0.000919       0.006102       0.000000
      0.001082       0.004859       0.000000
     -0.000921       0.000726       0.000000
     -0.000632       0.000390       0.000000
     -0.000337       0.000463       0.000000
     -0.000582       0.000939       0.000000
     -0.000632       0.000390       0.000000
     -0.000382       0.000191       0.000000
     -0.000212       0.000162       0.000000
     -0.000337       0.000463       0.000000
     -0.000582       0.000939       0.000000
     -0.000337       0.000463       0.000000
     -0.000197       0.000449       0.000000
     -0.000425       0.000921       0.000000
     -0.000337       0.000463       0.000000
     -0.000212       0.000162       0.000000
     -0.000126       0.000146       0.000000
     -0.000197       0.000449       0.000000
     -0.000382       0.000191       0.000000
     -0.000181       0.000136       0.000000
     -0.000160       0.000117       0.000000
     -0.000212       0.000162       0.000000
     -0.000181       0.000136       0.000000
     -0.000006       0.000219       0.000000
     -0.000113       0.000318       0.000000
     -0.000160       0.000117       0.000000
     -0.000212       0.000162       0.000000
     -0.000160       0.000117       0.000000
     -0.000148       0.000126       0.000000
     -0.000126       0.000146       0.000000
     -0.000160       0.000117       0.000000
     -0.000113       0.000318       0.000000
     -0.000130       0.000362       0.000000
     -0.000148       0.000126       0.000000
     -0.000006       0.000219       0.000000
      0.000168       0.000437       0.000000
      0.000004       0.000695       0.000000
     -0.000113       0.000318       0.000000
      0.000168       0.000437       0.000000
      0.000350       0.000778       0.000000
      0.000211       0.001138       0.000000
      0.000004       0.000695       0.000000
     -0.000113       0.000318       0.000000
      0.000004       0.000695       0.000000
      0.000009       0.000719       0.000000
     -0.000130       0.000362       0.000000
      0.000004       0.000695       0.000000
      0.000211       0.001138       0.000000
      0.000251       0.001091       0.000000
      0.000009       0.000719       0.000000
     -0.000425       0.000921       0.000000
     -0.000197       0.000449       0.000000
     -0.000104       0.000383       0.000000
     -0.000319       0.000807       0.000000
     -0.000197       0.000449       0.000000
     -0.000126       0.000146       0.000000
     -0.000069       0.000122       0.000000
     -0.000104       0.000383       0.000000
     -0.000319       0.000807       0.000000
     -0.000104       0.000383       0.000000
     -0.000038       0.000280       0.000000
     -0.000250       0.000617       0.000000
     -0.000104       0.000383       0.000000
     -0.000069       0.000122       0.000000
     -0.000028       0.000091       0.000000
     -0.000038       0.000280       0.000000
     -0.000126       0.000146       0.000000
     -0.000148       0.000126       0.000000
     -0.000129       0.000121       0.000000
     -0.000069       0.000122       0.000000
     -0.000148       0.000126       0.000000
     -0.000130       0.000362       0.000000
     -0.000116       0.000332       0.000000
     -0.000129       0.000121       0.000000
     -0.000069       0.000122       0.000000
     -0.000129       0.000121       0.000000
     -0.000102       0.000098       0.000000
     -0.000028       0.000091       0.000000
     -0.000129       0.000121       0.000000
     -0.000116       0.000332       0.000000
     -0.000088       0.000249       0.000000
     -0.000102       0.000098       0.000000
     -0.000130       0.000362       0.000000
      0.000009       0.000719       0.000000
      0.000038       0.000609       0.000000
     -0.000116       0.000332       0.000000
      0.000009       0.000719       0.000000
      0.000251       0.001091       0.000000
      0.000295       0.000892       0.000000
      0.000038       0.000609       0.000000
     -0.000116       0.000332       0.000000
      0.000038       0.000609       0.000000
      0.000056       0.000428       0.000000
     -0.000088       0.000249       0.000000
      0.000038       0.000609       0.000000
      0.000295       0.000892       0.000000
      0.000303       0.000635       0.000000
      0.000056       0.000428       0.000000
     -0.000250       0.000617       0.000000
     -0.000038       0.000280       0.000000
     -0.000000       0.000148       0.000000
     -0.000193       0.000346       0.000000
     -0.000038       0.000280       0.000000
     -0.000028       0.000091       0.000000
     -0.000003       0.000051       0.000000
     -0.000000       0.000148       0.000000
     -0.000193       0.000346       0.000000
     -0.000000       0.000148       0.000000
      0.000000       0.000000       0.000000
      0.000000       0.000000       0.000000
     -0.000000       0.000148       0.000000
     -0.000003       0.000051       0.000000
      0.000000       0.000000       0.000000
      0.000000       0.000000       0.000000
     -0.000028       0.000091       0.000000
     -0.000102       0.000098       0.000000
     -0.000062       0.000057       0.000000
     -0.000003       0.000051       0.000000
     -0.000102       0.000098       0.000000
     -0.000088       0.000249       0.000000
     -0.000049       0.000132       0.000000
     -0.000062       0.000057       0.000000
     -0.000003       0.000051       0.000000
     -0.000062       0.000057       0.000000
      0.000000       0.000000       0.000000
      0.000000       0.000000       0.000000
     -0.000062       0.000057       0.000000
     -0.000049       0.000132       0.000000
      0.000000       0.000000       0.000000
      0.000000       0.000000       0.000000
     -0.000088       0.000249       0.000000
      0.000056       0.000428       0.000000
      0.000049       0.000216       0.000000
     -0.000049       0.000132       0.000000
      0.000056       0.000428       0.000000
      0.000303       0.000635       0.000000
      0.000246       0.000349       0.000000
      0.000049       0.000216       0.000000
     -0.000049       0.000132       0.000000
      0.000049       0.000216       0.000000
      0.000000       0.000000       0.000000
      0.000000       0.000000       0.000000
      0.000049       0.000216       0.000000
      0.000246       0.000349       0.000000
      0.000000       0.000000       0.000000
      0.000000       0.000000       0.000000
     -0.000921       0.000726       0.000000
     -0.001240       0.001215       0.000000
     -0.001019       0.001459       0.000000
     -0.000582       0.000939       0.000000
     -0.001240       0.001215       0.000000
     -0.001521       0.001931       0.000000
     -0.001557       0.002126       0.000000
     -0.001019       0.001459       0.000000
     -0.000582       0.000939       0.000000
     -0.001019       0.001459       0.000000
     -0.000886       0.001491       0.000000