# vtk DataFile Version 2.0
time_10.vtk
ASCII
DATASET UNSTRUCTURED_GRID
POINTS   576 float
      0.458579       0.641421       0.000000
      0.497369       0.671659       0.000000
      0.438243       0.730363       0.000000
      0.382149       0.701184       0.000000
      0.497369       0.671659       0.000000
      0.545805       0.692517       0.000000
      0.506084       0.750000       0.000000
      0.438243       0.730363       0.000000
      0.382149       0.701184       0.000000
      0.438243       0.730363       0.000000
      0.380813       0.787383       0.000000
      0.305719       0.760948       0.000000
      0.438243       0.730363       0.000000
      0.506084       0.750000       0.000000
      0.468251       0.804752       0.000000
      0.380813       0.787383       0.000000
      0.545805       0.692517       0.000000
      0.600000       0.700000       0.000000
      0.581017       0.756950       0.000000
      0.506084       0.750000       0.000000
      0.600000       0.700000       0.000000
      0.654195       0.692517       0.000000
      0.656527       0.750000       0.000000
      0.581017       0.756950       0.000000
      0.506084       0.750000       0.000000
      0.581017       0.756950       0.000000
      0.563060       0.810819       0.000000
      0.468251       0.804752       0.000000
      0.581017       0.756950       0.000000
      0.656527       0.750000       0.000000
      0.658747       0.804752       0.000000
      0.563060       0.810819       0.000000
      0.654195       0.692517       0.000000
      0.702631       0.671659       0.000000
      0.725999       0.730363       0.000000
      0.656527       0.750000       0.000000
      0.702631       0.671659       0.000000
      0.741421       0.641421       0.000000
      0.784518       0.701184       0.000000
      0.725999       0.730363       0.000000
      0.656527       0.750000       0.000000
      0.725999       0.730363       0.000000
      0.748697       0.787383       0.000000
      0.658747       0.804752       0.000000
      0.725999       0.730363       0.000000
      0.784518       0.701184       0.000000
      0.827614       0.760948       0.000000
      0.748697       0.787383       0.000000
      0.305719       0.760948       0.000000
      0.380813       0.787383       0.000000
      0.325006       0.842791       0.000000
      0.229289       0.820711       0.000000
      0.380813       0.787383       0.000000
      0.468251       0.804752       0.000000
      0.432173       0.856962       0.000000
      0.325006       0.842791       0.000000
      0.229289       0.820711       0.000000
      0.325006       0.842791       0.000000
      0.270755       0.896655       0.000000
      0.152860       0.880474       0.000000
      0.325006       0.842791       0.000000
      0.432173       0.856962       0.000000
      0.397732       0.906804       0.000000
      0.270755       0.896655       0.000000
      0.468251       0.804752       0.000000
      0.563060       0.810819       0.000000
      0.546050       0.861851       0.000000
      0.432173       0.856962       0.000000
      0.563060       0.810819       0.000000
      0.658747       0.804752       0.000000
      0.660865       0.856962       0.000000
      0.546050       0.861851       0.000000
      0.432173       0.856962       0.000000
      0.546050       0.861851       0.000000
      0.529912       0.910264       0.000000
      0.397732       0.906804       0.000000
      0.546050       0.861851       0.000000
      0.660865       0.856962       0.000000
      0.662887       0.906804       0.000000
      0.529912       0.910264       0.000000
      0.658747       0.804752       0.000000
      0.748697       0.787383       0.000000
      0.770753       0.842791       0.000000
      0.660865       0.856962       0.000000
      0.748697       0.787383       0.000000
      0.827614       0.760948       0.000000
      0.870711       0.820711       0.000000
      0.770753       0.842791       0.000000
      0.660865       0.856962       0.000000
      0.770753       0.842791       0.000000
      0.792195       0.896655       0.000000
      0.662887       0.906804       0.000000
      0.770753       0.842791       0.000000
      0.870711       0.820711       0.000000
      0.913807       0.880474       0.000000
      0.792195       0.896655       0.000000
      0.152860       0.880474       0.000000
      0.270755       0.896655       0.000000
      0.217995       0.949038       0.000000
      0.076430       0.940237       0.000000
      0.270755       0.896655       0.000000
      0.397732       0.906804       0.000000
      0.364819       0.954435       0.000000
      0.217995       0.949038       0.000000
      0.076430       0.940237       0.000000
      0.217995       0.949038       0.000000
      0.166667       1.000000       0.000000
      0.000000       1.000000       0.000000
      0.217995       0.949038       0.000000
      0.364819       0.954435       0.000000
      0.333333       1.000000       0.000000
      0.166667       1.000000       0.000000
      0.397732       0.906804       0.000000
      0.529912       0.910264       0.000000
      0.514582       0.956255       0.000000
      0.364819       0.954435       0.000000
      0.529912       0.910264       0.000000
      0.662887       0.906804       0.000000
      0.664819       0.954435       0.000000
      0.514582       0.956255       0.000000
      0.364819       0.954435       0.000000
      0.514582       0.956255       0.000000
      0.500000       1.000000       0.000000
      0.333333       1.000000       0.000000
      0.514582       0.956255       0.000000
      0.664819       0.954435       0.000000
      0.666667       1.000000       0.000000
      0.500000       1.000000       0.000000
      0.662887       0.906804       0.000000
      0.792195       0.896655       0.000000
      0.813047       0.949038       0.000000
      0.664819       0.954435       0.000000
      0.792195       0.896655       0.000000
      0.913807       0.880474       0.000000
      0.956904       0.940237       0.000000
      0.813047       0.949038       0.000000
      0.664819       0.954435       0.000000
      0.813047       0.949038       0.000000
      0.833333       1.000000       0.000000
      0.666667       1.000000       0.000000
      0.813047       0.949038       0.000000
      0.956904       0.940237       0.000000
      1.000000       1.000000       0.000000
      0.833333       1.000000       0.000000
      0.458579       0.358579       0.000000
      0.428341       0.397369       0.000000
      0.351758       0.356122       0.000000
      0.382149       0.298816       0.000000
      0.428341       0.397369       0.000000
      0.407483       0.445805       0.000000
      0.331305       0.424779       0.000000
      0.351758       0.356122       0.000000
      0.382149       0.298816       0.000000
      0.351758       0.356122       0.000000
      0.277372       0.316058       0.000000
      0.305719       0.239052       0.000000
      0.351758       0.356122       0.000000
      0.331305       0.424779       0.000000
      0.258747       0.404752       0.000000
      0.277372       0.316058       0.000000
      0.407483       0.445805       0.000000
      0.400000       0.500000       0.000000
      0.324066       0.500000       0.000000
      0.331305       0.424779       0.000000
      0.400000       0.500000       0.000000
      0.407483       0.554195       0.000000
      0.331305       0.575221       0.000000
      0.324066       0.500000       0.000000
      0.331305       0.424779       0.000000
      0.324066       0.500000       0.000000
      0.252241       0.500000       0.000000
      0.258747       0.404752       0.000000
      0.324066       0.500000       0.000000
      0.331305       0.575221       0.000000
      0.258747       0.595248       0.000000
      0.252241       0.500000       0.000000
      0.407483       0.554195       0.000000
      0.428341       0.602631       0.000000
      0.351758       0.643878       0.000000
      0.331305       0.575221       0.000000
      0.428341       0.602631       0.000000
      0.458579       0.641421       0.000000
      0.382149       0.701184       0.000000
      0.351758       0.643878       0.000000
      0.331305       0.575221       0.000000
      0.351758       0.643878       0.000000
      0.277372       0.683942       0.000000
      0.258747       0.595248       0.000000
      0.351758       0.643878       0.000000
      0.382149       0.701184       0.000000
      0.305719       0.760948       0.000000
      0.277372       0.683942       0.000000
      0.305719       0.239052       0.000000
      0.277372       0.316058       0.000000
      0.205089       0.277126       0.000000
      0.229289       0.179289       0.000000
      0.277372       0.316058       0.000000
      0.258747       0.404752       0.000000
      0.189557       0.385654       0.000000
      0.205089       0.277126       0.000000
      0.229289       0.179289       0.000000
      0.205089       0.277126       0.000000
      0.134820       0.239280       0.000000
      0.152860       0.119526       0.000000
      0.205089       0.277126       0.000000
      0.189557       0.385654       0.000000
      0.123505       0.367423       0.000000
      0.134820       0.239280       0.000000
      0.258747       0.404752       0.000000
      0.252241       0.500000       0.000000
      0.184198       0.500000       0.000000
      0.189557       0.385654       0.000000
      0.252241       0.500000       0.000000
      0.258747       0.595248       0.000000
      0.189557       0.614346       0.000000
      0.184198       0.500000       0.000000
      0.189557       0.385654       0.000000
      0.184198       0.500000       0.000000
      0.119648       0.500000       0.000000
      0.123505       0.367423       0.000000
[...]
POINT_DATA   576
VECTORS U float 
      0.000372       0.004837       0.000000
      0.000192       0.005186       0.000000
      0.000032       0.004925       0.000000
      0.000247       0.004486       0.000000
      0.000192       0.005186       0.000000
      0.000002       0.005420       0.000000
     -0.000110       0.005318       0.000000
      0.000032       0.004925       0.000000
      0.000247       0.004486       0.000000
      0.000032       0.004925       0.000000
      0.000057       0.004903       0.000000
      0.000314       0.004535       0.000000
      0.000032       0.004925       0.000000
     -0.000110       0.005318       0.000000
     -0.000122       0.005277       0.000000
      0.000057       0.004903       0.000000
      0.000002       0.005420       0.000000
     -0.000196       0.005515       0.000000
     -0.000185       0.005539       0.000000
     -0.000110       0.005318       0.000000
     -0.000196       0.005515       0.000000
     -0.000412       0.005465       0.000000
     -0.000256       0.005501       0.000000
     -0.000185       0.005539       0.000000
     -0.000110       0.005318       0.000000
     -0.000185       0.005539       0.000000
     -0.000183       0.005537       0.000000
     -0.000122       0.005277       0.000000
     -0.000185       0.005539       0.000000
     -0.000256       0.005501       0.000000
     -0.000194       0.005527       0.000000
     -0.000183       0.005537       0.000000
     -0.000412       0.005465       0.000000
     -0.000656       0.005271       0.000000
     -0.000388       0.005208       0.000000
     -0.000256       0.005501       0.000000
     -0.000656       0.005271       0.000000
     -0.000921       0.004949       0.000000
     -0.000621       0.004758       0.000000
     -0.000388       0.005208       0.000000
     -0.000256       0.005501       0.000000
     -0.000388       0.005208       0.000000
     -0.000281       0.005231       0.000000
     -0.000194       0.005527       0.000000
     -0.000388       0.005208       0.000000
     -0.000621       0.004758       0.000000
     -0.000500       0.004790       0.000000
     -0.000281       0.005231       0.000000
      0.000314       0.004535       0.000000
      0.000057       0.004903       0.000000
      0.000119       0.005011       0.000000
      0.000410       0.004734       0.000000
      0.000057       0.004903       0.000000
     -0.000122       0.005277       0.000000
     -0.000102       0.005312       0.000000
      0.000119       0.005011       0.000000
      0.000410       0.004734       0.000000
      0.000119       0.005011       0.000000
      0.000195       0.005195       0.000000
      0.000524       0.005003       0.000000
      0.000119       0.005011       0.000000
     -0.000102       0.005312       0.000000
     -0.000071       0.005403       0.000000
      0.000195       0.005195       0.000000
     -0.000122       0.005277       0.000000
     -0.000183       0.005537       0.000000
     -0.000177       0.005552       0.000000
     -0.000102       0.005312       0.000000
     -0.000183       0.005537       0.000000
     -0.000194       0.005527       0.000000
     -0.000162       0.005561       0.000000
     -0.000177       0.005552       0.000000
     -0.000102       0.005312       0.000000
     -0.000177       0.005552       0.000000
     -0.000171       0.005587       0.000000
     -0.000071       0.005403       0.000000
     -0.000177       0.005552       0.000000
     -0.000162       0.005561       0.000000
     -0.000142       0.005604       0.000000
     -0.000171       0.005587       0.000000
     -0.000194       0.005527       0.000000
     -0.000281       0.005231       0.000000
     -0.000225       0.005301       0.000000
     -0.000162       0.005561       0.000000
     -0.000281       0.005231       0.000000
     -0.000500       0.004790       0.000000
     -0.000434       0.004906       0.000000
     -0.000225       0.005301       0.000000
     -0.000162       0.005561       0.000000
     -0.000225       0.005301       0.000000
     -0.000194       0.005404       0.000000
     -0.000142       0.005604       0.000000
     -0.000225       0.005301       0.000000
     -0.000434       0.004906       0.000000
     -0.000416       0.005092       0.000000
     -0.000194       0.005404       0.000000
      0.000524       0.005003       0.000000
      0.000195       0.005195       0.000000
      0.000287       0.005430       0.000000
      0.000670       0.005321       0.000000
      0.000195       0.005195       0.000000
     -0.000071       0.005403       0.000000
     -0.000033       0.005535       0.000000
      0.000287       0.005430       0.000000
      0.000670       0.005321       0.000000
      0.000287       0.005430       0.000000
      0.000405       0.005702       0.000000
      0.000870       0.005702       0.000000
      0.000287       0.005430       0.000000
     -0.000033       0.005535       0.000000
      0.000017       0.005702       0.000000
      0.000405       0.005702       0.000000
     -0.000071       0.005403       0.000000
     -0.000171       0.005587       0.000000
     -0.000166       0.005638       0.000000
     -0.000033       0.005535       0.000000
     -0.000171       0.005587       0.000000
     -0.000142       0.005604       0.000000
     -0.000132       0.005652       0.000000
     -0.000166       0.005638       0.000000
     -0.000033       0.005535       0.000000
     -0.000166       0.005638       0.000000
     -0.000162       0.005702       0.000000
      0.000017       0.005702       0.000000
     -0.000166       0.005638       0.000000
     -0.000132       0.005652       0.000000
     -0.000128       0.005702       0.000000
     -0.000162       0.005702       0.000000
     -0.000142       0.005604       0.000000
     -0.000194       0.005404       0.000000
     -0.000186       0.005538       0.000000
     -0.000132       0.005652       0.000000
     -0.000194       0.005404       0.000000
     -0.000416       0.005092       0.000000
     -0.000452       0.005358       0.000000
     -0.000186       0.005538       0.000000
     -0.000132       0.005652       0.000000
     -0.000186       0.005538       0.000000
     -0.000199       0.005702       0.000000
     -0.000128       0.005702       0.000000
     -0.000186       0.005538       0.000000
     -0.000452       0.005358       0.000000
     -0.000543       0.005702       0.000000
     -0.000199       0.005702       0.000000
      0.000324       0.000746       0.000000
      0.000493       0.001206       0.000000
      0.000482       0.001576       0.000000
      0.000197       0.001083       0.000000
      0.000493       0.001206       0.000000
      0.000625       0.001864       0.000000
      0.000798       0.002159       0.000000
      0.000482       0.001576       0.000000
      0.000197       0.001083       0.000000
      0.000482       0.001576       0.000000
      0.000550       0.001573       0.000000
      0.000236       0.001033       0.000000
      0.000482       0.001576       0.000000
      0.000798       0.002159       0.000000
      0.000900       0.002190       0.000000
      0.000550       0.001573       0.000000
      0.000625       0.001864       0.000000
      0.000667       0.002772       0.000000
      0.000963       0.002784       0.000000
      0.000798       0.002159       0.000000
      0.000667       0.002772       0.000000
      0.000650       0.003687       0.000000
      0.000831       0.003407       0.000000
      0.000963       0.002784       0.000000
      0.000798       0.002159       0.000000
      0.000963       0.002784       0.000000
      0.001080       0.002794       0.000000
      0.000900       0.002190       0.000000
      0.000963       0.002784       0.000000
      0.000831       0.003407       0.000000
      0.000935       0.003390       0.000000
      0.001080       0.002794       0.000000
      0.000650       0.003687       0.000000
      0.000537       0.004359       0.000000
      0.000533       0.003986       0.000000
      0.000831       0.003407       0.000000
      0.000537       0.004359       0.000000
      0.000372       0.004837       0.000000
      0.000247       0.004486       0.000000
      0.000533       0.003986       0.000000
      0.000831       0.003407       0.000000
      0.000533       0.003986       0.000000
      0.000613       0.003995       0.000000
      0.000935       0.003390       0.000000
      0.000533       0.003986       0.000000
      0.000247       0.004486       0.000000
      0.000314       0.004535       0.000000
      0.000613       0.003995       0.000000
      0.000236       0.001033       0.000000
      0.000550       0.001573       0.000000
      0.000628       0.001465       0.000000
      0.000278       0.000841       0.000000
      0.000550       0.001573       0.000000
      0.000900       0.002190       0.000000
      0.001003       0.002152       0.000000
      0.000628       0.001465       0.000000
      0.000278       0.000841       0.000000
      0.000628       0.001465       0.000000
      0.000699       0.001343       0.000000
      0.000287       0.000597       0.000000
      0.000628       0.001465       0.000000
      0.001003       0.002152       0.000000
      0.001107       0.002110       0.000000
      0.000699       0.001343       0.000000
      0.000900       0.002190       0.000000
      0.001080       0.002794       0.000000
      0.001189       0.002805       0.000000
      0.001003       0.002152       0.000000
      0.001080       0.002794       0.000000
      0.000935       0.003390       0.000000
      0.001041       0.003450       0.000000
      0.001189       0.002805       0.000000
      0.001003       0.002152       0.000000
      0.001189       0.002805       0.000000
      0.001306       0.002818       0.000000
      0.001107       0.002110       0.000000
      0.001189       0.002805       0.000000
      0.001041       0.003450       0.000000
      0.001149       0.003520       0.000000
      0.001306       0.002818       0.000000
      0.000935       0.003390       0.000000
      0.000613       0.003995       0.000000
      0.000709       0.004119       0.000000
      0.001041       0.003450       0.000000
      0.000613       0.003995       0.000000
      0.000314       0.004535       0.000000
      0.000410       0.004734       0.000000
      0.000709       0.004119       0.000000
      0.001041       0.003450       0.000000
      0.000709       0.004119       0.000000
      0.000806       0.004272       0.000000
      0.001149       0.003520       0.000000
      0.000709       0.004119       0.000000
      0.000410       0.004734       0.000000
      0.000524       0.005003       0.000000
      0.000806       0.004272       0.000000
      0.000287       0.000597       0.000000
      0.000699       0.001343       0.000000
      0.000761       0.001251       0.000000
      0.000232       0.000328       0.000000
      0.000699       0.001343       0.000000
      0.001107       0.002110       0.000000
      0.001207       0.002095       0.000000
      0.000761       0.001251       0.000000
      0.000232       0.000328       0.000000
      0.000761       0.001251       0.000000
      0.000815       0.001208       0.000000
      0.000000       0.000000       0.000000
      0.000761       0.001251       0.000000
      0.001207       0.002095       0.000000
      0.001295       0.002126       0.000000
      0.000815       0.001208       0.000000
      0.001107       0.002110       0.000000
      0.001306       0.002818       0.000000
      0.001425       0.002830       0.000000
      0.001207       0.002095       0.000000
      0.001306       0.002818       0.000000
      0.001149       0.003520       0.000000
      0.001255       0.003570       0.000000
      0.001425       0.002830       0.000000
      0.001207       0.002095       0.000000
      0.001425       0.002830       0.000000
      0.001533       0.002840       0.000000
      0.001295       0.002126       0.000000
      0.001425       0.002830       0.000000
      0.001255       0.003570       0.000000
      0.001355       0.003570       0.000000
      0.001533       0.002840       0.000000
      0.001149       0.003520       0.000000
      0.000806       0.004272       0.000000
      0.000905       0.004419       0.000000
      0.001255       0.003570       0.000000
      0.000806       0.004272       0.000000
      0.000524       0.005003       0.000000
      0.000670       0.005321       0.000000
      0.000905       0.004419       0.000000
      0.001255       0.003570       0.000000
      0.000905       0.004419       0.000000
      0.001018       0.004548       0.000000
      0.001355       0.003570       0.000000
      0.000905       0.004419       0.000000
      0.000670       0.005321       0.000000
      0.000870       0.005702       0.000000
      0.001018       0.004548       0.000000
     -0.000865       0.000700       0.000000
     -0.000595       0.000378       0.000000
     -0.000318       0.000447       0.000000
     -0.000550       0.000898       0.000000
     -0.000595       0.000378       0.000000
     -0.000361       0.000186       0.000000
     -0.000201       0.000159       0.000000
     -0.000318       0.000447       0.000000
     -0.000550       0.000898       0.000000
     -0.000318       0.000447       0.000000
     -0.000187       0.000431       0.000000
     -0.000405       0.000875       0.000000
     -0.000318       0.000447       0.000000
     -0.000201       0.000159       0.000000
     -0.000120       0.000143       0.000000
     -0.000187       0.000431       0.000000
     -0.000361       0.000186       0.000000
     -0.000172       0.000133       0.000000
     -0.000153       0.000115       0.000000
     -0.000201       0.000159       0.000000
     -0.000172       0.000133       0.000000
     -0.000008       0.000213       0.000000
     -0.000109       0.000307       0.000000
     -0.000153       0.000115       0.000000
     -0.000201       0.000159       0.000000
     -0.000153       0.000115       0.000000
     -0.000141       0.000124       0.000000
     -0.000120       0.000143       0.000000
     -0.000153       0.000115       0.000000
     -0.000109       0.000307       0.000000
     -0.000124       0.000348       0.000000
     -0.000141       0.000124       0.000000
     -0.000008       0.000213       0.000000
      0.000156       0.000421       0.000000
      0.000002       0.000666       0.000000
     -0.000109       0.000307       0.000000
      0.000156       0.000421       0.000000
      0.000324       0.000746       0.000000
      0.000197       0.001083       0.000000
      0.000002       0.000666       0.000000
     -0.000109       0.000307       0.000000
      0.000002       0.000666       0.000000
      0.000009       0.000685       0.000000
     -0.000124       0.000348       0.000000
      0.000002       0.000666       0.000000
      0.000197       0.001083       0.000000
      0.000236       0.001033       0.000000
      0.000009       0.000685       0.000000
     -0.000405       0.000875       0.000000
     -0.000187       0.000431       0.000000
     -0.000101       0.000366       0.000000
     -0.000306       0.000765       0.000000
     -0.000187       0.000431       0.000000
     -0.000120       0.000143       0.000000
     -0.000066       0.000119       0.000000
     -0.000101       0.000366       0.000000
     -0.000306       0.000765       0.000000
     -0.000101       0.000366       0.000000
     -0.000038       0.000267       0.000000
     -0.000240       0.000584       0.000000
     -0.000101       0.000366       0.000000
     -0.000066       0.000119       0.000000
     -0.000027       0.000088       0.000000
     -0.000038       0.000267       0.000000
     -0.000120       0.000143       0.000000
     -0.000141       0.000124       0.000000
     -0.000123       0.000118       0.000000
     -0.000066       0.000119       0.000000
     -0.000141       0.000124       0.000000
     -0.000124       0.000348       0.000000
     -0.000110       0.000318       0.000000
     -0.000123       0.000118       0.000000
     -0.000066       0.000119       0.000000
     -0.000123       0.000118       0.000000
     -0.000097       0.000095       0.000000
     -0.000027       0.000088       0.000000
     -0.000123       0.000118       0.000000
     -0.000110       0.000318       0.000000
     -0.000083       0.000237       0.000000
     -0.000097       0.000095       0.000000
     -0.000124       0.000348       0.000000
      0.000009       0.000685       0.000000
      0.000037       0.000578       0.000000
     -0.000110       0.000318       0.000000
      0.000009       0.000685       0.000000
      0.000236       0.001033       0.000000
      0.000278       0.000841       0.000000
      0.000037       0.000578       0.000000
     -0.000110       0.000318       0.000000
      0.000037       0.000578       0.000000
      0.000054       0.000406       0.000000
     -0.000083       0.000237       0.000000
      0.000037       0.000578       0.000000
      0.000278       0.000841       0.000000
      0.000287       0.000597       0.000000
      0.000054       0.000406       0.000000
     -0.000240       0.000584       0.000000
     -0.000038       0.000267       0.000000
     -0.000002       0.000141       0.000000
     -0.000185       0.000328       0.000000
     -0.000038       0.000267       0.000000
     -0.000027       0.000088       0.000000
     -0.000004       0.000049       0.000000
     -0.000002       0.000141       0.000000
     -0.000185       0.000328       0.000000
     -0.000002       0.000141       0.000000
      0.000000       0.000000       0.000000
      0.000000       0.000000       0.000000
     -0.000002       0.000141       0.000000
     -0.000004       0.000049       0.000000
      0.000000       0.000000       0.000000
      0.000000       0.000000       0.000000
     -0.000027       0.000088       0.000000
     -0.000097       0.000095       0.000000
     -0.000059       0.000055       0.000000
     -0.000004       0.000049       0.000000
     -0.000097       0.000095       0.000000
     -0.000083       0.000237       0.000000
     -0.000046       0.000126       0.000000
     -0.000059       0.000055       0.000000
     -0.000004       0.000049       0.000000
     -0.000059       0.000055       0.000000
      0.000000       0.000000       0.000000
      0.000000       0.000000       0.000000
     -0.000059       0.000055       0.000000
     -0.000046       0.000126       0.000000
      0.000000       0.000000       0.000000
      0.000000       0.000000       0.000000
     -0.000083       0.000237       0.000000
      0.000054       0.000406       0.000000
      0.000047       0.000205       0.000000
     -0.000046       0.000126       0.000000
      0.000054       0.000406       0.000000
      0.000287       0.000597       0.000000
      0.000232       0.000328       0.000000
      0.000047       0.000205       0.000000
     -0.000046       0.000126       0.000000
      0.000047       0.000205       0.000000
      0.000000       0.000000       0.000000
      0.000000       0.000000       0.000000
      0.000047       0.000205       0.000000
      0.000232       0.000328       0.000000
      0.000000       0.000000       0.000000
      0.000000       0.000000       0.000000
     -0.000865       0.000700       0.000000
     -0.001158       0.001168       0.000000
     -0.000957       0.001391       0.000000
     -0.000550       0.000898       0.000000
     -0.001158       0.001168       0.000000
     -0.001414       0.001850       0.000000
     -0.001453       0.002020       0.000000
     -0.000957       0.001391       0.000000
     -0.000550       0.000898       0.000000
     -0.000957       0.001391       0.000000
     -0.000836       0.001413       0.000000