# vtk DataFile Version 2.0
time_10.vtk
ASCII
DATASET UNSTRUCTURED_GRID
POINTS   576 float
      0.458579       0.641421       0.000000
      0.497369       0.671659       0.000000
      0.438243       0.730363       0.000000
      0.382149       0.701184       0.000000
      0.497369       0.671659       0.000000
      0.545805       0.692517       0.000000
      0.506084       0.750000       0.000000
      0.438243       0.730363       0.000000
      0.382149       0.701184       0.000000
      0.438243       0.730363       0.000000
      0.380813       0.787383       0.000000
      0.305719       0.760948       0.000000
      0.438243       0.730363       0.000000
      0.506084       0.750000       0.000000
      0.468251       0.804752       0.000000
      0.380813       0.787383       0.000000
      0.545805       0.692517       0.000000
      0.600000       0.700000       0.000000
      0.581017       0.756950       0.000000
      0.506084       0.750000       0.000000
      0.600000       0.700000       0.000000
      0.654195       0.692517       0.000000
      0.656527       0.750000       0.000000
      0.581017       0.756950       0.000000
      0.506084       0.750000       0.000000
      0.581017       0.756950       0.000000
      0.563060       0.810819       0.000000
      0.468251       0.804752       0.000000
      0.581017       0.756950       0.000000
      0.656527       0.750000       0.000000
      0.658747       0.804752       0.000000
      0.563060       0.810819       0.000000
      0.654195       0.692517       0.000000
      0.702631       0.671659       0.000000
      0.725999       0.730363       0.000000
      0.656527       0.750000       0.000000
      0.702631       0.671659       0.000000
      0.741421       0.641421       0.000000
      0.784518       0.701184       0.000000
      0.725999       0.730363       0.000000
      0.656527       0.750000       0.000000
      0.725999       0.730363       0.000000
      0.748697       0.787383       0.000000
      0.658747       0.804752       0.000000
      0.725999       0.730363       0.000000
      0.784518       0.701184       0.000000
      0.827614       0.760948       0.000000
      0.748697       0.787383       0.000000
      0.305719       0.760948       0.000000
      0.380813       0.787383       0.000000
      0.325006       0.842791       0.000000
      0.229289       0.820711       0.000000
      0.380813       0.787383       0.000000
      0.468251       0.804752       0.000000
      0.432173       0.856962       0.000000
      0.325006       0.842791       0.000000
      0.229289       0.820711       0.000000
      0.325006       0.842791       0.000000
      0.270755       0.896655       0.000000
      0.152860       0.880474       0.000000
      0.325006       0.842791       0.000000
      0.432173       0.856962       0.000000
      0.397732       0.906804       0.000000
      0.270755       0.896655       0.000000
      0.468251       0.804752       0.000000
      0.563060       0.810819       0.000000
      0.546050       0.861851       0.000000
      0.432173       0.856962       0.000000
      0.563060       0.810819       0.000000
      0.658747       0.804752       0.000000
      0.660865       0.856962       0.000000
      0.546050       0.861851       0.000000
      0.432173       0.856962       0.000000
      0.546050       0.861851       0.000000
      0.529912       0.910264       0.000000
      0.397732       0.906804       0.000000
      0.546050       0.861851       0.000000
      0.660865       0.856962       0.000000
      0.662887       0.906804       0.000000
      0.529912       0.910264       0.000000
      0.658747       0.804752       0.000000
      0.748697       0.787383       0.000000
      0.770753       0.842791       0.000000
      0.660865       0.856962       0.000000
      0.748697       0.787383       0.000000
      0.827614       0.760948       0.000000
      0.870711       0.820711       0.000000
      0.770753       0.842791       0.000000
      0.660865       0.856962       0.000000
      0.770753       0.842791       0.000000
      0.792195       0.896655       0.000000
      0.662887       0.906804       0.000000
      0.770753       0.842791       0.000000
      0.870711       0.820711       0.000000
      0.913807       0.880474       0.000000
      0.792195       0.896655       0.000000
      0.152860       0.880474       0.000000
      0.270755       0.896655       0.000000
      0.217995       0.949038       0.000000
      0.076430       0.940237       0.000000
      0.270755       0.896655       0.000000
      0.397732       0.906804       0.000000
      0.364819       0.954435       0.000000
      0.217995       0.949038       0.000000
      0.076430       0.940237       0.000000
      0.217995       0.949038       0.000000
      0.166667       1.000000       0.000000
      0.000000       1.000000       0.000000
      0.217995       0.949038       0.000000
      0.364819       0.954435       0.000000
      0.333333       1.000000       0.000000
      0.166667       1.000000       0.000000
      0.397732       0.906804       0.000000
      0.529912       0.910264       0.000000
      0.514582       0.956255       0.000000
      0.364819       0.954435       0.000000
      0.529912       0.910264       0.000000
      0.662887       0.906804       0.000000
      0.664819       0.954435       0.000000
      0.514582       0.956255       0.000000
      0.364819       0.954435       0.000000
      0.514582       0.956255       0.000000
      0.500000       1.000000       0.000000
      0.333333       1.000000       0.000000
      0.514582       0.956255       0.000000
      0.664819       0.954435       0.000000
      0.666667       1.000000       0.000000
      0.500000       1.000000       0.000000
      0.662887       0.906804       0.000000
      0.792195       0.896655       0.000000
      0.813047       0.949038       0.000000
      0.664819       0.954435       0.000000
      0.792195       0.896655       0.000000
      0.913807       0.880474       0.000000
      0.956904       0.940237       0.000000
      0.813047       0.949038       0.000000
      0.664819       0.954435       0.000000
      0.813047       0.949038       0.000000
      0.833333       1.000000       0.000000
      0.666667       1.000000       0.000000
      0.813047       0.949038       0.000000
      0.956904       0.940237       0.000000
      1.000000       1.000000       0.000000
      0.833333       1.000000       0.000000
      0.458579       0.358579       0.000000
      0.428341       0.397369       0.000000
      0.351758       0.356122       0.000000
      0.382149       0.298816       0.000000
      0.428341       0.397369       0.000000
      0.407483       0.445805       0.000000
      0.331305       0.424779       0.000000
      0.351758       0.356122       0.000000
      0.382149       0.298816       0.000000
      0.351758       0.356122       0.000000
      0.277372       0.316058       0.000000
      0.305719       0.239052       0.000000
      0.351758       0.356122       0.000000
      0.331305       0.424779       0.000000
      0.258747       0.404752       0.000000
      0.277372       0.316058       0.000000
      0.407483       0.445805       0.000000
      0.400000       0.500000       0.000000
      0.324066       0.500000       0.000000
      0.331305       0.424779       0.000000
      0.400000       0.500000       0.000000
      0.407483       0.554195       0.000000
      0.331305       0.575221       0.000000
      0.324066       0.500000       0.000000
      0.331305       0.424779       0.000000
      0.324066       0.500000       0.000000
      0.252241       0.500000       0.000000
      0.258747       0.404752       0.000000
      0.324066       0.500000       0.000000
      0.331305       0.575221       0.000000
      0.258747       0.595248       0.000000
      0.252241       0.500000       0.000000
      0.407483       0.554195       0.000000
      0.428341       0.602631       0.000000
      0.351758       0.643878       0.000000
      0.331305       0.575221       0.000000
      0.428341       0.602631       0.000000
      0.458579       0.641421       0.000000
      0.382149       0.701184       0.000000
      0.351758       0.643878       0.000000
      0.331305       0.575221       0.000000
      0.351758       0.643878       0.000000
      0.277372       0.683942       0.000000
      0.258747       0.595248       0.000000
      0.351758       0.643878       0.000000
      0.382149       0.701184       0.000000
      0.305719       0.760948       0.000000
      0.277372       0.683942       0.000000
      0.305719       0.239052       0.000000
      0.277372       0.316058       0.000000
      0.205089       0.277126       0.000000
      0.229289       0.179289       0.000000
      0.277372       0.316058       0.000000
      0.258747       0.404752       0.000000
      0.189557       0.385654       0.000000
      0.205089       0.277126       0.000000
      0.229289       0.179289       0.000000
      0.205089       0.277126       0.000000
      0.134820       0.239280       0.000000
      0.152860       0.119526       0.000000
      0.205089       0.277126       0.000000
      0.189557       0.385654       0.000000
      0.123505       0.367423       0.000000
      0.134820       0.239280       0.000000
      0.258747       0.404752       0.000000
      0.252241       0.500000       0.000000
      0.184198       0.500000       0.000000
      0.189557       0.385654       0.000000
      0.252241       0.500000       0.000000
      0.258747       0.595248       0.000000
      0.189557       0.614346       0.000000
      0.184198       0.500000       0.000000
      0.189557       0.385654       0.000000
      0.184198       0.500000       0.000000
      0.119648       0.500000       0.000000
      0.123505       0.367423       0.000000
[...]
POINT_DATA   576
VECTORS U float 
      0.000353       0.004586       0.000000
      0.000182       0.004923       0.000000
      0.000030       0.004673       0.000000
      0.000235       0.004253       0.000000
      0.000182       0.004923       0.000000
      0.000001       0.005147       0.000000
     -0.000106       0.005050       0.000000
      0.000030       0.004673       0.000000
      0.000235       0.004253       0.000000
      0.000030       0.004673       0.000000
      0.000056       0.004653       0.000000
      0.000301       0.004305       0.000000
      0.000030       0.004673       0.000000
     -0.000106       0.005050       0.000000
     -0.000116       0.005011       0.000000
      0.000056       0.004653       0.000000
      0.000001       0.005147       0.000000
     -0.000188       0.005239       0.000000
     -0.000177       0.005262       0.000000
     -0.000106       0.005050       0.000000
     -0.000188       0.005239       0.000000
     -0.000395       0.005191       0.000000
     -0.000245       0.005225       0.000000
     -0.000177       0.005262       0.000000
     -0.000106       0.005050       0.000000
     -0.000177       0.005262       0.000000
     -0.000176       0.005260       0.000000
     -0.000116       0.005011       0.000000
     -0.000177       0.005262       0.000000
     -0.000245       0.005225       0.000000
     -0.000187       0.005250       0.000000
     -0.000176       0.005260       0.000000
     -0.000395       0.005191       0.000000
     -0.000627       0.005004       0.000000
     -0.000372       0.004943       0.000000
     -0.000245       0.005225       0.000000
     -0.000627       0.005004       0.000000
     -0.000878       0.004693       0.000000
     -0.000594       0.004512       0.000000
     -0.000372       0.004943       0.000000
     -0.000245       0.005225       0.000000
     -0.000372       0.004943       0.000000
     -0.000271       0.004967       0.000000
     -0.000187       0.005250       0.000000
     -0.000372       0.004943       0.000000
     -0.000594       0.004512       0.000000
     -0.000481       0.004545       0.000000
     -0.000271       0.004967       0.000000
      0.000301       0.004305       0.000000
      0.000056       0.004653       0.000000
      0.000117       0.004759       0.000000
      0.000394       0.004498       0.000000
      0.000056       0.004653       0.000000
     -0.000116       0.005011       0.000000
     -0.000096       0.005046       0.000000
      0.000117       0.004759       0.000000
      0.000394       0.004498       0.000000
      0.000117       0.004759       0.000000
      0.000190       0.004937       0.000000
      0.000503       0.004757       0.000000
      0.000117       0.004759       0.000000
     -0.000096       0.005046       0.000000
     -0.000066       0.005134       0.000000
      0.000190       0.004937       0.000000
     -0.000116       0.005011       0.000000
     -0.000176       0.005260       0.000000
     -0.000170       0.005276       0.000000
     -0.000096       0.005046       0.000000
     -0.000176       0.005260       0.000000
     -0.000187       0.005250       0.000000
     -0.000156       0.005284       0.000000
     -0.000170       0.005276       0.000000
     -0.000096       0.005046       0.000000
     -0.000170       0.005276       0.000000
     -0.000163       0.005310       0.000000
     -0.000066       0.005134       0.000000
     -0.000170       0.005276       0.000000
     -0.000156       0.005284       0.000000
     -0.000138       0.005326       0.000000
     -0.000163       0.005310       0.000000
     -0.000187       0.005250       0.000000
     -0.000271       0.004967       0.000000
     -0.000217       0.005035       0.000000
     -0.000156       0.005284       0.000000
     -0.000271       0.004967       0.000000
     -0.000481       0.004545       0.000000
     -0.000419       0.004659       0.000000
     -0.000217       0.005035       0.000000
     -0.000156       0.005284       0.000000
     -0.000217       0.005035       0.000000
     -0.000189       0.005135       0.000000
     -0.000138       0.005326       0.000000
     -0.000217       0.005035       0.000000
     -0.000419       0.004659       0.000000
     -0.000402       0.004839       0.000000
     -0.000189       0.005135       0.000000
      0.000503       0.004757       0.000000
      0.000190       0.004937       0.000000
      0.000279       0.005162       0.000000
      0.000643       0.005061       0.000000
      0.000190       0.004937       0.000000
     -0.000066       0.005134       0.000000
     -0.000028       0.005262       0.000000
      0.000279       0.005162       0.000000
      0.000643       0.005061       0.000000
      0.000279       0.005162       0.000000
      0.000392       0.005422       0.000000
      0.000833       0.005422       0.000000
      0.000279       0.005162       0.000000
     -0.000028       0.005262       0.000000
      0.000020       0.005422       0.000000
      0.000392       0.005422       0.000000
     -0.000066       0.005134       0.000000
     -0.000163       0.005310       0.000000
     -0.000158       0.005360       0.000000
     -0.000028       0.005262       0.000000
     -0.000163       0.005310       0.000000
     -0.000138       0.005326       0.000000
     -0.000127       0.005373       0.000000
     -0.000158       0.005360       0.000000
     -0.000028       0.005262       0.000000
     -0.000158       0.005360       0.000000
     -0.000154       0.005422       0.000000
      0.000020       0.005422       0.000000
     -0.000158       0.005360       0.000000
     -0.000127       0.005373       0.000000
     -0.000124       0.005422       0.000000
     -0.000154       0.005422       0.000000
     -0.000138       0.005326       0.000000
     -0.000189       0.005135       0.000000
     -0.000181       0.005264       0.000000
     -0.000127       0.005373       0.000000
     -0.000189       0.005135       0.000000
     -0.000402       0.004839       0.000000
     -0.000437       0.005093       0.000000
     -0.000181       0.005264       0.000000
     -0.000127       0.005373       0.000000
     -0.000181       0.005264       0.000000
     -0.000195       0.005422       0.000000
     -0.000124       0.005422       0.000000
     -0.000181       0.005264       0.000000
     -0.000437       0.005093       0.000000
     -0.000524       0.005422       0.000000
     -0.000195       0.005422       0.000000
      0.000306       0.000721       0.000000
      0.000465       0.001163       0.000000
      0.000458       0.001511       0.000000
      0.000187       0.001042       0.000000
      0.000465       0.001163       0.000000
      0.000590       0.001792       0.000000
      0.000754       0.002062       0.000000
      0.000458       0.001511       0.000000
      0.000187       0.001042       0.000000
      0.000458       0.001511       0.000000
      0.000523       0.001503       0.000000
      0.000225       0.000989       0.000000
      0.000458       0.001511       0.000000
      0.000754       0.002062       0.000000
      0.000851       0.002086       0.000000
      0.000523       0.001503       0.000000
      0.000590       0.001792       0.000000
      0.000633       0.002635       0.000000
      0.000906       0.002648       0.000000
      0.000754       0.002062       0.000000
      0.000633       0.002635       0.000000
      0.000614       0.003485       0.000000
      0.000785       0.003230       0.000000
      0.000906       0.002648       0.000000
      0.000754       0.002062       0.000000
      0.000906       0.002648       0.000000
      0.001018       0.002657       0.000000
      0.000851       0.002086       0.000000
      0.000906       0.002648       0.000000
      0.000785       0.003230       0.000000
      0.000885       0.003220       0.000000
      0.001018       0.002657       0.000000
      0.000614       0.003485       0.000000
      0.000508       0.004127       0.000000
      0.000507       0.003777       0.000000
      0.000785       0.003230       0.000000
      0.000508       0.004127       0.000000
      0.000353       0.004586       0.000000
      0.000235       0.004253       0.000000
      0.000507       0.003777       0.000000
      0.000785       0.003230       0.000000
      0.000507       0.003777       0.000000
      0.000583       0.003792       0.000000
      0.000885       0.003220       0.000000
      0.000507       0.003777       0.000000
      0.000235       0.004253       0.000000
      0.000301       0.004305       0.000000
      0.000583       0.003792       0.000000
      0.000225       0.000989       0.000000
      0.000523       0.001503       0.000000
      0.000596       0.001397       0.000000
      0.000266       0.000805       0.000000
      0.000523       0.001503       0.000000
      0.000851       0.002086       0.000000
      0.000948       0.002048       0.000000
      0.000596       0.001397       0.000000
      0.000266       0.000805       0.000000
      0.000596       0.001397       0.000000
      0.000664       0.001278       0.000000
      0.000274       0.000570       0.000000
      0.000596       0.001397       0.000000
      0.000948       0.002048       0.000000
      0.001048       0.002006       0.000000
      0.000664       0.001278       0.000000
      0.000851       0.002086       0.000000
      0.001018       0.002657       0.000000
      0.001123       0.002667       0.000000
      0.000948       0.002048       0.000000
      0.001018       0.002657       0.000000
      0.000885       0.003220       0.000000
      0.000985       0.003280       0.000000
      0.001123       0.002667       0.000000
      0.000948       0.002048       0.000000
      0.001123       0.002667       0.000000
      0.001235       0.002680       0.000000
      0.001048       0.002006       0.000000
      0.001123       0.002667       0.000000
      0.000985       0.003280       0.000000
      0.001089       0.003349       0.000000
      0.001235       0.002680       0.000000
      0.000885       0.003220       0.000000
      0.000583       0.003792       0.000000
      0.000675       0.003914       0.000000
      0.000985       0.003280       0.000000
      0.000583       0.003792       0.000000
      0.000301       0.004305       0.000000
      0.000394       0.004498       0.000000
      0.000675       0.003914       0.000000
      0.000985       0.003280       0.000000
      0.000675       0.003914       0.000000
      0.000768       0.004063       0.000000
      0.001089       0.003349       0.000000
      0.000675       0.003914       0.000000
      0.000394       0.004498       0.000000
      0.000503       0.004757       0.000000
      0.000768       0.004063       0.000000
      0.000274       0.000570       0.000000
      0.000664       0.001278       0.000000
      0.000724       0.001189       0.000000
      0.000222       0.000312       0.000000
      0.000664       0.001278       0.000000
      0.001048       0.002006       0.000000
      0.001143       0.001990       0.000000
      0.000724       0.001189       0.000000
      0.000222       0.000312       0.000000
      0.000724       0.001189       0.000000
      0.000775       0.001147       0.000000
      0.000000       0.000000       0.000000
      0.000724       0.001189       0.000000
      0.001143       0.001990       0.000000
      0.001228       0.002019       0.000000
      0.000775       0.001147       0.000000
      0.001048       0.002006       0.000000
      0.001235       0.002680       0.000000
      0.001348       0.002692       0.000000
      0.001143       0.001990       0.000000
      0.001235       0.002680       0.000000
      0.001089       0.003349       0.000000
      0.001190       0.003398       0.000000
      0.001348       0.002692       0.000000
      0.001143       0.001990       0.000000
      0.001348       0.002692       0.000000
      0.001452       0.002702       0.000000
      0.001228       0.002019       0.000000
      0.001348       0.002692       0.000000
      0.001190       0.003398       0.000000
      0.001286       0.003400       0.000000
      0.001452       0.002702       0.000000
      0.001089       0.003349       0.000000
      0.000768       0.004063       0.000000
      0.000864       0.004205       0.000000
      0.001190       0.003398       0.000000
      0.000768       0.004063       0.000000
      0.000503       0.004757       0.000000
      0.000643       0.005061       0.000000
      0.000864       0.004205       0.000000
      0.001190       0.003398       0.000000
      0.000864       0.004205       0.000000
      0.000971       0.004329       0.000000
      0.001286       0.003400       0.000000
      0.000864       0.004205       0.000000
      0.000643       0.005061       0.000000
      0.000833       0.005422       0.000000
      0.000971       0.004329       0.000000
     -0.000824       0.000677       0.000000
     -0.000569       0.000367       0.000000
     -0.000305       0.000433       0.000000
     -0.000526       0.000866       0.000000
     -0.000569       0.000367       0.000000
     -0.000346       0.000182       0.000000
     -0.000192       0.000156       0.000000
     -0.000305       0.000433       0.000000
     -0.000526       0.000866       0.000000
     -0.000305       0.000433       0.000000
     -0.000180       0.000416       0.000000
     -0.000389       0.000841       0.000000
     -0.000305       0.000433       0.000000
     -0.000192       0.000156       0.000000
     -0.000116       0.000140       0.000000
     -0.000180       0.000416       0.000000
     -0.000346       0.000182       0.000000
     -0.000165       0.000131       0.000000
     -0.000147       0.000113       0.000000
     -0.000192       0.000156       0.000000
     -0.000165       0.000131       0.000000
     -0.000009       0.000207       0.000000
     -0.000105       0.000298       0.000000
     -0.000147       0.000113       0.000000
     -0.000192       0.000156       0.000000
     -0.000147       0.000113       0.000000
     -0.000136       0.000121       0.000000
     -0.000116       0.000140       0.000000
     -0.000147       0.000113       0.000000
     -0.000105       0.000298       0.000000
     -0.000119       0.000336       0.000000
     -0.000136       0.000121       0.000000
     -0.000009       0.000207       0.000000
      0.000147       0.000408       0.000000
      0.000000       0.000642       0.000000
     -0.000105       0.000298       0.000000
      0.000147       0.000408       0.000000
      0.000306       0.000721       0.000000
      0.000187       0.001042       0.000000
      0.000000       0.000642       0.000000
     -0.000105       0.000298       0.000000
      0.000000       0.000642       0.000000
      0.000008       0.000659       0.000000
     -0.000119       0.000336       0.000000
      0.000000       0.000642       0.000000
      0.000187       0.001042       0.000000
      0.000225       0.000989       0.000000
      0.000008       0.000659       0.000000
     -0.000389       0.000841       0.000000
     -0.000180       0.000416       0.000000
     -0.000098       0.000353       0.000000
     -0.000295       0.000733       0.000000
     -0.000180       0.000416       0.000000
     -0.000116       0.000140       0.000000
     -0.000064       0.000116       0.000000
     -0.000098       0.000353       0.000000
     -0.000295       0.000733       0.000000
     -0.000098       0.000353       0.000000
     -0.000038       0.000257       0.000000
     -0.000232       0.000559       0.000000
     -0.000098       0.000353       0.000000
     -0.000064       0.000116       0.000000
     -0.000027       0.000086       0.000000
     -0.000038       0.000257       0.000000
     -0.000116       0.000140       0.000000
     -0.000136       0.000121       0.000000
     -0.000118       0.000115       0.000000
     -0.000064       0.000116       0.000000
     -0.000136       0.000121       0.000000
     -0.000119       0.000336       0.000000
     -0.000105       0.000307       0.000000
     -0.000118       0.000115       0.000000
     -0.000064       0.000116       0.000000
     -0.000118       0.000115       0.000000
     -0.000093       0.000092       0.000000
     -0.000027       0.000086       0.000000
     -0.000118       0.000115       0.000000
     -0.000105       0.000307       0.000000
     -0.000079       0.000229       0.000000
     -0.000093       0.000092       0.000000
     -0.000119       0.000336       0.000000
      0.000008       0.000659       0.000000
      0.000035       0.000555       0.000000
     -0.000105       0.000307       0.000000
      0.000008       0.000659       0.000000
      0.000225       0.000989       0.000000
      0.000266       0.000805       0.000000
      0.000035       0.000555       0.000000
     -0.000105       0.000307       0.000000
      0.000035       0.000555       0.000000
      0.000053       0.000389       0.000000
     -0.000079       0.000229       0.000000
      0.000035       0.000555       0.000000
      0.000266       0.000805       0.000000
      0.000274       0.000570       0.000000
      0.000053       0.000389       0.000000
     -0.000232       0.000559       0.000000
     -0.000038       0.000257       0.000000
     -0.000003       0.000136       0.000000
     -0.000178       0.000314       0.000000
     -0.000038       0.000257       0.000000
     -0.000027       0.000086       0.000000
     -0.000004       0.000047       0.000000
     -0.000003       0.000136       0.000000
     -0.000178       0.000314       0.000000
     -0.000003       0.000136       0.000000
      0.000000       0.000000       0.000000
      0.000000       0.000000       0.000000
     -0.000003       0.000136       0.000000
     -0.000004       0.000047       0.000000
      0.000000       0.000000       0.000000
      0.000000       0.000000       0.000000
     -0.000027       0.000086       0.000000
     -0.000093       0.000092       0.000000
     -0.000057       0.000053       0.000000
     -0.000004       0.000047       0.000000
     -0.000093       0.000092       0.000000
     -0.000079       0.000229       0.000000
     -0.000044       0.000121       0.000000
     -0.000057       0.000053       0.000000
     -0.000004       0.000047       0.000000
     -0.000057       0.000053       0.000000
      0.000000       0.000000       0.000000
      0.000000       0.000000       0.000000
     -0.000057       0.000053       0.000000
     -0.000044       0.000121       0.000000
      0.000000       0.000000       0.000000
      0.000000       0.000000       0.000000
     -0.000079       0.000229       0.000000
      0.000053       0.000389       0.000000
      0.000046       0.000196       0.000000
     -0.000044       0.000121       0.000000
      0.000053       0.000389       0.000000
      0.000274       0.000570       0.000000
      0.000222       0.000312       0.000000
      0.000046       0.000196       0.000000
     -0.000044       0.000121       0.000000
      0.000046       0.000196       0.000000
      0.000000       0.000000       0.000000
      0.000000       0.000000       0.000000
      0.000046       0.000196       0.000000
      0.000222       0.000312       0.000000
      0.000000       0.000000       0.000000
      0.000000       0.000000       0.000000
     -0.000824       0.000677       0.000000
     -0.001100       0.001129       0.000000
     -0.000913       0.001338       0.000000
     -0.000526       0.000866       0.000000
     -0.001100       0.001129       0.000000
     -0.001341       0.001782       0.000000
     -0.001380       0.001937       0.000000
     -0.000913       0.001338       0.000000
     -0.000526       0.000866       0.000000
     -0.000913       0.001338       0.000000
     -0.000799       0.001355       0.000000