# vtk DataFile Version 2.0
time_10.vtk
ASCII
DATASET UNSTRUCTURED_GRID
POINTS   576 float
      0.458579       0.641421       0.000000
      0.497369       0.671659       0.000000
      0.438243       0.730363       0.000000
      0.382149       0.701184       0.000000
      0.497369       0.671659       0.000000
      0.545805       0.692517       0.000000
      0.506084       0.750000       0.000000
      0.438243       0.730363       0.000000
      0.382149       0.701184       0.000000
      0.438243       0.730363       0.000000
      0.380813       0.787383       0.000000
      0.305719       0.760948       0.000000
      0.438243       0.730363       0.000000
      0.506084       0.750000       0.000000
      0.468251       0.804752       0.000000
      0.380813       0.787383       0.000000
      0.545805       0.692517       0.000000
      0.600000       0.700000       0.000000
      0.581017       0.756950       0.000000
      0.506084       0.750000       0.000000
      0.600000       0.700000       0.000000
      0.654195       0.692517       0.000000
      0.656527       0.750000       0.000000
      0.581017       0.756950       0.000000
      0.506084       0.750000       0.000000
      0.581017       0.756950       0.000000
      0.563060       0.810819       0.000000
      0.468251       0.804752       0.000000
      0.581017       0.756950       0.000000
      0.656527       0.750000       0.000000
      0.658747       0.804752       0.000000
      0.563060       0.810819       0.000000
      0.654195       0.692517       0.000000
      0.702631       0.671659       0.000000
      0.725999       0.730363       0.000000
      0.656527       0.750000       0.000000
      0.702631       0.671659       0.000000
      0.741421       0.641421       0.000000
      0.784518       0.701184       0.000000
      0.725999       0.730363       0.000000
      0.656527       0.750000       0.000000
      0.725999       0.730363       0.000000
      0.748697       0.787383       0.000000
      0.658747       0.804752       0.000000
      0.725999       0.730363       0.000000
      0.784518       0.701184       0.000000
      0.827614       0.760948       0.000000
      0.748697       0.787383       0.000000
      0.305719       0.760948       0.000000
      0.380813       0.787383       0.000000
      0.325006       0.842791       0.000000
      0.229289       0.820711       0.000000
      0.380813       0.787383       0.000000
      0.468251       0.804752       0.000000
      0.432173       0.856962       0.000000
      0.325006       0.842791       0.000000
      0.229289       0.820711       0.000000
      0.325006       0.842791       0.000000
      0.270755       0.896655       0.000000
      0.152860       0.880474       0.000000
      0.325006       0.842791       0.000000
      0.432173       0.856962       0.000000
      0.397732       0.906804       0.000000
      0.270755       0.896655       0.000000
      0.468251       0.804752       0.000000
      0.563060       0.810819       0.000000
      0.546050       0.861851       0.000000
      0.432173       0.856962       0.000000
      0.563060       0.810819       0.000000
      0.658747       0.804752       0.000000
      0.660865       0.856962       0.000000
      0.546050       0.861851       0.000000
      0.432173       0.856962       0.000000
      0.546050       0.861851       0.000000
      0.529912       0.910264       0.000000
      0.397732       0.906804       0.000000
      0.546050       0.861851       0.000000
      0.660865       0.856962       0.000000
      0.662887       0.906804       0.000000
      0.529912       0.910264       0.000000
      0.658747       0.804752       0.000000
      0.748697       0.787383       0.000000
      0.770753       0.842791       0.000000
      0.660865       0.856962       0.000000
      0.748697       0.787383       0.000000
      0.827614       0.760948       0.000000
      0.870711       0.820711       0.000000
      0.770753       0.842791       0.000000
      0.660865       0.856962       0.000000
      0.770753       0.842791       0.000000
      0.792195       0.896655       0.000000
      0.662887       0.906804       0.000000
      0.770753       0.842791       0.000000
      0.870711       0.820711       0.000000
      0.913807       0.880474       0.000000
      0.792195       0.896655       0.000000
      0.152860       0.880474       0.000000
      0.270755       0.896655       0.000000
      0.217995       0.949038       0.000000
      0.076430       0.940237       0.000000
      0.270755       0.896655       0.000000
      0.397732       0.906804       0.000000
      0.364819       0.954435       0.000000
      0.217995       0.949038       0.000000
      0.076430       0.940237       0.000000
      0.217995       0.949038       0.000000
      0.166667       1.000000       0.000000
      0.000000       1.000000       0.000000
      0.217995       0.949038       0.000000
      0.364819       0.954435       0.000000
      0.333333       1.000000       0.000000
      0.166667       1.000000       0.000000
      0.397732       0.906804       0.000000
      0.529912       0.910264       0.000000
      0.514582       0.956255       0.000000
      0.364819       0.954435       0.000000
      0.529912       0.910264       0.000000
      0.662887       0.906804       0.000000
      0.664819       0.954435       0.000000
      0.514582       0.956255       0.000000
      0.364819       0.954435       0.000000
      0.514582       0.956255       0.000000
      0.500000       1.000000       0.000000
      0.333333       1.000000       0.000000
      0.514582       0.956255       0.000000
      0.664819       0.954435       0.000000
      0.666667       1.000000       0.000000
      0.500000       1.000000       0.000000
      0.662887       0.906804       0.000000
      0.792195       0.896655       0.000000
      0.813047       0.949038       0.000000
      0.664819       0.954435       0.000000
      0.792195       0.896655       0.000000
      0.913807       0.880474       0.000000
      0.956904       0.940237       0.000000
      0.813047       0.949038       0.000000
      0.664819       0.954435       0.000000
      0.813047       0.949038       0.000000
      0.833333       1.000000       0.000000
      0.666667       1.000000       0.000000
      0.813047       0.949038       0.000000
      0.956904       0.940237       0.000000
      1.000000       1.000000       0.000000
      0.833333       1.000000       0.000000
      0.458579       0.358579       0.000000
      0.428341       0.397369       0.000000
      0.351758       0.356122       0.000000
      0.382149       0.298816       0.000000
      0.428341       0.397369       0.000000
      0.407483       0.445805       0.000000
      0.331305       0.424779       0.000000
      0.351758       0.356122       0.000000
      0.382149       0.298816       0.000000
      0.351758       0.356122       0.000000
      0.277372       0.316058       0.000000
      0.305719       0.239052       0.000000
      0.351758       0.356122       0.000000
      0.331305       0.424779       0.000000
      0.258747       0.404752       0.000000
      0.277372       0.316058       0.000000
      0.407483       0.445805       0.000000
      0.400000       0.500000       0.000000
      0.324066       0.500000       0.000000
      0.331305       0.424779       0.000000
      0.400000       0.500000       0.000000
      0.407483       0.554195       0.000000
      0.331305       0.575221       0.000000
      0.324066       0.500000       0.000000
      0.331305       0.424779       0.000000
      0.324066       0.500000       0.000000
      0.252241       0.500000       0.000000
      0.258747       0.404752       0.000000
      0.324066       0.500000       0.000000
      0.331305       0.575221       0.000000
      0.258747       0.595248       0.000000
      0.252241       0.500000       0.000000
      0.407483       0.554195       0.000000
      0.428341       0.602631       0.000000
      0.351758       0.643878       0.000000
      0.331305       0.575221       0.000000
      0.428341       0.602631       0.000000
      0.458579       0.641421       0.000000
      0.382149       0.701184       0.000000
      0.351758       0.643878       0.000000
      0.331305       0.575221       0.000000
      0.351758       0.643878       0.000000
      0.277372       0.683942       0.000000
      0.258747       0.595248       0.000000
      0.351758       0.643878       0.000000
      0.382149       0.701184       0.000000
      0.305719       0.760948       0.000000
      0.277372       0.683942       0.000000
      0.305719       0.239052       0.000000
      0.277372       0.316058       0.000000
      0.205089       0.277126       0.000000
      0.229289       0.179289       0.000000
      0.277372       0.316058       0.000000
      0.258747       0.404752       0.000000
      0.189557       0.385654       0.000000
      0.205089       0.277126       0.000000
      0.229289       0.179289       0.000000
      0.205089       0.277126       0.000000
      0.134820       0.239280       0.000000
      0.152860       0.119526       0.000000
      0.205089       0.277126       0.000000
      0.189557       0.385654       0.000000
      0.123505       0.367423       0.000000
      0.134820       0.239280       0.000000
      0.258747       0.404752       0.000000
      0.252241       0.500000       0.000000
      0.184198       0.500000       0.000000
      0.189557       0.385654       0.000000
      0.252241       0.500000       0.000000
      0.258747       0.595248       0.000000
      0.189557       0.614346       0.000000
      0.184198       0.500000       0.000000
      0.189557       0.385654       0.000000
      0.184198       0.500000       0.000000
      0.119648       0.500000       0.000000
      0.123505       0.367423       0.000000
[...]
POINT_DATA   576
VECTORS U float 
      0.000389       0.005054       0.000000
      0.000201       0.005414       0.000000
      0.000033       0.005144       0.000000
      0.000256       0.004687       0.000000
      0.000201       0.005414       0.000000
      0.000002       0.005654       0.000000
     -0.000113       0.005550       0.000000
      0.000033       0.005144       0.000000
      0.000256       0.004687       0.000000
      0.000033       0.005144       0.000000
      0.000058       0.005118       0.000000
      0.000324       0.004734       0.000000
      0.000033       0.005144       0.000000
     -0.000113       0.005550       0.000000
     -0.000127       0.005507       0.000000
      0.000058       0.005118       0.000000
      0.000002       0.005654       0.000000
     -0.000203       0.005752       0.000000
     -0.000191       0.005777       0.000000
     -0.000113       0.005550       0.000000
     -0.000203       0.005752       0.000000
     -0.000427       0.005702       0.000000
     -0.000265       0.005738       0.000000
     -0.000191       0.005777       0.000000
     -0.000113       0.005550       0.000000
     -0.000191       0.005777       0.000000
     -0.000189       0.005775       0.000000
     -0.000127       0.005507       0.000000
     -0.000191       0.005777       0.000000
     -0.000265       0.005738       0.000000
     -0.000201       0.005764       0.000000
     -0.000189       0.005775       0.000000
     -0.000427       0.005702       0.000000
     -0.000680       0.005503       0.000000
     -0.000402       0.005436       0.000000
     -0.000265       0.005738       0.000000
     -0.000680       0.005503       0.000000
     -0.000957       0.005171       0.000000
     -0.000643       0.004972       0.000000
     -0.000402       0.005436       0.000000
     -0.000265       0.005738       0.000000
     -0.000402       0.005436       0.000000
     -0.000290       0.005459       0.000000
     -0.000201       0.005764       0.000000
     -0.000402       0.005436       0.000000
     -0.000643       0.004972       0.000000
     -0.000516       0.005001       0.000000
     -0.000290       0.005459       0.000000
      0.000324       0.004734       0.000000
      0.000058       0.005118       0.000000
      0.000121       0.005228       0.000000
      0.000423       0.004937       0.000000
      0.000058       0.005118       0.000000
     -0.000127       0.005507       0.000000
     -0.000107       0.005542       0.000000
      0.000121       0.005228       0.000000
      0.000423       0.004937       0.000000
      0.000121       0.005228       0.000000
      0.000198       0.005418       0.000000
      0.000540       0.005215       0.000000
      0.000121       0.005228       0.000000
     -0.000107       0.005542       0.000000
     -0.000076       0.005634       0.000000
      0.000198       0.005418       0.000000
     -0.000127       0.005507       0.000000
     -0.000189       0.005775       0.000000
     -0.000184       0.005790       0.000000
     -0.000107       0.005542       0.000000
     -0.000189       0.005775       0.000000
     -0.000201       0.005764       0.000000
     -0.000166       0.005799       0.000000
     -0.000184       0.005790       0.000000
     -0.000107       0.005542       0.000000
     -0.000184       0.005790       0.000000
     -0.000177       0.005825       0.000000
     -0.000076       0.005634       0.000000
     -0.000184       0.005790       0.000000
     -0.000166       0.005799       0.000000
     -0.000146       0.005843       0.000000
     -0.000177       0.005825       0.000000
     -0.000201       0.005764       0.000000
     -0.000290       0.005459       0.000000
     -0.000230       0.005530       0.000000
     -0.000166       0.005799       0.000000
     -0.000290       0.005459       0.000000
     -0.000516       0.005001       0.000000
     -0.000446       0.005119       0.000000
     -0.000230       0.005530       0.000000
     -0.000166       0.005799       0.000000
     -0.000230       0.005530       0.000000
     -0.000198       0.005635       0.000000
     -0.000146       0.005843       0.000000
     -0.000230       0.005530       0.000000
     -0.000446       0.005119       0.000000
     -0.000427       0.005310       0.000000
     -0.000198       0.005635       0.000000
      0.000540       0.005215       0.000000
      0.000198       0.005418       0.000000
      0.000293       0.005660       0.000000
      0.000691       0.005545       0.000000
      0.000198       0.005418       0.000000
     -0.000076       0.005634       0.000000
     -0.000037       0.005770       0.000000
      0.000293       0.005660       0.000000
      0.000691       0.005545       0.000000
      0.000293       0.005660       0.000000
      0.000415       0.005942       0.000000
      0.000900       0.005942       0.000000
      0.000293       0.005660       0.000000
     -0.000037       0.005770       0.000000
      0.000014       0.005942       0.000000
      0.000415       0.005942       0.000000
     -0.000076       0.005634       0.000000
     -0.000177       0.005825       0.000000
     -0.000172       0.005877       0.000000
     -0.000037       0.005770       0.000000
     -0.000177       0.005825       0.000000
     -0.000146       0.005843       0.000000
     -0.000135       0.005891       0.000000
     -0.000172       0.005877       0.000000
     -0.000037       0.005770       0.000000
     -0.000172       0.005877       0.000000
     -0.000169       0.005942       0.000000
      0.000014       0.005942       0.000000
     -0.000172       0.005877       0.000000
     -0.000135       0.005891       0.000000
     -0.000131       0.005942       0.000000
     -0.000169       0.005942       0.000000
     -0.000146       0.005843       0.000000
     -0.000198       0.005635       0.000000
     -0.000189       0.005773       0.000000
     -0.000135       0.005891       0.000000
     -0.000198       0.005635       0.000000
     -0.000427       0.005310       0.000000
     -0.000464       0.005585       0.000000
     -0.000189       0.005773       0.000000
     -0.000135       0.005891       0.000000
     -0.000189       0.005773       0.000000
     -0.000203       0.005942       0.000000
     -0.000131       0.005942       0.000000
     -0.000189       0.005773       0.000000
     -0.000464       0.005585       0.000000
     -0.000558       0.005942       0.000000
     -0.000203       0.005942       0.000000
      0.000339       0.000766       0.000000
      0.000517       0.001239       0.000000
      0.000503       0.001629       0.000000
      0.000205       0.001117       0.000000
      0.000517       0.001239       0.000000
      0.000656       0.001921       0.000000
      0.000836       0.002240       0.000000
      0.000503       0.001629       0.000000
      0.000205       0.001117       0.000000
      0.000503       0.001629       0.000000
      0.000574       0.001632       0.000000
      0.000245       0.001068       0.000000
      0.000503       0.001629       0.000000
      0.000836       0.002240       0.000000
      0.000943       0.002279       0.000000
      0.000574       0.001632       0.000000
      0.000656       0.001921       0.000000
      0.000696       0.002888       0.000000
      0.001013       0.002902       0.000000
      0.000836       0.002240       0.000000
      0.000696       0.002888       0.000000
      0.000683       0.003865       0.000000
      0.000870       0.003561       0.000000
      0.001013       0.002902       0.000000
      0.000836       0.002240       0.000000
      0.001013       0.002902       0.000000
      0.001135       0.002911       0.000000
      0.000943       0.002279       0.000000
      0.001013       0.002902       0.000000
      0.000870       0.003561       0.000000
      0.000980       0.003536       0.000000
      0.001135       0.002911       0.000000
      0.000683       0.003865       0.000000
      0.000563       0.004562       0.000000
      0.000556       0.004168       0.000000
      0.000870       0.003561       0.000000
      0.000563       0.004562       0.000000
      0.000389       0.005054       0.000000
      0.000256       0.004687       0.000000
      0.000556       0.004168       0.000000
      0.000870       0.003561       0.000000
      0.000556       0.004168       0.000000
      0.000638       0.004170       0.000000
      0.000980       0.003536       0.000000
      0.000556       0.004168       0.000000
      0.000256       0.004687       0.000000
      0.000324       0.004734       0.000000
      0.000638       0.004170       0.000000
      0.000245       0.001068       0.000000
      0.000574       0.001632       0.000000
      0.000655       0.001523       0.000000
      0.000289       0.000872       0.000000
      0.000574       0.001632       0.000000
      0.000943       0.002279       0.000000
      0.001050       0.002242       0.000000
      0.000655       0.001523       0.000000
      0.000289       0.000872       0.000000
      0.000655       0.001523       0.000000
      0.000729       0.001398       0.000000
      0.000297       0.000620       0.000000
      0.000655       0.001523       0.000000
      0.001050       0.002242       0.000000
      0.001159       0.002199       0.000000
      0.000729       0.001398       0.000000
      0.000943       0.002279       0.000000
      0.001135       0.002911       0.000000
      0.001248       0.002923       0.000000
      0.001050       0.002242       0.000000
      0.001135       0.002911       0.000000
      0.000980       0.003536       0.000000
      0.001089       0.003595       0.000000
      0.001248       0.002923       0.000000
      0.001050       0.002242       0.000000
      0.001248       0.002923       0.000000
      0.001369       0.002935       0.000000
      0.001159       0.002199       0.000000
      0.001248       0.002923       0.000000
      0.001089       0.003595       0.000000
      0.001201       0.003667       0.000000
      0.001369       0.002935       0.000000
      0.000980       0.003536       0.000000
      0.000638       0.004170       0.000000
      0.000738       0.004295       0.000000
      0.001089       0.003595       0.000000
      0.000638       0.004170       0.000000
      0.000324       0.004734       0.000000
      0.000423       0.004937       0.000000
      0.000738       0.004295       0.000000
      0.001089       0.003595       0.000000
      0.000738       0.004295       0.000000
      0.000838       0.004452       0.000000
      0.001201       0.003667       0.000000
      0.000738       0.004295       0.000000
      0.000423       0.004937       0.000000
      0.000540       0.005215       0.000000
      0.000838       0.004452       0.000000
      0.000297       0.000620       0.000000
      0.000729       0.001398       0.000000
      0.000793       0.001305       0.000000
      0.000240       0.000341       0.000000
      0.000729       0.001398       0.000000
      0.001159       0.002199       0.000000
      0.001262       0.002184       0.000000
      0.000793       0.001305       0.000000
      0.000240       0.000341       0.000000
      0.000793       0.001305       0.000000
      0.000849       0.001261       0.000000
      0.000000       0.000000       0.000000
      0.000793       0.001305       0.000000
      0.001262       0.002184       0.000000
      0.001353       0.002219       0.000000
      0.000849       0.001261       0.000000
      0.001159       0.002199       0.000000
      0.001369       0.002935       0.000000
      0.001492       0.002948       0.000000
      0.001262       0.002184       0.000000
      0.001369       0.002935       0.000000
      0.001201       0.003667       0.000000
      0.001311       0.003716       0.000000
      0.001492       0.002948       0.000000
      0.001262       0.002184       0.000000
      0.001492       0.002948       0.000000
      0.001604       0.002959       0.000000
      0.001353       0.002219       0.000000
      0.001492       0.002948       0.000000
      0.001311       0.003716       0.000000
      0.001414       0.003714       0.000000
      0.001604       0.002959       0.000000
      0.001201       0.003667       0.000000
      0.000838       0.004452       0.000000
      0.000940       0.004602       0.000000
      0.001311       0.003716       0.000000
      0.000838       0.004452       0.000000
      0.000540       0.005215       0.000000
      0.000691       0.005545       0.000000
      0.000940       0.004602       0.000000
      0.001311       0.003716       0.000000
      0.000940       0.004602       0.000000
      0.001057       0.004735       0.000000
      0.001414       0.003714       0.000000
      0.000940       0.004602       0.000000
      0.000691       0.005545       0.000000
      0.000900       0.005942       0.000000
      0.001057       0.004735       0.000000
     -0.000899       0.000716       0.000000
     -0.000617       0.000386       0.000000
     -0.000330       0.000457       0.000000
     -0.000570       0.000924       0.000000
     -0.000617       0.000386       0.000000
     -0.000374       0.000189       0.000000
     -0.000207       0.000161       0.000000
     -0.000330       0.000457       0.000000
     -0.000570       0.000924       0.000000
     -0.000330       0.000457       0.000000
     -0.000193       0.000442       0.000000
     -0.000417       0.000903       0.000000
     -0.000330       0.000457       0.000000
     -0.000207       0.000161       0.000000
     -0.000124       0.000145       0.000000
     -0.000193       0.000442       0.000000
     -0.000374       0.000189       0.000000
     -0.000177       0.000135       0.000000
     -0.000158       0.000116       0.000000
     -0.000207       0.000161       0.000000
     -0.000177       0.000135       0.000000
     -0.000007       0.000217       0.000000
     -0.000111       0.000314       0.000000
     -0.000158       0.000116       0.000000
     -0.000207       0.000161       0.000000
     -0.000158       0.000116       0.000000
     -0.000145       0.000125       0.000000
     -0.000124       0.000145       0.000000
     -0.000158       0.000116       0.000000
     -0.000111       0.000314       0.000000
     -0.000128       0.000357       0.000000
     -0.000145       0.000125       0.000000
     -0.000007       0.000217       0.000000
      0.000163       0.000431       0.000000
      0.000003       0.000684       0.000000
     -0.000111       0.000314       0.000000
      0.000163       0.000431       0.000000
      0.000339       0.000766       0.000000
      0.000205       0.001117       0.000000
      0.000003       0.000684       0.000000
     -0.000111       0.000314       0.000000
      0.000003       0.000684       0.000000
      0.000009       0.000706       0.000000
     -0.000128       0.000357       0.000000
      0.000003       0.000684       0.000000
      0.000205       0.001117       0.000000
      0.000245       0.001068       0.000000
      0.000009       0.000706       0.000000
     -0.000417       0.000903       0.000000
     -0.000193       0.000442       0.000000
     -0.000103       0.000376       0.000000
     -0.000314       0.000791       0.000000
     -0.000193       0.000442       0.000000
     -0.000124       0.000145       0.000000
     -0.000068       0.000121       0.000000
     -0.000103       0.000376       0.000000
     -0.000314       0.000791       0.000000
     -0.000103       0.000376       0.000000
     -0.000038       0.000275       0.000000
     -0.000247       0.000604       0.000000
     -0.000103       0.000376       0.000000
     -0.000068       0.000121       0.000000
     -0.000028       0.000090       0.000000
     -0.000038       0.000275       0.000000
     -0.000124       0.000145       0.000000
     -0.000145       0.000125       0.000000
     -0.000127       0.000120       0.000000
     -0.000068       0.000121       0.000000
     -0.000145       0.000125       0.000000
     -0.000128       0.000357       0.000000
     -0.000113       0.000326       0.000000
     -0.000127       0.000120       0.000000
     -0.000068       0.000121       0.000000
     -0.000127       0.000120       0.000000
     -0.000100       0.000097       0.000000
     -0.000028       0.000090       0.000000
     -0.000127       0.000120       0.000000
     -0.000113       0.000326       0.000000
     -0.000086       0.000244       0.000000
     -0.000100       0.000097       0.000000
     -0.000128       0.000357       0.000000
      0.000009       0.000706       0.000000
      0.000037       0.000597       0.000000
     -0.000113       0.000326       0.000000
      0.000009       0.000706       0.000000
      0.000245       0.001068       0.000000
      0.000289       0.000872       0.000000
      0.000037       0.000597       0.000000
     -0.000113       0.000326       0.000000
      0.000037       0.000597       0.000000
      0.000056       0.000420       0.000000
     -0.000086       0.000244       0.000000
      0.000037       0.000597       0.000000
      0.000289       0.000872       0.000000
      0.000297       0.000620       0.000000
      0.000056       0.000420       0.000000
     -0.000247       0.000604       0.000000
     -0.000038       0.000275       0.000000
     -0.000001       0.000146       0.000000
     -0.000190       0.000339       0.000000
     -0.000038       0.000275       0.000000
     -0.000028       0.000090       0.000000
     -0.000004       0.000050       0.000000
     -0.000001       0.000146       0.000000
     -0.000190       0.000339       0.000000
     -0.000001       0.000146       0.000000
      0.000000       0.000000       0.000000
      0.000000       0.000000       0.000000
     -0.000001       0.000146       0.000000
     -0.000004       0.000050       0.000000
      0.000000       0.000000       0.000000
      0.000000       0.000000       0.000000
     -0.000028       0.000090       0.000000
     -0.000100       0.000097       0.000000
     -0.000061       0.000056       0.000000
     -0.000004       0.000050       0.000000
     -0.000100       0.000097       0.000000
     -0.000086       0.000244       0.000000
     -0.000048       0.000130       0.000000
     -0.000061       0.000056       0.000000
     -0.000004       0.000050       0.000000
     -0.000061       0.000056       0.000000
      0.000000       0.000000       0.000000
      0.000000       0.000000       0.000000
     -0.000061       0.000056       0.000000
     -0.000048       0.000130       0.000000
      0.000000       0.000000       0.000000
      0.000000       0.000000       0.000000
     -0.000086       0.000244       0.000000
      0.000056       0.000420       0.000000
      0.000048       0.000212       0.000000
     -0.000048       0.000130       0.000000
      0.000056       0.000420       0.000000
      0.000297       0.000620       0.000000
      0.000240       0.000341       0.000000
      0.000048       0.000212       0.000000
     -0.000048       0.000130       0.000000
      0.000048       0.000212       0.000000
      0.000000       0.000000       0.000000
      0.000000       0.000000       0.000000
      0.000048       0.000212       0.000000
      0.000240       0.000341       0.000000
      0.000000       0.000000       0.000000
      0.000000       0.000000       0.000000
     -0.000899       0.000716       0.000000
     -0.001207       0.001198       0.000000
     -0.000994       0.001433       0.000000
     -0.000570       0.000924       0.000000
     -0.001207       0.001198       0.000000
     -0.001478       0.001901       0.000000
     -0.001515       0.002086       0.000000
     -0.000994       0.001433       0.000000
     -0.000570       0.000924       0.000000
     -0.000994       0.001433       0.000000
     -0.000866       0.001461       0.000000