# vtk DataFile Version 2.0
time_10.vtk
ASCII
DATASET UNSTRUCTURED_GRID
POINTS   576 float
      0.458579       0.641421       0.000000
      0.497369       0.671659       0.000000
      0.438243       0.730363       0.000000
      0.382149       0.701184       0.000000
      0.497369       0.671659       0.000000
      0.545805       0.692517       0.000000
      0.506084       0.750000       0.000000
      0.438243       0.730363       0.000000
      0.382149       0.701184       0.000000
      0.438243       0.730363       0.000000
      0.380813       0.787383       0.000000
      0.305719       0.760948       0.000000
      0.438243       0.730363       0.000000
      0.506084       0.750000       0.000000
      0.468251       0.804752       0.000000
      0.380813       0.787383       0.000000
      0.545805       0.692517       0.000000
      0.600000       0.700000       0.000000
      0.581017       0.756950       0.000000
      0.506084       0.750000       0.000000
      0.600000       0.700000       0.000000
      0.654195       0.692517       0.000000
      0.656527       0.750000       0.000000
      0.581017       0.756950       0.000000
      0.506084       0.750000       0.000000
      0.581017       0.756950       0.000000
      0.563060       0.810819       0.000000
      0.468251       0.804752       0.000000
      0.581017       0.756950       0.000000
      0.656527       0.750000       0.000000
      0.658747       0.804752       0.000000
      0.563060       0.810819       0.000000
      0.654195       0.692517       0.000000
      0.702631       0.671659       0.000000
      0.725999       0.730363       0.000000
      0.656527       0.750000       0.000000
      0.702631       0.671659       0.000000
      0.741421       0.641421       0.000000
      0.784518       0.701184       0.000000
      0.725999       0.730363       0.000000
      0.656527       0.750000       0.000000
      0.725999       0.730363       0.000000
      0.748697       0.787383       0.000000
      0.658747       0.804752       0.000000
      0.725999       0.730363       0.000000
      0.784518       0.701184       0.000000
      0.827614       0.760948       0.000000
      0.748697       0.787383       0.000000
      0.305719       0.760948       0.000000
      0.380813       0.787383       0.000000
      0.325006       0.842791       0.000000
      0.229289       0.820711       0.000000
      0.380813       0.787383       0.000000
      0.468251       0.804752       0.000000
      0.432173       0.856962       0.000000
      0.325006       0.842791       0.000000
      0.229289       0.820711       0.000000
      0.325006       0.842791       0.000000
      0.270755       0.896655       0.000000
      0.152860       0.880474       0.000000
      0.325006       0.842791       0.000000
      0.432173       0.856962       0.000000
      0.397732       0.906804       0.000000
      0.270755       0.896655       0.000000
      0.468251       0.804752       0.000000
      0.563060       0.810819       0.000000
      0.546050       0.861851       0.000000
      0.432173       0.856962       0.000000
      0.563060       0.810819       0.000000
      0.658747       0.804752       0.000000
      0.660865       0.856962       0.000000
      0.546050       0.861851       0.000000
      0.432173       0.856962       0.000000
      0.546050       0.861851       0.000000
      0.529912       0.910264       0.000000
      0.397732       0.906804       0.000000
      0.546050       0.861851       0.000000
      0.660865       0.856962       0.000000
      0.662887       0.906804       0.000000
      0.529912       0.910264       0.000000
      0.658747       0.804752       0.000000
      0.748697       0.787383       0.000000
      0.770753       0.842791       0.000000
      0.660865       0.856962       0.000000
      0.748697       0.787383       0.000000
      0.827614       0.760948       0.000000
      0.870711       0.820711       0.000000
      0.770753       0.842791       0.000000
      0.660865       0.856962       0.000000
      0.770753       0.842791       0.000000
      0.792195       0.896655       0.000000
      0.662887       0.906804       0.000000
      0.770753       0.842791       0.000000
      0.870711       0.820711       0.000000
      0.913807       0.880474       0.000000
      0.792195       0.896655       0.000000
      0.152860       0.880474       0.000000
      0.270755       0.896655       0.000000
      0.217995       0.949038       0.000000
      0.076430       0.940237       0.000000
      0.270755       0.896655       0.000000
      0.397732       0.906804       0.000000
      0.364819       0.954435       0.000000
      0.217995       0.949038       0.000000
      0.076430       0.940237       0.000000
      0.217995       0.949038       0.000000
      0.166667       1.000000       0.000000
      0.000000       1.000000       0.000000
      0.217995       0.949038       0.000000
      0.364819       0.954435       0.000000
      0.333333       1.000000       0.000000
      0.166667       1.000000       0.000000
      0.397732       0.906804       0.000000
      0.529912       0.910264       0.000000
      0.514582       0.956255       0.000000
      0.364819       0.954435       0.000000
      0.529912       0.910264       0.000000
      0.662887       0.906804       0.000000
      0.664819       0.954435       0.000000
      0.514582       0.956255       0.000000
      0.364819       0.954435       0.000000
      0.514582       0.956255       0.000000
      0.500000       1.000000       0.000000
      0.333333       1.000000       0.000000
      0.514582       0.956255       0.000000
      0.664819       0.954435       0.000000
      0.666667       1.000000       0.000000
      0.500000       1.000000       0.000000
      0.662887       0.906804       0.000000
      0.792195       0.896655       0.000000
      0.813047       0.949038       0.000000
      0.664819       0.954435       0.000000
      0.792195       0.896655       0.000000
      0.913807       0.880474       0.000000
      0.956904       0.940237       0.000000
      0.813047       0.949038       0.000000
      0.664819       0.954435       0.000000
      0.813047       0.949038       0.000000
      0.833333       1.000000       0.000000
      0.666667       1.000000       0.000000
      0.813047       0.949038       0.000000
      0.956904       0.940237       0.000000
      1.000000       1.000000       0.000000
      0.833333       1.000000       0.000000
      0.458579       0.358579       0.000000
      0.428341       0.397369       0.000000
      0.351758       0.356122       0.000000
      0.382149       0.298816       0.000000
      0.428341       0.397369       0.000000
      0.407483       0.445805       0.000000
      0.331305       0.424779       0.000000
      0.351758       0.356122       0.000000
      0.382149       0.298816       0.000000
      0.351758       0.356122       0.000000
      0.277372       0.316058       0.000000
      0.305719       0.239052       0.000000
      0.351758       0.356122       0.000000
      0.331305       0.424779       0.000000
      0.258747       0.404752       0.000000
      0.277372       0.316058       0.000000
      0.407483       0.445805       0.000000
      0.400000       0.500000       0.000000
      0.324066       0.500000       0.000000
      0.331305       0.424779       0.000000
      0.400000       0.500000       0.000000
      0.407483       0.554195       0.000000
      0.331305       0.575221       0.000000
      0.324066       0.500000       0.000000
      0.331305       0.424779       0.000000
      0.324066       0.500000       0.000000
      0.252241       0.500000       0.000000
      0.258747       0.404752       0.000000
      0.324066       0.500000       0.000000
      0.331305       0.575221       0.000000
      0.258747       0.595248       0.000000
      0.252241       0.500000       0.000000
      0.407483       0.554195       0.000000
      0.428341       0.602631       0.000000
      0.351758       0.643878       0.000000
      0.331305       0.575221       0.000000
      0.428341       0.602631       0.000000
      0.458579       0.641421       0.000000
      0.382149       0.701184       0.000000
      0.351758       0.643878       0.000000
      0.331305       0.575221       0.000000
      0.351758       0.643878       0.000000
      0.277372       0.683942       0.000000
      0.258747       0.595248       0.000000
      0.351758       0.643878       0.000000
      0.382149       0.701184       0.000000
      0.305719       0.760948       0.000000
      0.277372       0.683942       0.000000
      0.305719       0.239052       0.000000
      0.277372       0.316058       0.000000
      0.205089       0.277126       0.000000
      0.229289       0.179289       0.000000
      0.277372       0.316058       0.000000
      0.258747       0.404752       0.000000
      0.189557       0.385654       0.000000
      0.205089       0.277126       0.000000
      0.229289       0.179289       0.000000
      0.205089       0.277126       0.000000
      0.134820       0.239280       0.000000
      0.152860       0.119526       0.000000
      0.205089       0.277126       0.000000
      0.189557       0.385654       0.000000
      0.123505       0.367423       0.000000
      0.134820       0.239280       0.000000
      0.258747       0.404752       0.000000
      0.252241       0.500000       0.000000
      0.184198       0.500000       0.000000
      0.189557       0.385654       0.000000
      0.252241       0.500000       0.000000
      0.258747       0.595248       0.000000
      0.189557       0.614346       0.000000
      0.184198       0.500000       0.000000
      0.189557       0.385654       0.000000
      0.184198       0.500000       0.000000
      0.119648       0.500000       0.000000
      0.123505       0.367423       0.000000
[...]
POINT_DATA   576
VECTORS U float 
      0.000157       0.002076       0.000000
      0.000082       0.002243       0.000000
      0.000013       0.002123       0.000000
      0.000109       0.001927       0.000000
      0.000082       0.002243       0.000000
     -0.000002       0.002354       0.000000
     -0.000053       0.002306       0.000000
      0.000013       0.002123       0.000000
      0.000109       0.001927       0.000000
      0.000013       0.002123       0.000000
      0.000029       0.002120       0.000000
      0.000144       0.001964       0.000000
      0.000013       0.002123       0.000000
     -0.000053       0.002306       0.000000
     -0.000055       0.002290       0.000000
      0.000029       0.002120       0.000000
     -0.000002       0.002354       0.000000
     -0.000092       0.002400       0.000000
     -0.000087       0.002411       0.000000
     -0.000053       0.002306       0.000000
     -0.000092       0.002400       0.000000
     -0.000190       0.002375       0.000000
     -0.000119       0.002392       0.000000
     -0.000087       0.002411       0.000000
     -0.000053       0.002306       0.000000
     -0.000087       0.002411       0.000000
     -0.000086       0.002411       0.000000
     -0.000055       0.002290       0.000000
     -0.000087       0.002411       0.000000
     -0.000119       0.002392       0.000000
     -0.000092       0.002406       0.000000
     -0.000086       0.002411       0.000000
     -0.000190       0.002375       0.000000
     -0.000298       0.002281       0.000000
     -0.000179       0.002253       0.000000
     -0.000119       0.002392       0.000000
     -0.000298       0.002281       0.000000
     -0.000410       0.002126       0.000000
     -0.000284       0.002046       0.000000
     -0.000179       0.002253       0.000000
     -0.000119       0.002392       0.000000
     -0.000179       0.002253       0.000000
     -0.000135       0.002268       0.000000
     -0.000092       0.002406       0.000000
     -0.000179       0.002253       0.000000
     -0.000284       0.002046       0.000000
     -0.000237       0.002070       0.000000
     -0.000135       0.002268       0.000000
      0.000144       0.001964       0.000000
      0.000029       0.002120       0.000000
      0.000062       0.002177       0.000000
      0.000192       0.002064       0.000000
      0.000029       0.002120       0.000000
     -0.000055       0.002290       0.000000
     -0.000043       0.002310       0.000000
      0.000062       0.002177       0.000000
      0.000192       0.002064       0.000000
      0.000062       0.002177       0.000000
      0.000100       0.002267       0.000000
      0.000246       0.002192       0.000000
      0.000062       0.002177       0.000000
     -0.000043       0.002310       0.000000
     -0.000026       0.002356       0.000000
      0.000100       0.002267       0.000000
     -0.000055       0.002290       0.000000
     -0.000086       0.002411       0.000000
     -0.000082       0.002421       0.000000
     -0.000043       0.002310       0.000000
     -0.000086       0.002411       0.000000
     -0.000092       0.002406       0.000000
     -0.000079       0.002425       0.000000
     -0.000082       0.002421       0.000000
     -0.000043       0.002310       0.000000
     -0.000082       0.002421       0.000000
     -0.000078       0.002440       0.000000
     -0.000026       0.002356       0.000000
     -0.000082       0.002421       0.000000
     -0.000079       0.002425       0.000000
     -0.000071       0.002448       0.000000
     -0.000078       0.002440       0.000000
     -0.000092       0.002406       0.000000
     -0.000135       0.002268       0.000000
     -0.000112       0.002305       0.000000
     -0.000079       0.002425       0.000000
     -0.000135       0.002268       0.000000
     -0.000237       0.002070       0.000000
     -0.000212       0.002132       0.000000
     -0.000112       0.002305       0.000000
     -0.000079       0.002425       0.000000
     -0.000112       0.002305       0.000000
     -0.000101       0.002357       0.000000
     -0.000071       0.002448       0.000000
     -0.000112       0.002305       0.000000
     -0.000212       0.002132       0.000000
     -0.000206       0.002222       0.000000
     -0.000101       0.002357       0.000000
      0.000246       0.002192       0.000000
      0.000100       0.002267       0.000000
      0.000145       0.002377       0.000000
      0.000313       0.002336       0.000000
      0.000100       0.002267       0.000000
     -0.000026       0.002356       0.000000
     -0.000006       0.002421       0.000000
      0.000145       0.002377       0.000000
      0.000313       0.002336       0.000000
      0.000145       0.002377       0.000000
      0.000199       0.002500       0.000000
      0.000400       0.002500       0.000000
      0.000145       0.002377       0.000000
     -0.000006       0.002421       0.000000
      0.000019       0.002500       0.000000
      0.000199       0.002500       0.000000
     -0.000026       0.002356       0.000000
     -0.000078       0.002440       0.000000
     -0.000075       0.002467       0.000000
     -0.000006       0.002421       0.000000
     -0.000078       0.002440       0.000000
     -0.000071       0.002448       0.000000
     -0.000066       0.002474       0.000000
     -0.000075       0.002467       0.000000
     -0.000006       0.002421       0.000000
     -0.000075       0.002467       0.000000
     -0.000072       0.002500       0.000000
      0.000019       0.002500       0.000000
     -0.000075       0.002467       0.000000
     -0.000066       0.002474       0.000000
     -0.000065       0.002500       0.000000
     -0.000072       0.002500       0.000000
     -0.000071       0.002448       0.000000
     -0.000101       0.002357       0.000000
     -0.000098       0.002422       0.000000
     -0.000066       0.002474       0.000000
     -0.000101       0.002357       0.000000
     -0.000206       0.002222       0.000000
     -0.000223       0.002344       0.000000
     -0.000098       0.002422       0.000000
     -0.000066       0.002474       0.000000
     -0.000098       0.002422       0.000000
     -0.000105       0.002500       0.000000
     -0.000065       0.002500       0.000000
     -0.000098       0.002422       0.000000
     -0.000223       0.002344       0.000000
     -0.000264       0.002500       0.000000
     -0.000105       0.002500       0.000000
      0.000135       0.000367       0.000000
      0.000203       0.000583       0.000000
      0.000206       0.000729       0.000000
      0.000084       0.000513       0.000000
      0.000203       0.000583       0.000000
      0.000259       0.000873       0.000000
      0.000332       0.000973       0.000000
      0.000206       0.000729       0.000000
      0.000084       0.000513       0.000000
      0.000206       0.000729       0.000000
      0.000237       0.000711       0.000000
      0.000105       0.000478       0.000000
      0.000206       0.000729       0.000000
      0.000332       0.000973       0.000000
      0.000376       0.000970       0.000000
      0.000237       0.000711       0.000000
      0.000259       0.000873       0.000000
      0.000284       0.001215       0.000000
      0.000393       0.001221       0.000000
      0.000332       0.000973       0.000000
      0.000284       0.001215       0.000000
      0.000270       0.001559       0.000000
      0.000347       0.001467       0.000000
      0.000393       0.001221       0.000000
      0.000332       0.000973       0.000000
      0.000393       0.001221       0.000000
      0.000445       0.001225       0.000000
      0.000376       0.000970       0.000000
      0.000393       0.001221       0.000000
      0.000347       0.001467       0.000000
      0.000393       0.001478       0.000000
      0.000445       0.001225       0.000000
      0.000270       0.001559       0.000000
      0.000223       0.001853       0.000000
      0.000230       0.001709       0.000000
      0.000347       0.001467       0.000000
      0.000223       0.001853       0.000000
      0.000157       0.002076       0.000000
      0.000109       0.001927       0.000000
      0.000230       0.001709       0.000000
      0.000347       0.001467       0.000000
      0.000230       0.001709       0.000000
      0.000267       0.001732       0.000000
      0.000393       0.001478       0.000000
      0.000230       0.001709       0.000000
      0.000109       0.001927       0.000000
      0.000144       0.001964       0.000000
      0.000267       0.001732       0.000000
      0.000105       0.000478       0.000000
      0.000237       0.000711       0.000000
      0.000271       0.000653       0.000000
      0.000126       0.000384       0.000000
      0.000237       0.000711       0.000000
      0.000376       0.000970       0.000000
      0.000421       0.000947       0.000000
      0.000271       0.000653       0.000000
      0.000126       0.000384       0.000000
      0.000271       0.000653       0.000000
      0.000304       0.000592       0.000000
      0.000131       0.000269       0.000000
      0.000271       0.000653       0.000000
      0.000421       0.000947       0.000000
      0.000468       0.000924       0.000000
      0.000304       0.000592       0.000000
      0.000376       0.000970       0.000000
      0.000445       0.001225       0.000000
      0.000495       0.001231       0.000000
      0.000421       0.000947       0.000000
      0.000445       0.001225       0.000000
      0.000393       0.001478       0.000000
      0.000440       0.001512       0.000000
      0.000495       0.001231       0.000000
      0.000421       0.000947       0.000000
      0.000495       0.001231       0.000000
      0.000548       0.001238       0.000000
      0.000468       0.000924       0.000000
      0.000495       0.001231       0.000000
      0.000440       0.001512       0.000000
      0.000489       0.001549       0.000000
      0.000548       0.001238       0.000000
      0.000393       0.001478       0.000000
      0.000267       0.001732       0.000000
      0.000312       0.001798       0.000000
      0.000440       0.001512       0.000000
      0.000267       0.001732       0.000000
      0.000144       0.001964       0.000000
      0.000192       0.002064       0.000000
      0.000312       0.001798       0.000000
      0.000440       0.001512       0.000000
      0.000312       0.001798       0.000000
      0.000358       0.001875       0.000000
      0.000489       0.001549       0.000000
      0.000312       0.001798       0.000000
      0.000192       0.002064       0.000000
      0.000246       0.002192       0.000000
      0.000358       0.001875       0.000000
      0.000131       0.000269       0.000000
      0.000304       0.000592       0.000000
      0.000332       0.000545       0.000000
      0.000107       0.000146       0.000000
      0.000304       0.000592       0.000000
      0.000468       0.000924       0.000000
      0.000513       0.000914       0.000000
      0.000332       0.000545       0.000000
      0.000107       0.000146       0.000000
      0.000332       0.000545       0.000000
      0.000357       0.000521       0.000000
      0.000000       0.000000       0.000000
      0.000332       0.000545       0.000000
      0.000513       0.000914       0.000000
      0.000554       0.000922       0.000000
      0.000357       0.000521       0.000000
      0.000468       0.000924       0.000000
      0.000548       0.001238       0.000000
      0.000602       0.001244       0.000000
      0.000513       0.000914       0.000000
      0.000548       0.001238       0.000000
      0.000489       0.001549       0.000000
      0.000538       0.001577       0.000000
      0.000602       0.001244       0.000000
      0.000513       0.000914       0.000000
      0.000602       0.001244       0.000000
      0.000652       0.001250       0.000000
      0.000554       0.000922       0.000000
      0.000602       0.001244       0.000000
      0.000538       0.001577       0.000000
      0.000585       0.001584       0.000000
      0.000652       0.001250       0.000000
      0.000489       0.001549       0.000000
      0.000358       0.001875       0.000000
      0.000405       0.001948       0.000000
      0.000538       0.001577       0.000000
      0.000358       0.001875       0.000000
      0.000246       0.002192       0.000000
      0.000313       0.002336       0.000000
      0.000405       0.001948       0.000000
      0.000538       0.001577       0.000000
      0.000405       0.001948       0.000000
      0.000456       0.002010       0.000000
      0.000585       0.001584       0.000000
      0.000405       0.001948       0.000000
      0.000313       0.002336       0.000000
      0.000400       0.002500       0.000000
      0.000456       0.002010       0.000000
     -0.000384       0.000347       0.000000
     -0.000269       0.000191       0.000000
     -0.000146       0.000222       0.000000
     -0.000250       0.000432       0.000000
     -0.000269       0.000191       0.000000
     -0.000166       0.000098       0.000000
     -0.000093       0.000085       0.000000
     -0.000146       0.000222       0.000000
     -0.000250       0.000432       0.000000
     -0.000146       0.000222       0.000000
     -0.000089       0.000211       0.000000
     -0.000191       0.000412       0.000000
     -0.000146       0.000222       0.000000
     -0.000093       0.000085       0.000000
     -0.000057       0.000076       0.000000
     -0.000089       0.000211       0.000000
     -0.000166       0.000098       0.000000
     -0.000081       0.000071       0.000000
     -0.000073       0.000063       0.000000
     -0.000093       0.000085       0.000000
     -0.000081       0.000071       0.000000
     -0.000008       0.000110       0.000000
     -0.000054       0.000155       0.000000
     -0.000073       0.000063       0.000000
     -0.000093       0.000085       0.000000
     -0.000073       0.000063       0.000000
     -0.000067       0.000066       0.000000
     -0.000057       0.000076       0.000000
     -0.000073       0.000063       0.000000
     -0.000054       0.000155       0.000000
     -0.000059       0.000172       0.000000
     -0.000067       0.000066       0.000000
     -0.000008       0.000110       0.000000
      0.000064       0.000211       0.000000
     -0.000004       0.000324       0.000000
     -0.000054       0.000155       0.000000
      0.000064       0.000211       0.000000
      0.000135       0.000367       0.000000
      0.000084       0.000513       0.000000
     -0.000004       0.000324       0.000000
     -0.000054       0.000155       0.000000
     -0.000004       0.000324       0.000000
      0.000003       0.000327       0.000000
     -0.000059       0.000172       0.000000
     -0.000004       0.000324       0.000000
      0.000084       0.000513       0.000000
      0.000105       0.000478       0.000000
      0.000003       0.000327       0.000000
     -0.000191       0.000412       0.000000
     -0.000089       0.000211       0.000000
     -0.000051       0.000177       0.000000
     -0.000148       0.000354       0.000000
     -0.000089       0.000211       0.000000
     -0.000057       0.000076       0.000000
     -0.000033       0.000062       0.000000
     -0.000051       0.000177       0.000000
     -0.000148       0.000354       0.000000
     -0.000051       0.000177       0.000000
     -0.000022       0.000128       0.000000
     -0.000118       0.000268       0.000000
     -0.000051       0.000177       0.000000
     -0.000033       0.000062       0.000000
     -0.000015       0.000045       0.000000
     -0.000022       0.000128       0.000000
     -0.000057       0.000076       0.000000
     -0.000067       0.000066       0.000000
     -0.000058       0.000062       0.000000
     -0.000033       0.000062       0.000000
     -0.000067       0.000066       0.000000
     -0.000059       0.000172       0.000000
     -0.000051       0.000155       0.000000
     -0.000058       0.000062       0.000000
     -0.000033       0.000062       0.000000
     -0.000058       0.000062       0.000000
     -0.000046       0.000048       0.000000
     -0.000015       0.000045       0.000000
     -0.000058       0.000062       0.000000
     -0.000051       0.000155       0.000000
     -0.000038       0.000115       0.000000
     -0.000046       0.000048       0.000000
     -0.000059       0.000172       0.000000
      0.000003       0.000327       0.000000
      0.000018       0.000273       0.000000
     -0.000051       0.000155       0.000000
      0.000003       0.000327       0.000000
      0.000105       0.000478       0.000000
      0.000126       0.000384       0.000000
      0.000018       0.000273       0.000000
     -0.000051       0.000155       0.000000
      0.000018       0.000273       0.000000
      0.000027       0.000190       0.000000
     -0.000038       0.000115       0.000000
      0.000018       0.000273       0.000000
      0.000126       0.000384       0.000000
      0.000131       0.000269       0.000000
      0.000027       0.000190       0.000000
     -0.000118       0.000268       0.000000
     -0.000022       0.000128       0.000000
     -0.000004       0.000067       0.000000
     -0.000089       0.000152       0.000000
     -0.000022       0.000128       0.000000
     -0.000015       0.000045       0.000000
     -0.000003       0.000025       0.000000
     -0.000004       0.000067       0.000000
     -0.000089       0.000152       0.000000
     -0.000004       0.000067       0.000000
      0.000000       0.000000       0.000000
      0.000000       0.000000       0.000000
     -0.000004       0.000067       0.000000
     -0.000003       0.000025       0.000000
      0.000000       0.000000       0.000000
      0.000000       0.000000       0.000000
     -0.000015       0.000045       0.000000
     -0.000046       0.000048       0.000000
     -0.000028       0.000028       0.000000
     -0.000003       0.000025       0.000000
     -0.000046       0.000048       0.000000
     -0.000038       0.000115       0.000000
     -0.000021       0.000061       0.000000
     -0.000028       0.000028       0.000000
     -0.000003       0.000025       0.000000
     -0.000028       0.000028       0.000000
      0.000000       0.000000       0.000000
      0.000000       0.000000       0.000000
     -0.000028       0.000028       0.000000
     -0.000021       0.000061       0.000000
      0.000000       0.000000       0.000000
      0.000000       0.000000       0.000000
     -0.000038       0.000115       0.000000
      0.000027       0.000190       0.000000
      0.000024       0.000096       0.000000
     -0.000021       0.000061       0.000000
      0.000027       0.000190       0.000000
      0.000131       0.000269       0.000000
      0.000107       0.000146       0.000000
      0.000024       0.000096       0.000000
     -0.000021       0.000061       0.000000
      0.000024       0.000096       0.000000
      0.000000       0.000000       0.000000
      0.000000       0.000000       0.000000
      0.000024       0.000096       0.000000
      0.000107       0.000146       0.000000
      0.000000       0.000000       0.000000
      0.000000       0.000000       0.000000
     -0.000384       0.000347       0.000000
     -0.000504       0.000569       0.000000
     -0.000426       0.000657       0.000000
     -0.000250       0.000432       0.000000
     -0.000504       0.000569       0.000000
     -0.000609       0.000874       0.000000
     -0.000628       0.000932       0.000000
     -0.000426       0.000657       0.000000
     -0.000250       0.000432       0.000000
     -0.000426       0.000657       0.000000
     -0.000378       0.000654       0.000000