# vtk DataFile Version 2.0
time_10.vtk
ASCII
DATASET UNSTRUCTURED_GRID
POINTS   840 float
      0.458579       0.641421       0.000000
      0.497369       0.671659       0.000000
      0.438243       0.730363       0.000000
      0.382149       0.701184       0.000000
      0.497369       0.671659       0.000000
      0.545805       0.692517       0.000000
      0.506084       0.750000       0.000000
      0.438243       0.730363       0.000000
      0.382149       0.701184       0.000000
      0.438243       0.730363       0.000000
      0.380813       0.787383       0.000000
      0.305719       0.760948       0.000000
      0.438243       0.730363       0.000000
      0.506084       0.750000       0.000000
      0.468251       0.804752       0.000000
      0.380813       0.787383       0.000000
      0.545805       0.692517       0.000000
      0.600000       0.700000       0.000000
      0.581017       0.756950       0.000000
      0.506084       0.750000       0.000000
      0.600000       0.700000       0.000000
      0.654195       0.692517       0.000000
      0.656527       0.750000       0.000000
      0.581017       0.756950       0.000000
      0.506084       0.750000       0.000000
      0.581017       0.756950       0.000000
      0.563060       0.810819       0.000000
      0.468251       0.804752       0.000000
      0.581017       0.756950       0.000000
      0.656527       0.750000       0.000000
      0.658747       0.804752       0.000000
      0.563060       0.810819       0.000000
      0.654195       0.692517       0.000000
      0.702631       0.671659       0.000000
      0.725999       0.730363       0.000000
      0.656527       0.750000       0.000000
      0.702631       0.671659       0.000000
      0.741421       0.641421       0.000000
      0.784518       0.701184       0.000000
      0.725999       0.730363       0.000000
      0.656527       0.750000       0.000000
      0.725999       0.730363       0.000000
      0.748697       0.787383       0.000000
      0.658747       0.804752       0.000000
      0.725999       0.730363       0.000000
      0.784518       0.701184       0.000000
      0.827614       0.760948       0.000000
      0.748697       0.787383       0.000000
      0.305719       0.760948       0.000000
      0.380813       0.787383       0.000000
      0.325006       0.842791       0.000000
      0.229289       0.820711       0.000000
      0.380813       0.787383       0.000000
      0.468251       0.804752       0.000000
      0.432173       0.856962       0.000000
      0.325006       0.842791       0.000000
      0.229289       0.820711       0.000000
      0.325006       0.842791       0.000000
      0.270755       0.896655       0.000000
      0.152860       0.880474       0.000000
      0.325006       0.842791       0.000000
      0.432173       0.856962       0.000000
      0.397732       0.906804       0.000000
      0.270755       0.896655       0.000000
      0.468251       0.804752       0.000000
      0.563060       0.810819       0.000000
      0.546050       0.861851       0.000000
      0.432173       0.856962       0.000000
      0.563060       0.810819       0.000000
      0.658747       0.804752       0.000000
      0.660865       0.856962       0.000000
      0.546050       0.861851       0.000000
      0.432173       0.856962       0.000000
      0.546050       0.861851       0.000000
      0.529912       0.910264       0.000000
      0.397732       0.906804       0.000000
      0.546050       0.861851       0.000000
      0.660865       0.856962       0.000000
      0.662887       0.906804       0.000000
      0.529912       0.910264       0.000000
      0.658747       0.804752       0.000000
      0.748697       0.787383       0.000000
      0.770753       0.842791       0.000000
      0.660865       0.856962       0.000000
      0.748697       0.787383       0.000000
      0.827614       0.760948       0.000000
      0.870711       0.820711       0.000000
      0.770753       0.842791       0.000000
      0.660865       0.856962       0.000000
      0.770753       0.842791       0.000000
      0.792195       0.896655       0.000000
      0.662887       0.906804       0.000000
      0.770753       0.842791       0.000000
      0.870711       0.820711       0.000000
      0.913807       0.880474       0.000000
      0.792195       0.896655       0.000000
      0.152860       0.880474       0.000000
      0.270755       0.896655       0.000000
      0.217995       0.949038       0.000000
      0.076430       0.940237       0.000000
      0.270755       0.896655       0.000000
      0.397732       0.906804       0.000000
      0.364819       0.954435       0.000000
      0.217995       0.949038       0.000000
      0.076430       0.940237       0.000000
      0.217995       0.949038       0.000000
      0.166667       1.000000       0.000000
      0.000000       1.000000       0.000000
      0.217995       0.949038       0.000000
      0.364819       0.954435       0.000000
      0.333333       1.000000       0.000000
      0.166667       1.000000       0.000000
      0.397732       0.906804       0.000000
      0.529912       0.910264       0.000000
      0.514582       0.956255       0.000000
      0.364819       0.954435       0.000000
      0.529912       0.910264       0.000000
      0.662887       0.906804       0.000000
      0.664819       0.954435       0.000000
      0.514582       0.956255       0.000000
      0.364819       0.954435       0.000000
      0.514582       0.956255       0.000000
      0.500000       1.000000       0.000000
      0.333333       1.000000       0.000000
      0.514582       0.956255       0.000000
      0.664819       0.954435       0.000000
      0.666667       1.000000       0.000000
      0.500000       1.000000       0.000000
      0.662887       0.906804       0.000000
      0.792195       0.896655       0.000000
      0.813047       0.949038       0.000000
      0.664819       0.954435       0.000000
      0.792195       0.896655       0.000000
      0.913807       0.880474       0.000000
      0.956904       0.940237       0.000000
      0.813047       0.949038       0.000000
      0.664819       0.954435       0.000000
      0.813047       0.949038       0.000000
      0.833333       1.000000       0.000000
      0.666667       1.000000       0.000000
      0.813047       0.949038       0.000000
      0.956904       0.940237       0.000000
      1.000000       1.000000       0.000000
      0.833333       1.000000       0.000000
      0.458579       0.358579       0.000000
      0.428341       0.397369       0.000000
      0.351758       0.356122       0.000000
      0.382149       0.298816       0.000000
      0.428341       0.397369       0.000000
      0.407483       0.445805       0.000000
      0.331305       0.424779       0.000000
      0.351758       0.356122       0.000000
      0.382149       0.298816       0.000000
      0.351758       0.356122       0.000000
      0.277372       0.316058       0.000000
      0.305719       0.239052       0.000000
      0.351758       0.356122       0.000000
      0.331305       0.424779       0.000000
      0.258747       0.404752       0.000000
      0.277372       0.316058       0.000000
      0.407483       0.445805       0.000000
      0.400000       0.500000       0.000000
      0.324066       0.500000       0.000000
      0.331305       0.424779       0.000000
      0.400000       0.500000       0.000000
      0.407483       0.554195       0.000000
      0.331305       0.575221       0.000000
      0.324066       0.500000       0.000000
      0.331305       0.424779       0.000000
      0.324066       0.500000       0.000000
      0.252241       0.500000       0.000000
      0.258747       0.404752       0.000000
      0.324066       0.500000       0.000000
      0.331305       0.575221       0.000000
      0.258747       0.595248       0.000000
      0.252241       0.500000       0.000000
      0.407483       0.554195       0.000000
      0.428341       0.602631       0.000000
      0.351758       0.643878       0.000000
      0.331305       0.575221       0.000000
      0.428341       0.602631       0.000000
      0.458579       0.641421       0.000000
      0.382149       0.701184       0.000000
      0.351758       0.643878       0.000000
      0.331305       0.575221       0.000000
      0.351758       0.643878       0.000000
      0.277372       0.683942       0.000000
      0.258747       0.595248       0.000000
      0.351758       0.643878       0.000000
      0.382149       0.701184       0.000000
      0.305719       0.760948       0.000000
      0.277372       0.683942       0.000000
      0.305719       0.239052       0.000000
      0.277372       0.316058       0.000000
      0.205089       0.277126       0.000000
      0.229289       0.179289       0.000000
      0.277372       0.316058       0.000000
      0.258747       0.404752       0.000000
      0.189557       0.385654       0.000000
      0.205089       0.277126       0.000000
      0.229289       0.179289       0.000000
      0.205089       0.277126       0.000000
      0.134820       0.239280       0.000000
      0.152860       0.119526       0.000000
      0.205089       0.277126       0.000000
      0.189557       0.385654       0.000000
      0.123505       0.367423       0.000000
      0.134820       0.239280       0.000000
      0.258747       0.404752       0.000000
      0.252241       0.500000       0.000000
      0.184198       0.500000       0.000000
      0.189557       0.385654       0.000000
      0.252241       0.500000       0.000000
      0.258747       0.595248       0.000000
      0.189557       0.614346       0.000000
      0.184198       0.500000       0.000000
      0.189557       0.385654       0.000000
      0.184198       0.500000       0.000000
      0.119648       0.500000       0.000000
      0.123505       0.367423       0.000000
[...]
POINT_DATA   840
VECTORS U float 
      0.000438       0.005688       0.000000
      0.000225       0.006072       0.000000
      0.000038       0.005777       0.000000
      0.000282       0.005278       0.000000
      0.000225       0.006072       0.000000
      0.000006       0.006328       0.000000
     -0.000121       0.006216       0.000000
      0.000038       0.005777       0.000000
      0.000282       0.005278       0.000000
      0.000038       0.005777       0.000000
      0.000058       0.005740       0.000000
      0.000349       0.005311       0.000000
      0.000038       0.005777       0.000000
     -0.000121       0.006216       0.000000
     -0.000140       0.006166       0.000000
      0.000058       0.005740       0.000000
      0.000006       0.006328       0.000000
     -0.000219       0.006434       0.000000
     -0.000206       0.006461       0.000000
     -0.000121       0.006216       0.000000
     -0.000219       0.006434       0.000000
     -0.000464       0.006383       0.000000
     -0.000288       0.006422       0.000000
     -0.000206       0.006461       0.000000
     -0.000121       0.006216       0.000000
     -0.000206       0.006461       0.000000
     -0.000206       0.006456       0.000000
     -0.000140       0.006166       0.000000
     -0.000206       0.006461       0.000000
     -0.000288       0.006422       0.000000
     -0.000216       0.006447       0.000000
     -0.000206       0.006456       0.000000
     -0.000464       0.006383       0.000000
     -0.000744       0.006176       0.000000
     -0.000437       0.006103       0.000000
     -0.000288       0.006422       0.000000
     -0.000744       0.006176       0.000000
     -0.001055       0.005828       0.000000
     -0.000699       0.005604       0.000000
     -0.000437       0.006103       0.000000
     -0.000288       0.006422       0.000000
     -0.000437       0.006103       0.000000
     -0.000309       0.006120       0.000000
     -0.000216       0.006447       0.000000
     -0.000437       0.006103       0.000000
     -0.000699       0.005604       0.000000
     -0.000549       0.005619       0.000000
     -0.000309       0.006120       0.000000
      0.000349       0.005311       0.000000
      0.000058       0.005740       0.000000
      0.000121       0.005851       0.000000
      0.000453       0.005520       0.000000
      0.000058       0.005740       0.000000
     -0.000140       0.006166       0.000000
     -0.000123       0.006199       0.000000
      0.000121       0.005851       0.000000
      0.000453       0.005520       0.000000
      0.000121       0.005851       0.000000
      0.000201       0.006051       0.000000
      0.000577       0.005816       0.000000
      0.000121       0.005851       0.000000
     -0.000123       0.006199       0.000000
     -0.000093       0.006294       0.000000
      0.000201       0.006051       0.000000
     -0.000140       0.006166       0.000000
     -0.000206       0.006456       0.000000
     -0.000201       0.006469       0.000000
     -0.000123       0.006199       0.000000
     -0.000206       0.006456       0.000000
     -0.000216       0.006447       0.000000
     -0.000177       0.006481       0.000000
     -0.000201       0.006469       0.000000
     -0.000123       0.006199       0.000000
     -0.000201       0.006469       0.000000
     -0.000195       0.006503       0.000000
     -0.000093       0.006294       0.000000
     -0.000201       0.006469       0.000000
     -0.000177       0.006481       0.000000
     -0.000154       0.006523       0.000000
     -0.000195       0.006503       0.000000
     -0.000216       0.006447       0.000000
     -0.000309       0.006120       0.000000
     -0.000239       0.006190       0.000000
     -0.000177       0.006481       0.000000
     -0.000309       0.006120       0.000000
     -0.000549       0.005619       0.000000
     -0.000468       0.005735       0.000000
     -0.000239       0.006190       0.000000
     -0.000177       0.006481       0.000000
     -0.000239       0.006190       0.000000
     -0.000202       0.006298       0.000000
     -0.000154       0.006523       0.000000
     -0.000239       0.006190       0.000000
     -0.000468       0.005735       0.000000
     -0.000444       0.005936       0.000000
     -0.000202       0.006298       0.000000
      0.000577       0.005816       0.000000
      0.000201       0.006051       0.000000
      0.000302       0.006313       0.000000
      0.000741       0.006177       0.000000
      0.000201       0.006051       0.000000
     -0.000093       0.006294       0.000000
     -0.000053       0.006438       0.000000
      0.000302       0.006313       0.000000
      0.000741       0.006177       0.000000
      0.000302       0.006313       0.000000
      0.000434       0.006622       0.000000
      0.000975       0.006622       0.000000
      0.000302       0.006313       0.000000
     -0.000053       0.006438       0.000000
      0.000000       0.006622       0.000000
      0.000434       0.006622       0.000000
     -0.000093       0.006294       0.000000
     -0.000195       0.006503       0.000000
     -0.000191       0.006555       0.000000
     -0.000053       0.006438       0.000000
     -0.000195       0.006503       0.000000
     -0.000154       0.006523       0.000000
     -0.000141       0.006572       0.000000
     -0.000191       0.006555       0.000000
     -0.000053       0.006438       0.000000
     -0.000191       0.006555       0.000000
     -0.000189       0.006622       0.000000
      0.000000       0.006622       0.000000
     -0.000191       0.006555       0.000000
     -0.000141       0.006572       0.000000
     -0.000137       0.006622       0.000000
     -0.000189       0.006622       0.000000
     -0.000154       0.006523       0.000000
     -0.000202       0.006298       0.000000
     -0.000190       0.006442       0.000000
     -0.000141       0.006572       0.000000
     -0.000202       0.006298       0.000000
     -0.000444       0.005936       0.000000
     -0.000485       0.006233       0.000000
     -0.000190       0.006442       0.000000
     -0.000141       0.006572       0.000000
     -0.000190       0.006442       0.000000
     -0.000204       0.006622       0.000000
     -0.000137       0.006622       0.000000
     -0.000190       0.006442       0.000000
     -0.000485       0.006233       0.000000
     -0.000587       0.006622       0.000000
     -0.000204       0.006622       0.000000
      0.000385       0.000805       0.000000
      0.000591       0.001307       0.000000
      0.000562       0.001758       0.000000
      0.000229       0.001196       0.000000
      0.000591       0.001307       0.000000
      0.000754       0.002033       0.000000
      0.000947       0.002448       0.000000
      0.000562       0.001758       0.000000
      0.000229       0.001196       0.000000
      0.000562       0.001758       0.000000
      0.000639       0.001788       0.000000
      0.000269       0.001158       0.000000
      0.000562       0.001758       0.000000
      0.000947       0.002448       0.000000
      0.001071       0.002524       0.000000
      0.000639       0.001788       0.000000
      0.000754       0.002033       0.000000
      0.000771       0.003218       0.000000
      0.001174       0.003235       0.000000
      0.000947       0.002448       0.000000
      0.000771       0.003218       0.000000
      0.000784       0.004422       0.000000
      0.000985       0.004019       0.000000
      0.001174       0.003235       0.000000
      0.000947       0.002448       0.000000
      0.001174       0.003235       0.000000
      0.001306       0.003245       0.000000
      0.001071       0.002524       0.000000
      0.001174       0.003235       0.000000
      0.000985       0.004019       0.000000
      0.001109       0.003958       0.000000
      0.001306       0.003245       0.000000
      0.000784       0.004422       0.000000
      0.000641       0.005165       0.000000
      0.000617       0.004706       0.000000
      0.000985       0.004019       0.000000
      0.000641       0.005165       0.000000
      0.000438       0.005688       0.000000
      0.000282       0.005278       0.000000
      0.000617       0.004706       0.000000
      0.000985       0.004019       0.000000
      0.000617       0.004706       0.000000
      0.000705       0.004680       0.000000
      0.001109       0.003958       0.000000
      0.000617       0.004706       0.000000
      0.000282       0.005278       0.000000
      0.000349       0.005311       0.000000
      0.000705       0.004680       0.000000
      0.000269       0.001158       0.000000
      0.000639       0.001788       0.000000
      0.000730       0.001682       0.000000
      0.000314       0.000954       0.000000
      0.000639       0.001788       0.000000
      0.001071       0.002524       0.000000
      0.001190       0.002494       0.000000
      0.000730       0.001682       0.000000
      0.000314       0.000954       0.000000
      0.000730       0.001682       0.000000
      0.000811       0.001553       0.000000
      0.000323       0.000683       0.000000
      0.000730       0.001682       0.000000
      0.001190       0.002494       0.000000
      0.001310       0.002452       0.000000
      0.000811       0.001553       0.000000
      0.001071       0.002524       0.000000
      0.001306       0.003245       0.000000
      0.001426       0.003256       0.000000
      0.001190       0.002494       0.000000
      0.001306       0.003245       0.000000
      0.001109       0.003958       0.000000
      0.001231       0.004010       0.000000
      0.001426       0.003256       0.000000
      0.001190       0.002494       0.000000
      0.001426       0.003256       0.000000
      0.001557       0.003269       0.000000
      0.001310       0.002452       0.000000
      0.001426       0.003256       0.000000
      0.001231       0.004010       0.000000
      0.001354       0.004082       0.000000
      0.001557       0.003269       0.000000
      0.001109       0.003958       0.000000
      0.000705       0.004680       0.000000
      0.000815       0.004801       0.000000
      0.001231       0.004010       0.000000
      0.000705       0.004680       0.000000
      0.000349       0.005311       0.000000
      0.000453       0.005520       0.000000
      0.000815       0.004801       0.000000
      0.001231       0.004010       0.000000
      0.000815       0.004801       0.000000
      0.000924       0.004962       0.000000
      0.001354       0.004082       0.000000
      0.000815       0.004801       0.000000
      0.000453       0.005520       0.000000
      0.000577       0.005816       0.000000
      0.000924       0.004962       0.000000
      0.000323       0.000683       0.000000
      0.000811       0.001553       0.000000
      0.000881       0.001457       0.000000
      0.000261       0.000377       0.000000
      0.000811       0.001553       0.000000
      0.001310       0.002452       0.000000
      0.001423       0.002440       0.000000
      0.000881       0.001457       0.000000
      0.000261       0.000377       0.000000
      0.000881       0.001457       0.000000
      0.000942       0.001414       0.000000
      0.000000       0.000000       0.000000
      0.000881       0.001457       0.000000
      0.001423       0.002440       0.000000
      0.001522       0.002486       0.000000
      0.000942       0.001414       0.000000
      0.001310       0.002452       0.000000
      0.001557       0.003269       0.000000
      0.001691       0.003282       0.000000
      0.001423       0.002440       0.000000
      0.001557       0.003269       0.000000
      0.001354       0.004082       0.000000
      0.001473       0.004129       0.000000
      0.001691       0.003282       0.000000
      0.001423       0.002440       0.000000
      0.001691       0.003282       0.000000
      0.001813       0.003293       0.000000
      0.001522       0.002486       0.000000
      0.001691       0.003282       0.000000
      0.001473       0.004129       0.000000
      0.001584       0.004117       0.000000
      0.001813       0.003293       0.000000
      0.001354       0.004082       0.000000
      0.000924       0.004962       0.000000
      0.001033       0.005119       0.000000
      0.001473       0.004129       0.000000
      0.000924       0.004962       0.000000
      0.000577       0.005816       0.000000
      0.000741       0.006177       0.000000
      0.001033       0.005119       0.000000
      0.001473       0.004129       0.000000
      0.001033       0.005119       0.000000
      0.001160       0.005259       0.000000
      0.001584       0.004117       0.000000
      0.001033       0.005119       0.000000
      0.000741       0.006177       0.000000
      0.000975       0.006622       0.000000
      0.001160       0.005259       0.000000
     -0.000991       0.000738       0.000000
     -0.000675       0.000392       0.000000
     -0.000359       0.000471       0.000000
     -0.000620       0.000971       0.000000
     -0.000675       0.000392       0.000000
     -0.000406       0.000189       0.000000
     -0.000225       0.000158       0.000000
     -0.000359       0.000471       0.000000
     -0.000620       0.000971       0.000000
     -0.000359       0.000471       0.000000
     -0.000206       0.000461       0.000000
     -0.000445       0.000964       0.000000
     -0.000359       0.000471       0.000000
     -0.000225       0.000158       0.000000
     -0.000133       0.000143       0.000000
     -0.000206       0.000461       0.000000
     -0.000406       0.000189       0.000000
     -0.000189       0.000134       0.000000
     -0.000168       0.000114       0.000000
     -0.000225       0.000158       0.000000
     -0.000189       0.000134       0.000000
     -0.000002       0.000222       0.000000
     -0.000116       0.000326       0.000000
     -0.000168       0.000114       0.000000
     -0.000225       0.000158       0.000000
     -0.000168       0.000114       0.000000
     -0.000156       0.000125       0.000000
     -0.000133       0.000143       0.000000
     -0.000168       0.000114       0.000000
     -0.000116       0.000326       0.000000
     -0.000137       0.000375       0.000000
     -0.000156       0.000125       0.000000
     -0.000002       0.000222       0.000000
      0.000187       0.000450       0.000000
      0.000009       0.000724       0.000000
     -0.000116       0.000326       0.000000
      0.000187       0.000450       0.000000
      0.000385       0.000805       0.000000
      0.000229       0.001196       0.000000
      0.000009       0.000724       0.000000
     -0.000116       0.000326       0.000000
      0.000009       0.000724       0.000000
      0.000010       0.000755       0.000000
     -0.000137       0.000375       0.000000
      0.000009       0.000724       0.000000
      0.000229       0.001196       0.000000
      0.000269       0.001158       0.000000
      0.000010       0.000755       0.000000
     -0.000445       0.000964       0.000000
     -0.000206       0.000461       0.000000
     -0.000105       0.000396       0.000000
     -0.000329       0.000853       0.000000
     -0.000206       0.000461       0.000000
     -0.000133       0.000143       0.000000
     -0.000072       0.000122       0.000000
     -0.000105       0.000396       0.000000
     -0.000329       0.000853       0.000000
     -0.000105       0.000396       0.000000
     -0.000035       0.000292       0.000000
     -0.000257       0.000655       0.000000
     -0.000105       0.000396       0.000000
     -0.000072       0.000122       0.000000
     -0.000028       0.000091       0.000000
     -0.000035       0.000292       0.000000
     -0.000133       0.000143       0.000000
     -0.000156       0.000125       0.000000
     -0.000136       0.000122       0.000000
     -0.000072       0.000122       0.000000
     -0.000156       0.000125       0.000000
     -0.000137       0.000375       0.000000
     -0.000124       0.000346       0.000000
     -0.000136       0.000122       0.000000
     -0.000072       0.000122       0.000000
     -0.000136       0.000122       0.000000
     -0.000108       0.000100       0.000000
     -0.000028       0.000091       0.000000
     -0.000136       0.000122       0.000000
     -0.000124       0.000346       0.000000
     -0.000095       0.000260       0.000000
     -0.000108       0.000100       0.000000
     -0.000137       0.000375       0.000000
      0.000010       0.000755       0.000000
      0.000038       0.000643       0.000000
     -0.000124       0.000346       0.000000
      0.000010       0.000755       0.000000
      0.000269       0.001158       0.000000
      0.000314       0.000954       0.000000
      0.000038       0.000643       0.000000
     -0.000124       0.000346       0.000000
      0.000038       0.000643       0.000000
      0.000057       0.000455       0.000000
     -0.000095       0.000260       0.000000
      0.000038       0.000643       0.000000
      0.000314       0.000954       0.000000
      0.000323       0.000683       0.000000
      0.000057       0.000455       0.000000
     -0.000257       0.000655       0.000000
     -0.000035       0.000292       0.000000
      0.000003       0.000155       0.000000
     -0.000201       0.000366       0.000000
     -0.000035       0.000292       0.000000
     -0.000028       0.000091       0.000000
     -0.000003       0.000051       0.000000
      0.000003       0.000155       0.000000
     -0.000201       0.000366       0.000000
      0.000003       0.000155       0.000000
      0.000000       0.000000       0.000000
      0.000000       0.000000       0.000000
      0.000003       0.000155       0.000000
     -0.000003       0.000051       0.000000
      0.000000       0.000000       0.000000
      0.000000       0.000000       0.000000
     -0.000028       0.000091       0.000000
     -0.000108       0.000100       0.000000
     -0.000067       0.000058       0.000000
     -0.000003       0.000051       0.000000
     -0.000108       0.000100       0.000000
     -0.000095       0.000260       0.000000
     -0.000054       0.000138       0.000000
     -0.000067       0.000058       0.000000
     -0.000003       0.000051       0.000000
     -0.000067       0.000058       0.000000
      0.000000       0.000000       0.000000
      0.000000       0.000000       0.000000
     -0.000067       0.000058       0.000000
     -0.000054       0.000138       0.000000
      0.000000       0.000000       0.000000
      0.000000       0.000000       0.000000
     -0.000095       0.000260       0.000000
      0.000057       0.000455       0.000000
      0.000049       0.000230       0.000000
     -0.000054       0.000138       0.000000
      0.000057       0.000455       0.000000
      0.000323       0.000683       0.000000
      0.000261       0.000377       0.000000
      0.000049       0.000230       0.000000
     -0.000054       0.000138       0.000000
      0.000049       0.000230       0.000000
      0.000000       0.000000       0.000000
      0.000000       0.000000       0.000000
      0.000049       0.000230       0.000000
      0.000261       0.000377       0.000000
      0.000000       0.000000       0.000000
      0.000000       0.000000       0.000000
     -0.000991       0.000738       0.000000
     -0.001347       0.001240       0.000000
     -0.001093       0.001515       0.000000
     -0.000620       0.000971       0.000000
     -0.000620       0.000971       0.000000
     -0.001093       0.001515       0.000000
     -0.000941       0.001567       0.000000
     -0.000445       0.000964       0.000000
     -0.001093       0.001515       0.000000
     -0.001692       0.002215       0.000000
     -0.001672       0.002343       0.000000