# vtk DataFile Version 2.0
time_10.vtk
ASCII
DATASET UNSTRUCTURED_GRID
POINTS   576 float
      0.458579       0.641421       0.000000
      0.497369       0.671659       0.000000
      0.438243       0.730363       0.000000
      0.382149       0.701184       0.000000
      0.497369       0.671659       0.000000
      0.545805       0.692517       0.000000
      0.506084       0.750000       0.000000
      0.438243       0.730363       0.000000
      0.382149       0.701184       0.000000
      0.438243       0.730363       0.000000
      0.380813       0.787383       0.000000
      0.305719       0.760948       0.000000
      0.438243       0.730363       0.000000
      0.506084       0.750000       0.000000
      0.468251       0.804752       0.000000
      0.380813       0.787383       0.000000
      0.545805       0.692517       0.000000
      0.600000       0.700000       0.000000
      0.581017       0.756950       0.000000
      0.506084       0.750000       0.000000
      0.600000       0.700000       0.000000
      0.654195       0.692517       0.000000
      0.656527       0.750000       0.000000
      0.581017       0.756950       0.000000
      0.506084       0.750000       0.000000
      0.581017       0.756950       0.000000
      0.563060       0.810819       0.000000
      0.468251       0.804752       0.000000
      0.581017       0.756950       0.000000
      0.656527       0.750000       0.000000
      0.658747       0.804752       0.000000
      0.563060       0.810819       0.000000
      0.654195       0.692517       0.000000
      0.702631       0.671659       0.000000
      0.725999       0.730363       0.000000
      0.656527       0.750000       0.000000
      0.702631       0.671659       0.000000
      0.741421       0.641421       0.000000
      0.784518       0.701184       0.000000
      0.725999       0.730363       0.000000
      0.656527       0.750000       0.000000
      0.725999       0.730363       0.000000
      0.748697       0.787383       0.000000
      0.658747       0.804752       0.000000
      0.725999       0.730363       0.000000
      0.784518       0.701184       0.000000
      0.827614       0.760948       0.000000
      0.748697       0.787383       0.000000
      0.305719       0.760948       0.000000
      0.380813       0.787383       0.000000
      0.325006       0.842791       0.000000
      0.229289       0.820711       0.000000
      0.380813       0.787383       0.000000
      0.468251       0.804752       0.000000
      0.432173       0.856962       0.000000
      0.325006       0.842791       0.000000
      0.229289       0.820711       0.000000
      0.325006       0.842791       0.000000
      0.270755       0.896655       0.000000
      0.152860       0.880474       0.000000
      0.325006       0.842791       0.000000
      0.432173       0.856962       0.000000
      0.397732       0.906804       0.000000
      0.270755       0.896655       0.000000
      0.468251       0.804752       0.000000
      0.563060       0.810819       0.000000
      0.546050       0.861851       0.000000
      0.432173       0.856962       0.000000
      0.563060       0.810819       0.000000
      0.658747       0.804752       0.000000
      0.660865       0.856962       0.000000
      0.546050       0.861851       0.000000
      0.432173       0.856962       0.000000
      0.546050       0.861851       0.000000
      0.529912       0.910264       0.000000
      0.397732       0.906804       0.000000
      0.546050       0.861851       0.000000
      0.660865       0.856962       0.000000
      0.662887       0.906804       0.000000
      0.529912       0.910264       0.000000
      0.658747       0.804752       0.000000
      0.748697       0.787383       0.000000
      0.770753       0.842791       0.000000
      0.660865       0.856962       0.000000
      0.748697       0.787383       0.000000
      0.827614       0.760948       0.000000
      0.870711       0.820711       0.000000
      0.770753       0.842791       0.000000
      0.660865       0.856962       0.000000
      0.770753       0.842791       0.000000
      0.792195       0.896655       0.000000
      0.662887       0.906804       0.000000
      0.770753       0.842791       0.000000
      0.870711       0.820711       0.000000
      0.913807       0.880474       0.000000
      0.792195       0.896655       0.000000
      0.152860       0.880474       0.000000
      0.270755       0.896655       0.000000
      0.217995       0.949038       0.000000
      0.076430       0.940237       0.000000
      0.270755       0.896655       0.000000
      0.397732       0.906804       0.000000
      0.364819       0.954435       0.000000
      0.217995       0.949038       0.000000
      0.076430       0.940237       0.000000
      0.217995       0.949038       0.000000
      0.166667       1.000000       0.000000
      0.000000       1.000000       0.000000
      0.217995       0.949038       0.000000
      0.364819       0.954435       0.000000
      0.333333       1.000000       0.000000
      0.166667       1.000000       0.000000
      0.397732       0.906804       0.000000
      0.529912       0.910264       0.000000
      0.514582       0.956255       0.000000
      0.364819       0.954435       0.000000
      0.529912       0.910264       0.000000
      0.662887       0.906804       0.000000
      0.664819       0.954435       0.000000
      0.514582       0.956255       0.000000
      0.364819       0.954435       0.000000
      0.514582       0.956255       0.000000
      0.500000       1.000000       0.000000
      0.333333       1.000000       0.000000
      0.514582       0.956255       0.000000
      0.664819       0.954435       0.000000
      0.666667       1.000000       0.000000
      0.500000       1.000000       0.000000
      0.662887       0.906804       0.000000
      0.792195       0.896655       0.000000
      0.813047       0.949038       0.000000
      0.664819       0.954435       0.000000
      0.792195       0.896655       0.000000
      0.913807       0.880474       0.000000
      0.956904       0.940237       0.000000
      0.813047       0.949038       0.000000
      0.664819       0.954435       0.000000
      0.813047       0.949038       0.000000
      0.833333       1.000000       0.000000
      0.666667       1.000000       0.000000
      0.813047       0.949038       0.000000
      0.956904       0.940237       0.000000
      1.000000       1.000000       0.000000
      0.833333       1.000000       0.000000
      0.458579       0.358579       0.000000
      0.428341       0.397369       0.000000
      0.351758       0.356122       0.000000
      0.382149       0.298816       0.000000
      0.428341       0.397369       0.000000
      0.407483       0.445805       0.000000
      0.331305       0.424779       0.000000
      0.351758       0.356122       0.000000
      0.382149       0.298816       0.000000
      0.351758       0.356122       0.000000
      0.277372       0.316058       0.000000
      0.305719       0.239052       0.000000
      0.351758       0.356122       0.000000
      0.331305       0.424779       0.000000
      0.258747       0.404752       0.000000
      0.277372       0.316058       0.000000
      0.407483       0.445805       0.000000
      0.400000       0.500000       0.000000
      0.324066       0.500000       0.000000
      0.331305       0.424779       0.000000
      0.400000       0.500000       0.000000
      0.407483       0.554195       0.000000
      0.331305       0.575221       0.000000
      0.324066       0.500000       0.000000
      0.331305       0.424779       0.000000
      0.324066       0.500000       0.000000
      0.252241       0.500000       0.000000
      0.258747       0.404752       0.000000
      0.324066       0.500000       0.000000
      0.331305       0.575221       0.000000
      0.258747       0.595248       0.000000
      0.252241       0.500000       0.000000
      0.407483       0.554195       0.000000
      0.428341       0.602631       0.000000
      0.351758       0.643878       0.000000
      0.331305       0.575221       0.000000
      0.428341       0.602631       0.000000
      0.458579       0.641421       0.000000
      0.382149       0.701184       0.000000
      0.351758       0.643878       0.000000
      0.331305       0.575221       0.000000
      0.351758       0.643878       0.000000
      0.277372       0.683942       0.000000
      0.258747       0.595248       0.000000
      0.351758       0.643878       0.000000
      0.382149       0.701184       0.000000
      0.305719       0.760948       0.000000
      0.277372       0.683942       0.000000
      0.305719       0.239052       0.000000
      0.277372       0.316058       0.000000
      0.205089       0.277126       0.000000
      0.229289       0.179289       0.000000
      0.277372       0.316058       0.000000
      0.258747       0.404752       0.000000
      0.189557       0.385654       0.000000
      0.205089       0.277126       0.000000
      0.229289       0.179289       0.000000
      0.205089       0.277126       0.000000
      0.134820       0.239280       0.000000
      0.152860       0.119526       0.000000
      0.205089       0.277126       0.000000
      0.189557       0.385654       0.000000
      0.123505       0.367423       0.000000
      0.134820       0.239280       0.000000
      0.258747       0.404752       0.000000
      0.252241       0.500000       0.000000
      0.184198       0.500000       0.000000
      0.189557       0.385654       0.000000
      0.252241       0.500000       0.000000
      0.258747       0.595248       0.000000
      0.189557       0.614346       0.000000
      0.184198       0.500000       0.000000
      0.189557       0.385654       0.000000
      0.184198       0.500000       0.000000
      0.119648       0.500000       0.000000
      0.123505       0.367423       0.000000
[...]
POINT_DATA   576
VECTORS U float 
      0.000374       0.004855       0.000000
      0.000193       0.005205       0.000000
      0.000032       0.004943       0.000000
      0.000248       0.004502       0.000000
      0.000193       0.005205       0.000000
      0.000002       0.005439       0.000000
     -0.000110       0.005338       0.000000
      0.000032       0.004943       0.000000
      0.000248       0.004502       0.000000
      0.000032       0.004943       0.000000
      0.000058       0.004920       0.000000
      0.000314       0.004552       0.000000
      0.000032       0.004943       0.000000
     -0.000110       0.005338       0.000000
     -0.000122       0.005296       0.000000
      0.000058       0.004920       0.000000
      0.000002       0.005439       0.000000
     -0.000197       0.005535       0.000000
     -0.000185       0.005559       0.000000
     -0.000110       0.005338       0.000000
     -0.000197       0.005535       0.000000
     -0.000414       0.005485       0.000000
     -0.000257       0.005520       0.000000
     -0.000185       0.005559       0.000000
     -0.000110       0.005338       0.000000
     -0.000185       0.005559       0.000000
     -0.000184       0.005556       0.000000
     -0.000122       0.005296       0.000000
     -0.000185       0.005559       0.000000
     -0.000257       0.005520       0.000000
     -0.000195       0.005546       0.000000
     -0.000184       0.005556       0.000000
     -0.000414       0.005485       0.000000
     -0.000658       0.005291       0.000000
     -0.000389       0.005227       0.000000
     -0.000257       0.005520       0.000000
     -0.000658       0.005291       0.000000
     -0.000924       0.004967       0.000000
     -0.000623       0.004776       0.000000
     -0.000389       0.005227       0.000000
     -0.000257       0.005520       0.000000
     -0.000389       0.005227       0.000000
     -0.000282       0.005250       0.000000
     -0.000195       0.005546       0.000000
     -0.000389       0.005227       0.000000
     -0.000623       0.004776       0.000000
     -0.000501       0.004807       0.000000
     -0.000282       0.005250       0.000000
      0.000314       0.004552       0.000000
      0.000058       0.004920       0.000000
      0.000120       0.005029       0.000000
      0.000411       0.004751       0.000000
      0.000058       0.004920       0.000000
     -0.000122       0.005296       0.000000
     -0.000102       0.005331       0.000000
      0.000120       0.005029       0.000000
      0.000411       0.004751       0.000000
      0.000120       0.005029       0.000000
      0.000195       0.005214       0.000000
      0.000525       0.005021       0.000000
      0.000120       0.005029       0.000000
     -0.000102       0.005331       0.000000
     -0.000071       0.005422       0.000000
      0.000195       0.005214       0.000000
     -0.000122       0.005296       0.000000
     -0.000184       0.005556       0.000000
     -0.000178       0.005572       0.000000
     -0.000102       0.005331       0.000000
     -0.000184       0.005556       0.000000
     -0.000195       0.005546       0.000000
     -0.000162       0.005581       0.000000
     -0.000178       0.005572       0.000000
     -0.000102       0.005331       0.000000
     -0.000178       0.005572       0.000000
     -0.000171       0.005607       0.000000
     -0.000071       0.005422       0.000000
     -0.000178       0.005572       0.000000
     -0.000162       0.005581       0.000000
     -0.000143       0.005624       0.000000
     -0.000171       0.005607       0.000000
     -0.000195       0.005546       0.000000
     -0.000282       0.005250       0.000000
     -0.000225       0.005320       0.000000
     -0.000162       0.005581       0.000000
     -0.000282       0.005250       0.000000
     -0.000501       0.004807       0.000000
     -0.000436       0.004924       0.000000
     -0.000225       0.005320       0.000000
     -0.000162       0.005581       0.000000
     -0.000225       0.005320       0.000000
     -0.000195       0.005423       0.000000
     -0.000143       0.005624       0.000000
     -0.000225       0.005320       0.000000
     -0.000436       0.004924       0.000000
     -0.000417       0.005110       0.000000
     -0.000195       0.005423       0.000000
      0.000525       0.005021       0.000000
      0.000195       0.005214       0.000000
      0.000288       0.005449       0.000000
      0.000671       0.005340       0.000000
      0.000195       0.005214       0.000000
     -0.000071       0.005422       0.000000
     -0.000033       0.005555       0.000000
      0.000288       0.005449       0.000000
      0.000671       0.005340       0.000000
      0.000288       0.005449       0.000000
      0.000406       0.005722       0.000000
      0.000872       0.005722       0.000000
      0.000288       0.005449       0.000000
     -0.000033       0.005555       0.000000
      0.000017       0.005722       0.000000
      0.000406       0.005722       0.000000
     -0.000071       0.005422       0.000000
     -0.000171       0.005607       0.000000
     -0.000166       0.005658       0.000000
     -0.000033       0.005555       0.000000
     -0.000171       0.005607       0.000000
     -0.000143       0.005624       0.000000
     -0.000132       0.005672       0.000000
     -0.000166       0.005658       0.000000
     -0.000033       0.005555       0.000000
     -0.000166       0.005658       0.000000
     -0.000163       0.005722       0.000000
      0.000017       0.005722       0.000000
     -0.000166       0.005658       0.000000
     -0.000132       0.005672       0.000000
     -0.000128       0.005722       0.000000
     -0.000163       0.005722       0.000000
     -0.000143       0.005624       0.000000
     -0.000195       0.005423       0.000000
     -0.000186       0.005557       0.000000
     -0.000132       0.005672       0.000000
     -0.000195       0.005423       0.000000
     -0.000417       0.005110       0.000000
     -0.000453       0.005376       0.000000
     -0.000186       0.005557       0.000000
     -0.000132       0.005672       0.000000
     -0.000186       0.005557       0.000000
     -0.000200       0.005722       0.000000
     -0.000128       0.005722       0.000000
     -0.000186       0.005557       0.000000
     -0.000453       0.005376       0.000000
     -0.000544       0.005722       0.000000
     -0.000200       0.005722       0.000000
      0.000325       0.000748       0.000000
      0.000495       0.001208       0.000000
      0.000484       0.001581       0.000000
      0.000197       0.001086       0.000000
      0.000495       0.001208       0.000000
      0.000627       0.001869       0.000000
      0.000801       0.002166       0.000000
      0.000484       0.001581       0.000000
      0.000197       0.001086       0.000000
      0.000484       0.001581       0.000000
      0.000552       0.001578       0.000000
      0.000237       0.001036       0.000000
      0.000484       0.001581       0.000000
      0.000801       0.002166       0.000000
      0.000904       0.002198       0.000000
      0.000552       0.001578       0.000000
      0.000627       0.001869       0.000000
      0.000670       0.002781       0.000000
      0.000967       0.002794       0.000000
      0.000801       0.002166       0.000000
      0.000670       0.002781       0.000000
      0.000653       0.003702       0.000000
      0.000834       0.003419       0.000000
      0.000967       0.002794       0.000000
      0.000801       0.002166       0.000000
      0.000967       0.002794       0.000000
      0.001085       0.002804       0.000000
      0.000904       0.002198       0.000000
      0.000967       0.002794       0.000000
      0.000834       0.003419       0.000000
      0.000939       0.003402       0.000000
      0.001085       0.002804       0.000000
      0.000653       0.003702       0.000000
      0.000540       0.004376       0.000000
      0.000535       0.004001       0.000000
      0.000834       0.003419       0.000000
      0.000540       0.004376       0.000000
      0.000374       0.004855       0.000000
      0.000248       0.004502       0.000000
      0.000535       0.004001       0.000000
      0.000834       0.003419       0.000000
      0.000535       0.004001       0.000000
      0.000615       0.004009       0.000000
      0.000939       0.003402       0.000000
      0.000535       0.004001       0.000000
      0.000248       0.004502       0.000000
      0.000314       0.004552       0.000000
      0.000615       0.004009       0.000000
      0.000237       0.001036       0.000000
      0.000552       0.001578       0.000000
      0.000630       0.001470       0.000000
      0.000279       0.000844       0.000000
      0.000552       0.001578       0.000000
      0.000904       0.002198       0.000000
      0.001007       0.002160       0.000000
      0.000630       0.001470       0.000000
      0.000279       0.000844       0.000000
      0.000630       0.001470       0.000000
      0.000701       0.001347       0.000000
      0.000288       0.000599       0.000000
      0.000630       0.001470       0.000000
      0.001007       0.002160       0.000000
      0.001111       0.002118       0.000000
      0.000701       0.001347       0.000000
      0.000904       0.002198       0.000000
      0.001085       0.002804       0.000000
      0.001194       0.002815       0.000000
      0.001007       0.002160       0.000000
      0.001085       0.002804       0.000000
      0.000939       0.003402       0.000000
      0.001045       0.003462       0.000000
      0.001194       0.002815       0.000000
      0.001007       0.002160       0.000000
      0.001194       0.002815       0.000000
      0.001311       0.002827       0.000000
      0.001111       0.002118       0.000000
      0.001194       0.002815       0.000000
      0.001045       0.003462       0.000000
      0.001153       0.003533       0.000000
      0.001311       0.002827       0.000000
      0.000939       0.003402       0.000000
      0.000615       0.004009       0.000000
      0.000711       0.004133       0.000000
      0.001045       0.003462       0.000000
      0.000615       0.004009       0.000000
      0.000314       0.004552       0.000000
      0.000411       0.004751       0.000000
      0.000711       0.004133       0.000000
      0.001045       0.003462       0.000000
      0.000711       0.004133       0.000000
      0.000809       0.004287       0.000000
      0.001153       0.003533       0.000000
      0.000711       0.004133       0.000000
      0.000411       0.004751       0.000000
      0.000525       0.005021       0.000000
      0.000809       0.004287       0.000000
      0.000288       0.000599       0.000000
      0.000701       0.001347       0.000000
      0.000764       0.001256       0.000000
      0.000233       0.000329       0.000000
      0.000701       0.001347       0.000000
      0.001111       0.002118       0.000000
      0.001211       0.002102       0.000000
      0.000764       0.001256       0.000000
      0.000233       0.000329       0.000000
      0.000764       0.001256       0.000000
      0.000818       0.001213       0.000000
      0.000000       0.000000       0.000000
      0.000764       0.001256       0.000000
      0.001211       0.002102       0.000000
      0.001300       0.002134       0.000000
      0.000818       0.001213       0.000000
      0.001111       0.002118       0.000000
      0.001311       0.002827       0.000000
      0.001430       0.002840       0.000000
      0.001211       0.002102       0.000000
      0.001311       0.002827       0.000000
      0.001153       0.003533       0.000000
      0.001260       0.003582       0.000000
      0.001430       0.002840       0.000000
      0.001211       0.002102       0.000000
      0.001430       0.002840       0.000000
      0.001539       0.002850       0.000000
      0.001300       0.002134       0.000000
      0.001430       0.002840       0.000000
      0.001260       0.003582       0.000000
      0.001360       0.003582       0.000000
      0.001539       0.002850       0.000000
      0.001153       0.003533       0.000000
      0.000809       0.004287       0.000000
      0.000908       0.004434       0.000000
      0.001260       0.003582       0.000000
      0.000809       0.004287       0.000000
      0.000525       0.005021       0.000000
      0.000671       0.005340       0.000000
      0.000908       0.004434       0.000000
      0.001260       0.003582       0.000000
      0.000908       0.004434       0.000000
      0.001021       0.004564       0.000000
      0.001360       0.003582       0.000000
      0.000908       0.004434       0.000000
      0.000671       0.005340       0.000000
      0.000872       0.005722       0.000000
      0.001021       0.004564       0.000000
     -0.000867       0.000701       0.000000
     -0.000597       0.000378       0.000000
     -0.000319       0.000448       0.000000
     -0.000551       0.000900       0.000000
     -0.000597       0.000378       0.000000
     -0.000362       0.000187       0.000000
     -0.000201       0.000159       0.000000
     -0.000319       0.000448       0.000000
     -0.000551       0.000900       0.000000
     -0.000319       0.000448       0.000000
     -0.000188       0.000432       0.000000
     -0.000406       0.000878       0.000000
     -0.000319       0.000448       0.000000
     -0.000201       0.000159       0.000000
     -0.000121       0.000143       0.000000
     -0.000188       0.000432       0.000000
     -0.000362       0.000187       0.000000
     -0.000172       0.000134       0.000000
     -0.000153       0.000115       0.000000
     -0.000201       0.000159       0.000000
     -0.000172       0.000134       0.000000
     -0.000008       0.000213       0.000000
     -0.000109       0.000308       0.000000
     -0.000153       0.000115       0.000000
     -0.000201       0.000159       0.000000
     -0.000153       0.000115       0.000000
     -0.000141       0.000124       0.000000
     -0.000121       0.000143       0.000000
     -0.000153       0.000115       0.000000
     -0.000109       0.000308       0.000000
     -0.000124       0.000348       0.000000
     -0.000141       0.000124       0.000000
     -0.000008       0.000213       0.000000
      0.000156       0.000422       0.000000
      0.000002       0.000667       0.000000
     -0.000109       0.000308       0.000000
      0.000156       0.000422       0.000000
      0.000325       0.000748       0.000000
      0.000197       0.001086       0.000000
      0.000002       0.000667       0.000000
     -0.000109       0.000308       0.000000
      0.000002       0.000667       0.000000
      0.000009       0.000686       0.000000
     -0.000124       0.000348       0.000000
      0.000002       0.000667       0.000000
      0.000197       0.001086       0.000000
      0.000237       0.001036       0.000000
      0.000009       0.000686       0.000000
     -0.000406       0.000878       0.000000
     -0.000188       0.000432       0.000000
     -0.000101       0.000367       0.000000
     -0.000306       0.000767       0.000000
     -0.000188       0.000432       0.000000
     -0.000121       0.000143       0.000000
     -0.000067       0.000120       0.000000
     -0.000101       0.000367       0.000000
     -0.000306       0.000767       0.000000
     -0.000101       0.000367       0.000000
     -0.000038       0.000267       0.000000
     -0.000241       0.000585       0.000000
     -0.000101       0.000367       0.000000
     -0.000067       0.000120       0.000000
     -0.000027       0.000088       0.000000
     -0.000038       0.000267       0.000000
     -0.000121       0.000143       0.000000
     -0.000141       0.000124       0.000000
     -0.000123       0.000118       0.000000
     -0.000067       0.000120       0.000000
     -0.000141       0.000124       0.000000
     -0.000124       0.000348       0.000000
     -0.000110       0.000318       0.000000
     -0.000123       0.000118       0.000000
     -0.000067       0.000120       0.000000
     -0.000123       0.000118       0.000000
     -0.000097       0.000095       0.000000
     -0.000027       0.000088       0.000000
     -0.000123       0.000118       0.000000
     -0.000110       0.000318       0.000000
     -0.000083       0.000238       0.000000
     -0.000097       0.000095       0.000000
     -0.000124       0.000348       0.000000
      0.000009       0.000686       0.000000
      0.000037       0.000580       0.000000
     -0.000110       0.000318       0.000000
      0.000009       0.000686       0.000000
      0.000237       0.001036       0.000000
      0.000279       0.000844       0.000000
      0.000037       0.000580       0.000000
     -0.000110       0.000318       0.000000
      0.000037       0.000580       0.000000
      0.000054       0.000407       0.000000
     -0.000083       0.000238       0.000000
      0.000037       0.000580       0.000000
      0.000279       0.000844       0.000000
      0.000288       0.000599       0.000000
      0.000054       0.000407       0.000000
     -0.000241       0.000585       0.000000
     -0.000038       0.000267       0.000000
     -0.000002       0.000142       0.000000
     -0.000185       0.000329       0.000000
     -0.000038       0.000267       0.000000
     -0.000027       0.000088       0.000000
     -0.000004       0.000049       0.000000
     -0.000002       0.000142       0.000000
     -0.000185       0.000329       0.000000
     -0.000002       0.000142       0.000000
      0.000000       0.000000       0.000000
      0.000000       0.000000       0.000000
     -0.000002       0.000142       0.000000
     -0.000004       0.000049       0.000000
      0.000000       0.000000       0.000000
      0.000000       0.000000       0.000000
     -0.000027       0.000088       0.000000
     -0.000097       0.000095       0.000000
     -0.000059       0.000055       0.000000
     -0.000004       0.000049       0.000000
     -0.000097       0.000095       0.000000
     -0.000083       0.000238       0.000000
     -0.000046       0.000126       0.000000
     -0.000059       0.000055       0.000000
     -0.000004       0.000049       0.000000
     -0.000059       0.000055       0.000000
      0.000000       0.000000       0.000000
      0.000000       0.000000       0.000000
     -0.000059       0.000055       0.000000
     -0.000046       0.000126       0.000000
      0.000000       0.000000       0.000000
      0.000000       0.000000       0.000000
     -0.000083       0.000238       0.000000
      0.000054       0.000407       0.000000
      0.000047       0.000205       0.000000
     -0.000046       0.000126       0.000000
      0.000054       0.000407       0.000000
      0.000288       0.000599       0.000000
      0.000233       0.000329       0.000000
      0.000047       0.000205       0.000000
     -0.000046       0.000126       0.000000
      0.000047       0.000205       0.000000
      0.000000       0.000000       0.000000
      0.000000       0.000000       0.000000
      0.000047       0.000205       0.000000
      0.000233       0.000329       0.000000
      0.000000       0.000000       0.000000
      0.000000       0.000000       0.000000
     -0.000867       0.000701       0.000000
     -0.001162       0.001171       0.000000
     -0.000960       0.001394       0.000000
     -0.000551       0.000900       0.000000
     -0.001162       0.001171       0.000000
     -0.001420       0.001854       0.000000
     -0.001458       0.002025       0.000000
     -0.000960       0.001394       0.000000
     -0.000551       0.000900       0.000000
     -0.000960       0.001394       0.000000
     -0.000838       0.001417       0.000000