# vtk DataFile Version 2.0
time_10.vtk
ASCII
DATASET UNSTRUCTURED_GRID
POINTS   792 float
      0.458579       0.641421       0.000000
      0.497369       0.671659       0.000000
      0.438243       0.730363       0.000000
      0.382149       0.701184       0.000000
      0.497369       0.671659       0.000000
      0.545805       0.692517       0.000000
      0.506084       0.750000       0.000000
      0.438243       0.730363       0.000000
      0.382149       0.701184       0.000000
      0.438243       0.730363       0.000000
      0.380813       0.787383       0.000000
      0.305719       0.760948       0.000000
      0.438243       0.730363       0.000000
      0.506084       0.750000       0.000000
      0.468251       0.804752       0.000000
      0.380813       0.787383       0.000000
      0.545805       0.692517       0.000000
      0.600000       0.700000       0.000000
      0.581017       0.756950       0.000000
      0.506084       0.750000       0.000000
      0.600000       0.700000       0.000000
      0.654195       0.692517       0.000000
      0.656527       0.750000       0.000000
      0.581017       0.756950       0.000000
      0.506084       0.750000       0.000000
      0.581017       0.756950       0.000000
      0.563060       0.810819       0.000000
      0.468251       0.804752       0.000000
      0.581017       0.756950       0.000000
      0.656527       0.750000       0.000000
      0.658747       0.804752       0.000000
      0.563060       0.810819       0.000000
      0.654195       0.692517       0.000000
      0.702631       0.671659       0.000000
      0.725999       0.730363       0.000000
      0.656527       0.750000       0.000000
      0.702631       0.671659       0.000000
      0.741421       0.641421       0.000000
      0.784518       0.701184       0.000000
      0.725999       0.730363       0.000000
      0.656527       0.750000       0.000000
      0.725999       0.730363       0.000000
      0.748697       0.787383       0.000000
      0.658747       0.804752       0.000000
      0.725999       0.730363       0.000000
      0.784518       0.701184       0.000000
      0.827614       0.760948       0.000000
      0.748697       0.787383       0.000000
      0.305719       0.760948       0.000000
      0.380813       0.787383       0.000000
      0.325006       0.842791       0.000000
      0.229289       0.820711       0.000000
      0.380813       0.787383       0.000000
      0.468251       0.804752       0.000000
      0.432173       0.856962       0.000000
      0.325006       0.842791       0.000000
      0.229289       0.820711       0.000000
      0.325006       0.842791       0.000000
      0.270755       0.896655       0.000000
      0.152860       0.880474       0.000000
      0.325006       0.842791       0.000000
      0.432173       0.856962       0.000000
      0.397732       0.906804       0.000000
      0.270755       0.896655       0.000000
      0.468251       0.804752       0.000000
      0.563060       0.810819       0.000000
      0.546050       0.861851       0.000000
      0.432173       0.856962       0.000000
      0.563060       0.810819       0.000000
      0.658747       0.804752       0.000000
      0.660865       0.856962       0.000000
      0.546050       0.861851       0.000000
      0.432173       0.856962       0.000000
      0.546050       0.861851       0.000000
      0.529912       0.910264       0.000000
      0.397732       0.906804       0.000000
      0.546050       0.861851       0.000000
      0.660865       0.856962       0.000000
      0.662887       0.906804       0.000000
      0.529912       0.910264       0.000000
      0.658747       0.804752       0.000000
      0.748697       0.787383       0.000000
      0.770753       0.842791       0.000000
      0.660865       0.856962       0.000000
      0.748697       0.787383       0.000000
      0.827614       0.760948       0.000000
      0.870711       0.820711       0.000000
      0.770753       0.842791       0.000000
      0.660865       0.856962       0.000000
      0.770753       0.842791       0.000000
      0.792195       0.896655       0.000000
      0.662887       0.906804       0.000000
      0.770753       0.842791       0.000000
      0.870711       0.820711       0.000000
      0.913807       0.880474       0.000000
      0.792195       0.896655       0.000000
      0.152860       0.880474       0.000000
      0.270755       0.896655       0.000000
      0.217995       0.949038       0.000000
      0.076430       0.940237       0.000000
      0.270755       0.896655       0.000000
      0.397732       0.906804       0.000000
      0.364819       0.954435       0.000000
      0.217995       0.949038       0.000000
      0.076430       0.940237       0.000000
      0.217995       0.949038       0.000000
      0.166667       1.000000       0.000000
      0.000000       1.000000       0.000000
      0.217995       0.949038       0.000000
      0.364819       0.954435       0.000000
      0.333333       1.000000       0.000000
      0.166667       1.000000       0.000000
      0.397732       0.906804       0.000000
      0.529912       0.910264       0.000000
      0.514582       0.956255       0.000000
      0.364819       0.954435       0.000000
      0.529912       0.910264       0.000000
      0.662887       0.906804       0.000000
      0.664819       0.954435       0.000000
      0.514582       0.956255       0.000000
      0.364819       0.954435       0.000000
      0.514582       0.956255       0.000000
      0.500000       1.000000       0.000000
      0.333333       1.000000       0.000000
      0.514582       0.956255       0.000000
      0.664819       0.954435       0.000000
      0.666667       1.000000       0.000000
      0.500000       1.000000       0.000000
      0.662887       0.906804       0.000000
      0.792195       0.896655       0.000000
      0.813047       0.949038       0.000000
      0.664819       0.954435       0.000000
      0.792195       0.896655       0.000000
      0.913807       0.880474       0.000000
      0.956904       0.940237       0.000000
      0.813047       0.949038       0.000000
      0.664819       0.954435       0.000000
      0.813047       0.949038       0.000000
      0.833333       1.000000       0.000000
      0.666667       1.000000       0.000000
      0.813047       0.949038       0.000000
      0.956904       0.940237       0.000000
      1.000000       1.000000       0.000000
      0.833333       1.000000       0.000000
      0.458579       0.358579       0.000000
      0.428341       0.397369       0.000000
      0.351758       0.356122       0.000000
      0.382149       0.298816       0.000000
      0.428341       0.397369       0.000000
      0.407483       0.445805       0.000000
      0.331305       0.424779       0.000000
      0.351758       0.356122       0.000000
      0.382149       0.298816       0.000000
      0.351758       0.356122       0.000000
      0.277372       0.316058       0.000000
      0.305719       0.239052       0.000000
      0.351758       0.356122       0.000000
      0.331305       0.424779       0.000000
      0.258747       0.404752       0.000000
      0.277372       0.316058       0.000000
      0.407483       0.445805       0.000000
      0.400000       0.500000       0.000000
      0.324066       0.500000       0.000000
      0.331305       0.424779       0.000000
      0.400000       0.500000       0.000000
      0.407483       0.554195       0.000000
      0.331305       0.575221       0.000000
      0.324066       0.500000       0.000000
      0.331305       0.424779       0.000000
      0.324066       0.500000       0.000000
      0.252241       0.500000       0.000000
      0.258747       0.404752       0.000000
      0.324066       0.500000       0.000000
      0.331305       0.575221       0.000000
      0.258747       0.595248       0.000000
      0.252241       0.500000       0.000000
      0.407483       0.554195       0.000000
      0.428341       0.602631       0.000000
      0.351758       0.643878       0.000000
      0.331305       0.575221       0.000000
      0.428341       0.602631       0.000000
      0.458579       0.641421       0.000000
      0.382149       0.701184       0.000000
      0.351758       0.643878       0.000000
      0.331305       0.575221       0.000000
      0.351758       0.643878       0.000000
      0.277372       0.683942       0.000000
      0.258747       0.595248       0.000000
      0.351758       0.643878       0.000000
      0.382149       0.701184       0.000000
      0.305719       0.760948       0.000000
      0.277372       0.683942       0.000000
      0.305719       0.239052       0.000000
      0.277372       0.316058       0.000000
      0.205089       0.277126       0.000000
      0.229289       0.179289       0.000000
      0.277372       0.316058       0.000000
      0.258747       0.404752       0.000000
      0.189557       0.385654       0.000000
      0.205089       0.277126       0.000000
      0.229289       0.179289       0.000000
      0.205089       0.277126       0.000000
      0.134820       0.239280       0.000000
      0.152860       0.119526       0.000000
      0.205089       0.277126       0.000000
      0.189557       0.385654       0.000000
      0.123505       0.367423       0.000000
      0.134820       0.239280       0.000000
      0.258747       0.404752       0.000000
      0.252241       0.500000       0.000000
      0.184198       0.500000       0.000000
      0.189557       0.385654       0.000000
      0.252241       0.500000       0.000000
      0.258747       0.595248       0.000000
      0.189557       0.614346       0.000000
      0.184198       0.500000       0.000000
      0.189557       0.385654       0.000000
      0.184198       0.500000       0.000000
      0.119648       0.500000       0.000000
      0.123505       0.367423       0.000000
[...]
POINT_DATA   792
VECTORS U float 
      0.000432       0.005612       0.000000
      0.000222       0.005993       0.000000
      0.000038       0.005701       0.000000
      0.000279       0.005206       0.000000
      0.000222       0.005993       0.000000
      0.000005       0.006248       0.000000
     -0.000120       0.006136       0.000000
      0.000038       0.005701       0.000000
      0.000279       0.005206       0.000000
      0.000038       0.005701       0.000000
      0.000059       0.005666       0.000000
      0.000347       0.005242       0.000000
      0.000038       0.005701       0.000000
     -0.000120       0.006136       0.000000
     -0.000138       0.006087       0.000000
      0.000059       0.005666       0.000000
      0.000005       0.006248       0.000000
     -0.000217       0.006352       0.000000
     -0.000204       0.006379       0.000000
     -0.000120       0.006136       0.000000
     -0.000217       0.006352       0.000000
     -0.000460       0.006301       0.000000
     -0.000286       0.006340       0.000000
     -0.000204       0.006379       0.000000
     -0.000120       0.006136       0.000000
     -0.000204       0.006379       0.000000
     -0.000204       0.006375       0.000000
     -0.000138       0.006087       0.000000
     -0.000204       0.006379       0.000000
     -0.000286       0.006340       0.000000
     -0.000214       0.006365       0.000000
     -0.000204       0.006375       0.000000
     -0.000460       0.006301       0.000000
     -0.000738       0.006093       0.000000
     -0.000434       0.006021       0.000000
     -0.000286       0.006340       0.000000
     -0.000738       0.006093       0.000000
     -0.001044       0.005746       0.000000
     -0.000694       0.005524       0.000000
     -0.000434       0.006021       0.000000
     -0.000286       0.006340       0.000000
     -0.000434       0.006021       0.000000
     -0.000307       0.006040       0.000000
     -0.000214       0.006365       0.000000
     -0.000434       0.006021       0.000000
     -0.000694       0.005524       0.000000
     -0.000547       0.005543       0.000000
     -0.000307       0.006040       0.000000
      0.000347       0.005242       0.000000
      0.000059       0.005666       0.000000
      0.000122       0.005777       0.000000
      0.000451       0.005450       0.000000
      0.000059       0.005666       0.000000
     -0.000138       0.006087       0.000000
     -0.000120       0.006120       0.000000
      0.000122       0.005777       0.000000
      0.000451       0.005450       0.000000
      0.000122       0.005777       0.000000
      0.000201       0.005976       0.000000
      0.000573       0.005745       0.000000
      0.000122       0.005777       0.000000
     -0.000120       0.006120       0.000000
     -0.000090       0.006216       0.000000
      0.000201       0.005976       0.000000
     -0.000138       0.006087       0.000000
     -0.000204       0.006375       0.000000
     -0.000199       0.006388       0.000000
     -0.000120       0.006120       0.000000
     -0.000204       0.006375       0.000000
     -0.000214       0.006365       0.000000
     -0.000176       0.006399       0.000000
     -0.000199       0.006388       0.000000
     -0.000120       0.006120       0.000000
     -0.000199       0.006388       0.000000
     -0.000193       0.006423       0.000000
     -0.000090       0.006216       0.000000
     -0.000199       0.006388       0.000000
     -0.000176       0.006399       0.000000
     -0.000153       0.006442       0.000000
     -0.000193       0.006423       0.000000
     -0.000214       0.006365       0.000000
     -0.000307       0.006040       0.000000
     -0.000239       0.006110       0.000000
     -0.000176       0.006399       0.000000
     -0.000307       0.006040       0.000000
     -0.000547       0.005543       0.000000
     -0.000467       0.005660       0.000000
     -0.000239       0.006110       0.000000
     -0.000176       0.006399       0.000000
     -0.000239       0.006110       0.000000
     -0.000202       0.006218       0.000000
     -0.000153       0.006442       0.000000
     -0.000239       0.006110       0.000000
     -0.000467       0.005660       0.000000
     -0.000444       0.005861       0.000000
     -0.000202       0.006218       0.000000
      0.000573       0.005745       0.000000
      0.000201       0.005976       0.000000
      0.000302       0.006236       0.000000
      0.000737       0.006102       0.000000
      0.000201       0.005976       0.000000
     -0.000090       0.006216       0.000000
     -0.000051       0.006359       0.000000
      0.000302       0.006236       0.000000
      0.000737       0.006102       0.000000
      0.000302       0.006236       0.000000
      0.000433       0.006542       0.000000
      0.000968       0.006542       0.000000
      0.000302       0.006236       0.000000
     -0.000051       0.006359       0.000000
      0.000003       0.006542       0.000000
      0.000433       0.006542       0.000000
     -0.000090       0.006216       0.000000
     -0.000193       0.006423       0.000000
     -0.000189       0.006475       0.000000
     -0.000051       0.006359       0.000000
     -0.000193       0.006423       0.000000
     -0.000153       0.006442       0.000000
     -0.000141       0.006491       0.000000
     -0.000189       0.006475       0.000000
     -0.000051       0.006359       0.000000
     -0.000189       0.006475       0.000000
     -0.000186       0.006542       0.000000
      0.000003       0.006542       0.000000
     -0.000189       0.006475       0.000000
     -0.000141       0.006491       0.000000
     -0.000137       0.006542       0.000000
     -0.000186       0.006542       0.000000
     -0.000153       0.006442       0.000000
     -0.000202       0.006218       0.000000
     -0.000191       0.006362       0.000000
     -0.000141       0.006491       0.000000
     -0.000202       0.006218       0.000000
     -0.000444       0.005861       0.000000
     -0.000485       0.006156       0.000000
     -0.000191       0.006362       0.000000
     -0.000141       0.006491       0.000000
     -0.000191       0.006362       0.000000
     -0.000205       0.006542       0.000000
     -0.000137       0.006542       0.000000
     -0.000191       0.006362       0.000000
     -0.000485       0.006156       0.000000
     -0.000586       0.006542       0.000000
     -0.000205       0.006542       0.000000
      0.000379       0.000803       0.000000
      0.000582       0.001302       0.000000
      0.000555       0.001746       0.000000
      0.000227       0.001189       0.000000
      0.000582       0.001302       0.000000
      0.000741       0.002026       0.000000
      0.000934       0.002426       0.000000
      0.000555       0.001746       0.000000
      0.000227       0.001189       0.000000
      0.000555       0.001746       0.000000
      0.000632       0.001771       0.000000
      0.000266       0.001149       0.000000
      0.000555       0.001746       0.000000
      0.000934       0.002426       0.000000
      0.001055       0.002496       0.000000
      0.000632       0.001771       0.000000
      0.000741       0.002026       0.000000
      0.000763       0.003179       0.000000
      0.001153       0.003196       0.000000
      0.000934       0.002426       0.000000
      0.000763       0.003179       0.000000
      0.000770       0.004349       0.000000
      0.000971       0.003962       0.000000
      0.001153       0.003196       0.000000
      0.000934       0.002426       0.000000
      0.001153       0.003196       0.000000
      0.001284       0.003206       0.000000
      0.001055       0.002496       0.000000
      0.001153       0.003196       0.000000
      0.000971       0.003962       0.000000
      0.001093       0.003907       0.000000
      0.001284       0.003206       0.000000
      0.000770       0.004349       0.000000
      0.000631       0.005090       0.000000
      0.000610       0.004640       0.000000
      0.000971       0.003962       0.000000
      0.000631       0.005090       0.000000
      0.000432       0.005612       0.000000
      0.000279       0.005206       0.000000
      0.000610       0.004640       0.000000
      0.000971       0.003962       0.000000
      0.000610       0.004640       0.000000
      0.000698       0.004619       0.000000
      0.001093       0.003907       0.000000
      0.000610       0.004640       0.000000
      0.000279       0.005206       0.000000
      0.000347       0.005242       0.000000
      0.000698       0.004619       0.000000
      0.000266       0.001149       0.000000
      0.000632       0.001771       0.000000
      0.000721       0.001664       0.000000
      0.000312       0.000945       0.000000
      0.000632       0.001771       0.000000
      0.001055       0.002496       0.000000
      0.001173       0.002464       0.000000
      0.000721       0.001664       0.000000
      0.000312       0.000945       0.000000
      0.000721       0.001664       0.000000
      0.000801       0.001535       0.000000
      0.000320       0.000676       0.000000
      0.000721       0.001664       0.000000
      0.001173       0.002464       0.000000
      0.001292       0.002422       0.000000
      0.000801       0.001535       0.000000
      0.001055       0.002496       0.000000
      0.001284       0.003206       0.000000
      0.001403       0.003217       0.000000
      0.001173       0.002464       0.000000
      0.001284       0.003206       0.000000
      0.001093       0.003907       0.000000
      0.001213       0.003961       0.000000
      0.001403       0.003217       0.000000
      0.001173       0.002464       0.000000
      0.001403       0.003217       0.000000
      0.001533       0.003230       0.000000
      0.001292       0.002422       0.000000
      0.001403       0.003217       0.000000
      0.001213       0.003961       0.000000
      0.001336       0.004033       0.000000
      0.001533       0.003230       0.000000
      0.001093       0.003907       0.000000
      0.000698       0.004619       0.000000
      0.000807       0.004741       0.000000
      0.001213       0.003961       0.000000
      0.000698       0.004619       0.000000
      0.000347       0.005242       0.000000
      0.000451       0.005450       0.000000
      0.000807       0.004741       0.000000
      0.001213       0.003961       0.000000
      0.000807       0.004741       0.000000
      0.000914       0.004902       0.000000
      0.001336       0.004033       0.000000
      0.000807       0.004741       0.000000
      0.000451       0.005450       0.000000
      0.000573       0.005745       0.000000
      0.000914       0.004902       0.000000
      0.000320       0.000676       0.000000
      0.000801       0.001535       0.000000
      0.000871       0.001439       0.000000
      0.000259       0.000373       0.000000
      0.000801       0.001535       0.000000
      0.001292       0.002422       0.000000
      0.001403       0.002410       0.000000
      0.000871       0.001439       0.000000
      0.000259       0.000373       0.000000
      0.000871       0.001439       0.000000
      0.000932       0.001396       0.000000
      0.000000       0.000000       0.000000
      0.000871       0.001439       0.000000
      0.001403       0.002410       0.000000
      0.001501       0.002454       0.000000
      0.000932       0.001396       0.000000
      0.001292       0.002422       0.000000
      0.001533       0.003230       0.000000
      0.001666       0.003243       0.000000
      0.001403       0.002410       0.000000
      0.001533       0.003230       0.000000
      0.001336       0.004033       0.000000
      0.001454       0.004080       0.000000
      0.001666       0.003243       0.000000
      0.001403       0.002410       0.000000
      0.001666       0.003243       0.000000
      0.001787       0.003254       0.000000
      0.001501       0.002454       0.000000
      0.001666       0.003243       0.000000
      0.001454       0.004080       0.000000
      0.001564       0.004070       0.000000
      0.001787       0.003254       0.000000
      0.001336       0.004033       0.000000
      0.000914       0.004902       0.000000
      0.001023       0.005058       0.000000
      0.001454       0.004080       0.000000
      0.000914       0.004902       0.000000
      0.000573       0.005745       0.000000
      0.000737       0.006102       0.000000
      0.001023       0.005058       0.000000
      0.001454       0.004080       0.000000
      0.001023       0.005058       0.000000
      0.001149       0.005198       0.000000
      0.001564       0.004070       0.000000
      0.001023       0.005058       0.000000
      0.000737       0.006102       0.000000
      0.000968       0.006542       0.000000
      0.001149       0.005198       0.000000
     -0.000981       0.000740       0.000000
     -0.000669       0.000395       0.000000
     -0.000356       0.000472       0.000000
     -0.000615       0.000970       0.000000
     -0.000669       0.000395       0.000000
     -0.000403       0.000190       0.000000
     -0.000223       0.000160       0.000000
     -0.000356       0.000472       0.000000
     -0.000615       0.000970       0.000000
     -0.000356       0.000472       0.000000
     -0.000205       0.000461       0.000000
     -0.000443       0.000960       0.000000
     -0.000356       0.000472       0.000000
     -0.000223       0.000160       0.000000
     -0.000132       0.000145       0.000000
     -0.000205       0.000461       0.000000
     -0.000403       0.000190       0.000000
     -0.000188       0.000135       0.000000
     -0.000167       0.000115       0.000000
     -0.000223       0.000160       0.000000
     -0.000188       0.000135       0.000000
     -0.000003       0.000223       0.000000
     -0.000116       0.000326       0.000000
     -0.000167       0.000115       0.000000
     -0.000223       0.000160       0.000000
     -0.000167       0.000115       0.000000
     -0.000155       0.000126       0.000000
     -0.000132       0.000145       0.000000
     -0.000167       0.000115       0.000000
     -0.000116       0.000326       0.000000
     -0.000136       0.000373       0.000000
     -0.000155       0.000126       0.000000
     -0.000003       0.000223       0.000000
      0.000184       0.000449       0.000000
      0.000008       0.000721       0.000000
     -0.000116       0.000326       0.000000
      0.000184       0.000449       0.000000
      0.000379       0.000803       0.000000
      0.000227       0.001189       0.000000
      0.000008       0.000721       0.000000
     -0.000116       0.000326       0.000000
      0.000008       0.000721       0.000000
      0.000010       0.000750       0.000000
     -0.000136       0.000373       0.000000
      0.000008       0.000721       0.000000
      0.000227       0.001189       0.000000
      0.000266       0.001149       0.000000
      0.000010       0.000750       0.000000
     -0.000443       0.000960       0.000000
     -0.000205       0.000461       0.000000
     -0.000105       0.000396       0.000000
     -0.000328       0.000848       0.000000
     -0.000205       0.000461       0.000000
     -0.000132       0.000145       0.000000
     -0.000071       0.000123       0.000000
     -0.000105       0.000396       0.000000
     -0.000328       0.000848       0.000000
     -0.000105       0.000396       0.000000
     -0.000036       0.000291       0.000000
     -0.000257       0.000650       0.000000
     -0.000105       0.000396       0.000000
     -0.000071       0.000123       0.000000
     -0.000028       0.000091       0.000000
     -0.000036       0.000291       0.000000
     -0.000132       0.000145       0.000000
     -0.000155       0.000126       0.000000
     -0.000135       0.000123       0.000000
     -0.000071       0.000123       0.000000
     -0.000155       0.000126       0.000000
     -0.000136       0.000373       0.000000
     -0.000123       0.000344       0.000000
     -0.000135       0.000123       0.000000
     -0.000071       0.000123       0.000000
     -0.000135       0.000123       0.000000
     -0.000107       0.000100       0.000000
     -0.000028       0.000091       0.000000
     -0.000135       0.000123       0.000000
     -0.000123       0.000344       0.000000
     -0.000094       0.000259       0.000000
     -0.000107       0.000100       0.000000
     -0.000136       0.000373       0.000000
      0.000010       0.000750       0.000000
      0.000038       0.000638       0.000000
     -0.000123       0.000344       0.000000
      0.000010       0.000750       0.000000
      0.000266       0.001149       0.000000
      0.000312       0.000945       0.000000
      0.000038       0.000638       0.000000
     -0.000123       0.000344       0.000000
      0.000038       0.000638       0.000000
      0.000057       0.000451       0.000000
     -0.000094       0.000259       0.000000
      0.000038       0.000638       0.000000
      0.000312       0.000945       0.000000
      0.000320       0.000676       0.000000
      0.000057       0.000451       0.000000
     -0.000257       0.000650       0.000000
     -0.000036       0.000291       0.000000
      0.000002       0.000155       0.000000
     -0.000200       0.000364       0.000000
     -0.000036       0.000291       0.000000
     -0.000028       0.000091       0.000000
     -0.000003       0.000051       0.000000
      0.000002       0.000155       0.000000
     -0.000200       0.000364       0.000000
      0.000002       0.000155       0.000000
      0.000000       0.000000       0.000000
      0.000000       0.000000       0.000000
      0.000002       0.000155       0.000000
     -0.000003       0.000051       0.000000
      0.000000       0.000000       0.000000
      0.000000       0.000000       0.000000
     -0.000028       0.000091       0.000000
     -0.000107       0.000100       0.000000
     -0.000066       0.000058       0.000000
     -0.000003       0.000051       0.000000
     -0.000107       0.000100       0.000000
     -0.000094       0.000259       0.000000
     -0.000053       0.000138       0.000000
     -0.000066       0.000058       0.000000
     -0.000003       0.000051       0.000000
     -0.000066       0.000058       0.000000
      0.000000       0.000000       0.000000
      0.000000       0.000000       0.000000
     -0.000066       0.000058       0.000000
     -0.000053       0.000138       0.000000
      0.000000       0.000000       0.000000
      0.000000       0.000000       0.000000
     -0.000094       0.000259       0.000000
      0.000057       0.000451       0.000000
      0.000050       0.000228       0.000000
     -0.000053       0.000138       0.000000
      0.000057       0.000451       0.000000
      0.000320       0.000676       0.000000
      0.000259       0.000373       0.000000
      0.000050       0.000228       0.000000
     -0.000053       0.000138       0.000000
      0.000050       0.000228       0.000000
      0.000000       0.000000       0.000000
      0.000000       0.000000       0.000000
      0.000050       0.000228       0.000000
      0.000259       0.000373       0.000000
      0.000000       0.000000       0.000000
      0.000000       0.000000       0.000000
     -0.000981       0.000740       0.000000
     -0.001330       0.001243       0.000000
     -0.001083       0.001512       0.000000
     -0.000615       0.000970       0.000000
     -0.000615       0.000970       0.000000
     -0.001083       0.001512       0.000000
     -0.000934       0.001560       0.000000
     -0.000443       0.000960       0.000000
     -0.001083       0.001512       0.000000
     -0.001671       0.002212       0.000000
     -0.001653       0.002329       0.000000