# vtk DataFile Version 2.0
time_10.vtk
ASCII
DATASET UNSTRUCTURED_GRID
POINTS   576 float
      0.458579       0.641421       0.000000
      0.497369       0.671659       0.000000
      0.438243       0.730363       0.000000
      0.382149       0.701184       0.000000
      0.497369       0.671659       0.000000
      0.545805       0.692517       0.000000
      0.506084       0.750000       0.000000
      0.438243       0.730363       0.000000
      0.382149       0.701184       0.000000
      0.438243       0.730363       0.000000
      0.380813       0.787383       0.000000
      0.305719       0.760948       0.000000
      0.438243       0.730363       0.000000
      0.506084       0.750000       0.000000
      0.468251       0.804752       0.000000
      0.380813       0.787383       0.000000
      0.545805       0.692517       0.000000
      0.600000       0.700000       0.000000
      0.581017       0.756950       0.000000
      0.506084       0.750000       0.000000
      0.600000       0.700000       0.000000
      0.654195       0.692517       0.000000
      0.656527       0.750000       0.000000
      0.581017       0.756950       0.000000
      0.506084       0.750000       0.000000
      0.581017       0.756950       0.000000
      0.563060       0.810819       0.000000
      0.468251       0.804752       0.000000
      0.581017       0.756950       0.000000
      0.656527       0.750000       0.000000
      0.658747       0.804752       0.000000
      0.563060       0.810819       0.000000
      0.654195       0.692517       0.000000
      0.702631       0.671659       0.000000
      0.725999       0.730363       0.000000
      0.656527       0.750000       0.000000
      0.702631       0.671659       0.000000
      0.741421       0.641421       0.000000
      0.784518       0.701184       0.000000
      0.725999       0.730363       0.000000
      0.656527       0.750000       0.000000
      0.725999       0.730363       0.000000
      0.748697       0.787383       0.000000
      0.658747       0.804752       0.000000
      0.725999       0.730363       0.000000
      0.784518       0.701184       0.000000
      0.827614       0.760948       0.000000
      0.748697       0.787383       0.000000
      0.305719       0.760948       0.000000
      0.380813       0.787383       0.000000
      0.325006       0.842791       0.000000
      0.229289       0.820711       0.000000
      0.380813       0.787383       0.000000
      0.468251       0.804752       0.000000
      0.432173       0.856962       0.000000
      0.325006       0.842791       0.000000
      0.229289       0.820711       0.000000
      0.325006       0.842791       0.000000
      0.270755       0.896655       0.000000
      0.152860       0.880474       0.000000
      0.325006       0.842791       0.000000
      0.432173       0.856962       0.000000
      0.397732       0.906804       0.000000
      0.270755       0.896655       0.000000
      0.468251       0.804752       0.000000
      0.563060       0.810819       0.000000
      0.546050       0.861851       0.000000
      0.432173       0.856962       0.000000
      0.563060       0.810819       0.000000
      0.658747       0.804752       0.000000
      0.660865       0.856962       0.000000
      0.546050       0.861851       0.000000
      0.432173       0.856962       0.000000
      0.546050       0.861851       0.000000
      0.529912       0.910264       0.000000
      0.397732       0.906804       0.000000
      0.546050       0.861851       0.000000
      0.660865       0.856962       0.000000
      0.662887       0.906804       0.000000
      0.529912       0.910264       0.000000
      0.658747       0.804752       0.000000
      0.748697       0.787383       0.000000
      0.770753       0.842791       0.000000
      0.660865       0.856962       0.000000
      0.748697       0.787383       0.000000
      0.827614       0.760948       0.000000
      0.870711       0.820711       0.000000
      0.770753       0.842791       0.000000
      0.660865       0.856962       0.000000
      0.770753       0.842791       0.000000
      0.792195       0.896655       0.000000
      0.662887       0.906804       0.000000
      0.770753       0.842791       0.000000
      0.870711       0.820711       0.000000
      0.913807       0.880474       0.000000
      0.792195       0.896655       0.000000
      0.152860       0.880474       0.000000
      0.270755       0.896655       0.000000
      0.217995       0.949038       0.000000
      0.076430       0.940237       0.000000
      0.270755       0.896655       0.000000
      0.397732       0.906804       0.000000
      0.364819       0.954435       0.000000
      0.217995       0.949038       0.000000
      0.076430       0.940237       0.000000
      0.217995       0.949038       0.000000
      0.166667       1.000000       0.000000
      0.000000       1.000000       0.000000
      0.217995       0.949038       0.000000
      0.364819       0.954435       0.000000
      0.333333       1.000000       0.000000
      0.166667       1.000000       0.000000
      0.397732       0.906804       0.000000
      0.529912       0.910264       0.000000
      0.514582       0.956255       0.000000
      0.364819       0.954435       0.000000
      0.529912       0.910264       0.000000
      0.662887       0.906804       0.000000
      0.664819       0.954435       0.000000
      0.514582       0.956255       0.000000
      0.364819       0.954435       0.000000
      0.514582       0.956255       0.000000
      0.500000       1.000000       0.000000
      0.333333       1.000000       0.000000
      0.514582       0.956255       0.000000
      0.664819       0.954435       0.000000
      0.666667       1.000000       0.000000
      0.500000       1.000000       0.000000
      0.662887       0.906804       0.000000
      0.792195       0.896655       0.000000
      0.813047       0.949038       0.000000
      0.664819       0.954435       0.000000
      0.792195       0.896655       0.000000
      0.913807       0.880474       0.000000
      0.956904       0.940237       0.000000
      0.813047       0.949038       0.000000
      0.664819       0.954435       0.000000
      0.813047       0.949038       0.000000
      0.833333       1.000000       0.000000
      0.666667       1.000000       0.000000
      0.813047       0.949038       0.000000
      0.956904       0.940237       0.000000
      1.000000       1.000000       0.000000
      0.833333       1.000000       0.000000
      0.458579       0.358579       0.000000
      0.428341       0.397369       0.000000
      0.351758       0.356122       0.000000
      0.382149       0.298816       0.000000
      0.428341       0.397369       0.000000
      0.407483       0.445805       0.000000
      0.331305       0.424779       0.000000
      0.351758       0.356122       0.000000
      0.382149       0.298816       0.000000
      0.351758       0.356122       0.000000
      0.277372       0.316058       0.000000
      0.305719       0.239052       0.000000
      0.351758       0.356122       0.000000
      0.331305       0.424779       0.000000
      0.258747       0.404752       0.000000
      0.277372       0.316058       0.000000
      0.407483       0.445805       0.000000
      0.400000       0.500000       0.000000
      0.324066       0.500000       0.000000
      0.331305       0.424779       0.000000
      0.400000       0.500000       0.000000
      0.407483       0.554195       0.000000
      0.331305       0.575221       0.000000
      0.324066       0.500000       0.000000
      0.331305       0.424779       0.000000
      0.324066       0.500000       0.000000
      0.252241       0.500000       0.000000
      0.258747       0.404752       0.000000
      0.324066       0.500000       0.000000
      0.331305       0.575221       0.000000
      0.258747       0.595248       0.000000
      0.252241       0.500000       0.000000
      0.407483       0.554195       0.000000
      0.428341       0.602631       0.000000
      0.351758       0.643878       0.000000
      0.331305       0.575221       0.000000
      0.428341       0.602631       0.000000
      0.458579       0.641421       0.000000
      0.382149       0.701184       0.000000
      0.351758       0.643878       0.000000
      0.331305       0.575221       0.000000
      0.351758       0.643878       0.000000
      0.277372       0.683942       0.000000
      0.258747       0.595248       0.000000
      0.351758       0.643878       0.000000
      0.382149       0.701184       0.000000
      0.305719       0.760948       0.000000
      0.277372       0.683942       0.000000
      0.305719       0.239052       0.000000
      0.277372       0.316058       0.000000
      0.205089       0.277126       0.000000
      0.229289       0.179289       0.000000
      0.277372       0.316058       0.000000
      0.258747       0.404752       0.000000
      0.189557       0.385654       0.000000
      0.205089       0.277126       0.000000
      0.229289       0.179289       0.000000
      0.205089       0.277126       0.000000
      0.134820       0.239280       0.000000
      0.152860       0.119526       0.000000
      0.205089       0.277126       0.000000
      0.189557       0.385654       0.000000
      0.123505       0.367423       0.000000
      0.134820       0.239280       0.000000
      0.258747       0.404752       0.000000
      0.252241       0.500000       0.000000
      0.184198       0.500000       0.000000
      0.189557       0.385654       0.000000
      0.252241       0.500000       0.000000
      0.258747       0.595248       0.000000
      0.189557       0.614346       0.000000
      0.184198       0.500000       0.000000
      0.189557       0.385654       0.000000
      0.184198       0.500000       0.000000
      0.119648       0.500000       0.000000
      0.123505       0.367423       0.000000
[...]
POINT_DATA   576
VECTORS U float 
      0.000388       0.005045       0.000000
      0.000200       0.005405       0.000000
      0.000033       0.005134       0.000000
      0.000256       0.004679       0.000000
      0.000200       0.005405       0.000000
      0.000002       0.005645       0.000000
     -0.000113       0.005540       0.000000
      0.000033       0.005134       0.000000
      0.000256       0.004679       0.000000
      0.000033       0.005134       0.000000
      0.000058       0.005109       0.000000
      0.000324       0.004726       0.000000
      0.000033       0.005134       0.000000
     -0.000113       0.005540       0.000000
     -0.000126       0.005497       0.000000
      0.000058       0.005109       0.000000
      0.000002       0.005645       0.000000
     -0.000203       0.005742       0.000000
     -0.000191       0.005767       0.000000
     -0.000113       0.005540       0.000000
     -0.000203       0.005742       0.000000
     -0.000426       0.005692       0.000000
     -0.000265       0.005728       0.000000
     -0.000191       0.005767       0.000000
     -0.000113       0.005540       0.000000
     -0.000191       0.005767       0.000000
     -0.000189       0.005765       0.000000
     -0.000126       0.005497       0.000000
     -0.000191       0.005767       0.000000
     -0.000265       0.005728       0.000000
     -0.000200       0.005754       0.000000
     -0.000189       0.005765       0.000000
     -0.000426       0.005692       0.000000
     -0.000679       0.005493       0.000000
     -0.000401       0.005427       0.000000
     -0.000265       0.005728       0.000000
     -0.000679       0.005493       0.000000
     -0.000955       0.005162       0.000000
     -0.000642       0.004963       0.000000
     -0.000401       0.005427       0.000000
     -0.000265       0.005728       0.000000
     -0.000401       0.005427       0.000000
     -0.000289       0.005450       0.000000
     -0.000200       0.005754       0.000000
     -0.000401       0.005427       0.000000
     -0.000642       0.004963       0.000000
     -0.000515       0.004992       0.000000
     -0.000289       0.005450       0.000000
      0.000324       0.004726       0.000000
      0.000058       0.005109       0.000000
      0.000121       0.005219       0.000000
      0.000423       0.004929       0.000000
      0.000058       0.005109       0.000000
     -0.000126       0.005497       0.000000
     -0.000106       0.005532       0.000000
      0.000121       0.005219       0.000000
      0.000423       0.004929       0.000000
      0.000121       0.005219       0.000000
      0.000198       0.005408       0.000000
      0.000539       0.005206       0.000000
      0.000121       0.005219       0.000000
     -0.000106       0.005532       0.000000
     -0.000076       0.005624       0.000000
      0.000198       0.005408       0.000000
     -0.000126       0.005497       0.000000
     -0.000189       0.005765       0.000000
     -0.000183       0.005780       0.000000
     -0.000106       0.005532       0.000000
     -0.000189       0.005765       0.000000
     -0.000200       0.005754       0.000000
     -0.000166       0.005789       0.000000
     -0.000183       0.005780       0.000000
     -0.000106       0.005532       0.000000
     -0.000183       0.005780       0.000000
     -0.000177       0.005815       0.000000
     -0.000076       0.005624       0.000000
     -0.000183       0.005780       0.000000
     -0.000166       0.005789       0.000000
     -0.000146       0.005833       0.000000
     -0.000177       0.005815       0.000000
     -0.000200       0.005754       0.000000
     -0.000289       0.005450       0.000000
     -0.000230       0.005520       0.000000
     -0.000166       0.005789       0.000000
     -0.000289       0.005450       0.000000
     -0.000515       0.004992       0.000000
     -0.000446       0.005110       0.000000
     -0.000230       0.005520       0.000000
     -0.000166       0.005789       0.000000
     -0.000230       0.005520       0.000000
     -0.000198       0.005626       0.000000
     -0.000146       0.005833       0.000000
     -0.000230       0.005520       0.000000
     -0.000446       0.005110       0.000000
     -0.000426       0.005301       0.000000
     -0.000198       0.005626       0.000000
      0.000539       0.005206       0.000000
      0.000198       0.005408       0.000000
      0.000293       0.005650       0.000000
      0.000690       0.005535       0.000000
      0.000198       0.005408       0.000000
     -0.000076       0.005624       0.000000
     -0.000037       0.005760       0.000000
      0.000293       0.005650       0.000000
      0.000690       0.005535       0.000000
      0.000293       0.005650       0.000000
      0.000415       0.005932       0.000000
      0.000899       0.005932       0.000000
      0.000293       0.005650       0.000000
     -0.000037       0.005760       0.000000
      0.000015       0.005932       0.000000
      0.000415       0.005932       0.000000
     -0.000076       0.005624       0.000000
     -0.000177       0.005815       0.000000
     -0.000172       0.005867       0.000000
     -0.000037       0.005760       0.000000
     -0.000177       0.005815       0.000000
     -0.000146       0.005833       0.000000
     -0.000135       0.005881       0.000000
     -0.000172       0.005867       0.000000
     -0.000037       0.005760       0.000000
     -0.000172       0.005867       0.000000
     -0.000169       0.005932       0.000000
      0.000015       0.005932       0.000000
     -0.000172       0.005867       0.000000
     -0.000135       0.005881       0.000000
     -0.000131       0.005932       0.000000
     -0.000169       0.005932       0.000000
     -0.000146       0.005833       0.000000
     -0.000198       0.005626       0.000000
     -0.000189       0.005763       0.000000
     -0.000135       0.005881       0.000000
     -0.000198       0.005626       0.000000
     -0.000426       0.005301       0.000000
     -0.000463       0.005575       0.000000
     -0.000189       0.005763       0.000000
     -0.000135       0.005881       0.000000
     -0.000189       0.005763       0.000000
     -0.000202       0.005932       0.000000
     -0.000131       0.005932       0.000000
     -0.000189       0.005763       0.000000
     -0.000463       0.005575       0.000000
     -0.000557       0.005932       0.000000
     -0.000202       0.005932       0.000000
      0.000339       0.000765       0.000000
      0.000516       0.001237       0.000000
      0.000503       0.001627       0.000000
      0.000205       0.001116       0.000000
      0.000516       0.001237       0.000000
      0.000655       0.001918       0.000000
      0.000834       0.002237       0.000000
      0.000503       0.001627       0.000000
      0.000205       0.001116       0.000000
      0.000503       0.001627       0.000000
      0.000573       0.001630       0.000000
      0.000245       0.001067       0.000000
      0.000503       0.001627       0.000000
      0.000834       0.002237       0.000000
      0.000942       0.002275       0.000000
      0.000573       0.001630       0.000000
      0.000655       0.001918       0.000000
      0.000695       0.002883       0.000000
      0.001011       0.002897       0.000000
      0.000834       0.002237       0.000000
      0.000695       0.002883       0.000000
      0.000681       0.003858       0.000000
      0.000868       0.003554       0.000000
      0.001011       0.002897       0.000000
      0.000834       0.002237       0.000000
      0.001011       0.002897       0.000000
      0.001133       0.002906       0.000000
      0.000942       0.002275       0.000000
      0.001011       0.002897       0.000000
      0.000868       0.003554       0.000000
      0.000978       0.003530       0.000000
      0.001133       0.002906       0.000000
      0.000681       0.003858       0.000000
      0.000562       0.004553       0.000000
      0.000555       0.004160       0.000000
      0.000868       0.003554       0.000000
      0.000562       0.004553       0.000000
      0.000388       0.005045       0.000000
      0.000256       0.004679       0.000000
      0.000555       0.004160       0.000000
      0.000868       0.003554       0.000000
      0.000555       0.004160       0.000000
      0.000637       0.004163       0.000000
      0.000978       0.003530       0.000000
      0.000555       0.004160       0.000000
      0.000256       0.004679       0.000000
      0.000324       0.004726       0.000000
      0.000637       0.004163       0.000000
      0.000245       0.001067       0.000000
      0.000573       0.001630       0.000000
      0.000654       0.001521       0.000000
      0.000288       0.000871       0.000000
      0.000573       0.001630       0.000000
      0.000942       0.002275       0.000000
      0.001048       0.002238       0.000000
      0.000654       0.001521       0.000000
      0.000288       0.000871       0.000000
      0.000654       0.001521       0.000000
      0.000727       0.001396       0.000000
      0.000296       0.000619       0.000000
      0.000654       0.001521       0.000000
      0.001048       0.002238       0.000000
      0.001157       0.002196       0.000000
      0.000727       0.001396       0.000000
      0.000942       0.002275       0.000000
      0.001133       0.002906       0.000000
      0.001245       0.002918       0.000000
      0.001048       0.002238       0.000000
      0.001133       0.002906       0.000000
      0.000978       0.003530       0.000000
      0.001087       0.003589       0.000000
      0.001245       0.002918       0.000000
      0.001048       0.002238       0.000000
      0.001245       0.002918       0.000000
      0.001366       0.002931       0.000000
      0.001157       0.002196       0.000000
      0.001245       0.002918       0.000000
      0.001087       0.003589       0.000000
      0.001199       0.003661       0.000000
      0.001366       0.002931       0.000000
      0.000978       0.003530       0.000000
      0.000637       0.004163       0.000000
      0.000736       0.004288       0.000000
      0.001087       0.003589       0.000000
      0.000637       0.004163       0.000000
      0.000324       0.004726       0.000000
      0.000423       0.004929       0.000000
      0.000736       0.004288       0.000000
      0.001087       0.003589       0.000000
      0.000736       0.004288       0.000000
      0.000837       0.004444       0.000000
      0.001199       0.003661       0.000000
      0.000736       0.004288       0.000000
      0.000423       0.004929       0.000000
      0.000539       0.005206       0.000000
      0.000837       0.004444       0.000000
      0.000296       0.000619       0.000000
      0.000727       0.001396       0.000000
      0.000791       0.001303       0.000000
      0.000240       0.000340       0.000000
      0.000727       0.001396       0.000000
      0.001157       0.002196       0.000000
      0.001260       0.002181       0.000000
      0.000791       0.001303       0.000000
      0.000240       0.000340       0.000000
      0.000791       0.001303       0.000000
      0.000847       0.001259       0.000000
      0.000000       0.000000       0.000000
      0.000791       0.001303       0.000000
      0.001260       0.002181       0.000000
      0.001351       0.002215       0.000000
      0.000847       0.001259       0.000000
      0.001157       0.002196       0.000000
      0.001366       0.002931       0.000000
      0.001489       0.002943       0.000000
      0.001260       0.002181       0.000000
      0.001366       0.002931       0.000000
      0.001199       0.003661       0.000000
      0.001309       0.003710       0.000000
      0.001489       0.002943       0.000000
      0.001260       0.002181       0.000000
      0.001489       0.002943       0.000000
      0.001601       0.002954       0.000000
      0.001351       0.002215       0.000000
      0.001489       0.002943       0.000000
      0.001309       0.003710       0.000000
      0.001411       0.003708       0.000000
      0.001601       0.002954       0.000000
      0.001199       0.003661       0.000000
      0.000837       0.004444       0.000000
      0.000939       0.004595       0.000000
      0.001309       0.003710       0.000000
      0.000837       0.004444       0.000000
      0.000539       0.005206       0.000000
      0.000690       0.005535       0.000000
      0.000939       0.004595       0.000000
      0.001309       0.003710       0.000000
      0.000939       0.004595       0.000000
      0.001055       0.004727       0.000000
      0.001411       0.003708       0.000000
      0.000939       0.004595       0.000000
      0.000690       0.005535       0.000000
      0.000899       0.005932       0.000000
      0.001055       0.004727       0.000000
     -0.000897       0.000716       0.000000
     -0.000616       0.000385       0.000000
     -0.000329       0.000457       0.000000
     -0.000569       0.000923       0.000000
     -0.000616       0.000385       0.000000
     -0.000373       0.000189       0.000000
     -0.000207       0.000161       0.000000
     -0.000329       0.000457       0.000000
     -0.000569       0.000923       0.000000
     -0.000329       0.000457       0.000000
     -0.000193       0.000441       0.000000
     -0.000417       0.000902       0.000000
     -0.000329       0.000457       0.000000
     -0.000207       0.000161       0.000000
     -0.000124       0.000145       0.000000
     -0.000193       0.000441       0.000000
     -0.000373       0.000189       0.000000
     -0.000177       0.000135       0.000000
     -0.000157       0.000116       0.000000
     -0.000207       0.000161       0.000000
     -0.000177       0.000135       0.000000
     -0.000007       0.000217       0.000000
     -0.000111       0.000314       0.000000
     -0.000157       0.000116       0.000000
     -0.000207       0.000161       0.000000
     -0.000157       0.000116       0.000000
     -0.000145       0.000125       0.000000
     -0.000124       0.000145       0.000000
     -0.000157       0.000116       0.000000
     -0.000111       0.000314       0.000000
     -0.000128       0.000356       0.000000
     -0.000145       0.000125       0.000000
     -0.000007       0.000217       0.000000
      0.000163       0.000431       0.000000
      0.000003       0.000683       0.000000
     -0.000111       0.000314       0.000000
      0.000163       0.000431       0.000000
      0.000339       0.000765       0.000000
      0.000205       0.001116       0.000000
      0.000003       0.000683       0.000000
     -0.000111       0.000314       0.000000
      0.000003       0.000683       0.000000
      0.000009       0.000705       0.000000
     -0.000128       0.000356       0.000000
      0.000003       0.000683       0.000000
      0.000205       0.001116       0.000000
      0.000245       0.001067       0.000000
      0.000009       0.000705       0.000000
     -0.000417       0.000902       0.000000
     -0.000193       0.000441       0.000000
     -0.000102       0.000376       0.000000
     -0.000314       0.000790       0.000000
     -0.000193       0.000441       0.000000
     -0.000124       0.000145       0.000000
     -0.000068       0.000121       0.000000
     -0.000102       0.000376       0.000000
     -0.000314       0.000790       0.000000
     -0.000102       0.000376       0.000000
     -0.000038       0.000274       0.000000
     -0.000246       0.000603       0.000000
     -0.000102       0.000376       0.000000
     -0.000068       0.000121       0.000000
     -0.000028       0.000090       0.000000
     -0.000038       0.000274       0.000000
     -0.000124       0.000145       0.000000
     -0.000145       0.000125       0.000000
     -0.000126       0.000120       0.000000
     -0.000068       0.000121       0.000000
     -0.000145       0.000125       0.000000
     -0.000128       0.000356       0.000000
     -0.000113       0.000326       0.000000
     -0.000126       0.000120       0.000000
     -0.000068       0.000121       0.000000
     -0.000126       0.000120       0.000000
     -0.000100       0.000097       0.000000
     -0.000028       0.000090       0.000000
     -0.000126       0.000120       0.000000
     -0.000113       0.000326       0.000000
     -0.000086       0.000244       0.000000
     -0.000100       0.000097       0.000000
     -0.000128       0.000356       0.000000
      0.000009       0.000705       0.000000
      0.000037       0.000596       0.000000
     -0.000113       0.000326       0.000000
      0.000009       0.000705       0.000000
      0.000245       0.001067       0.000000
      0.000288       0.000871       0.000000
      0.000037       0.000596       0.000000
     -0.000113       0.000326       0.000000
      0.000037       0.000596       0.000000
      0.000055       0.000419       0.000000
     -0.000086       0.000244       0.000000
      0.000037       0.000596       0.000000
      0.000288       0.000871       0.000000
      0.000296       0.000619       0.000000
      0.000055       0.000419       0.000000
     -0.000246       0.000603       0.000000
     -0.000038       0.000274       0.000000
     -0.000001       0.000145       0.000000
     -0.000190       0.000339       0.000000
     -0.000038       0.000274       0.000000
     -0.000028       0.000090       0.000000
     -0.000004       0.000050       0.000000
     -0.000001       0.000145       0.000000
     -0.000190       0.000339       0.000000
     -0.000001       0.000145       0.000000
      0.000000       0.000000       0.000000
      0.000000       0.000000       0.000000
     -0.000001       0.000145       0.000000
     -0.000004       0.000050       0.000000
      0.000000       0.000000       0.000000
      0.000000       0.000000       0.000000
     -0.000028       0.000090       0.000000
     -0.000100       0.000097       0.000000
     -0.000061       0.000056       0.000000
     -0.000004       0.000050       0.000000
     -0.000100       0.000097       0.000000
     -0.000086       0.000244       0.000000
     -0.000048       0.000129       0.000000
     -0.000061       0.000056       0.000000
     -0.000004       0.000050       0.000000
     -0.000061       0.000056       0.000000
      0.000000       0.000000       0.000000
      0.000000       0.000000       0.000000
     -0.000061       0.000056       0.000000
     -0.000048       0.000129       0.000000
      0.000000       0.000000       0.000000
      0.000000       0.000000       0.000000
     -0.000086       0.000244       0.000000
      0.000055       0.000419       0.000000
      0.000048       0.000212       0.000000
     -0.000048       0.000129       0.000000
      0.000055       0.000419       0.000000
      0.000296       0.000619       0.000000
      0.000240       0.000340       0.000000
      0.000048       0.000212       0.000000
     -0.000048       0.000129       0.000000
      0.000048       0.000212       0.000000
      0.000000       0.000000       0.000000
      0.000000       0.000000       0.000000
      0.000048       0.000212       0.000000
      0.000240       0.000340       0.000000
      0.000000       0.000000       0.000000
      0.000000       0.000000       0.000000
     -0.000897       0.000716       0.000000
     -0.001205       0.001197       0.000000
     -0.000993       0.001431       0.000000
     -0.000569       0.000923       0.000000
     -0.001205       0.001197       0.000000
     -0.001475       0.001899       0.000000
     -0.001513       0.002083       0.000000
     -0.000993       0.001431       0.000000
     -0.000569       0.000923       0.000000
     -0.000993       0.001431       0.000000
     -0.000865       0.001459       0.000000