# vtk DataFile Version 2.0
time_10.vtk
ASCII
DATASET UNSTRUCTURED_GRID
POINTS   840 float
      0.458579       0.641421       0.000000
      0.497369       0.671659       0.000000
      0.438243       0.730363       0.000000
      0.382149       0.701184       0.000000
      0.497369       0.671659       0.000000
      0.545805       0.692517       0.000000
      0.506084       0.750000       0.000000
      0.438243       0.730363       0.000000
      0.382149       0.701184       0.000000
      0.438243       0.730363       0.000000
      0.380813       0.787383       0.000000
      0.305719       0.760948       0.000000
      0.438243       0.730363       0.000000
      0.506084       0.750000       0.000000
      0.468251       0.804752       0.000000
      0.380813       0.787383       0.000000
      0.545805       0.692517       0.000000
      0.600000       0.700000       0.000000
      0.581017       0.756950       0.000000
      0.506084       0.750000       0.000000
      0.600000       0.700000       0.000000
      0.654195       0.692517       0.000000
      0.656527       0.750000       0.000000
      0.581017       0.756950       0.000000
      0.506084       0.750000       0.000000
      0.581017       0.756950       0.000000
      0.563060       0.810819       0.000000
      0.468251       0.804752       0.000000
      0.581017       0.756950       0.000000
      0.656527       0.750000       0.000000
      0.658747       0.804752       0.000000
      0.563060       0.810819       0.000000
      0.654195       0.692517       0.000000
      0.702631       0.671659       0.000000
      0.725999       0.730363       0.000000
      0.656527       0.750000       0.000000
      0.702631       0.671659       0.000000
      0.741421       0.641421       0.000000
      0.784518       0.701184       0.000000
      0.725999       0.730363       0.000000
      0.656527       0.750000       0.000000
      0.725999       0.730363       0.000000
      0.748697       0.787383       0.000000
      0.658747       0.804752       0.000000
      0.725999       0.730363       0.000000
      0.784518       0.701184       0.000000
      0.827614       0.760948       0.000000
      0.748697       0.787383       0.000000
      0.305719       0.760948       0.000000
      0.380813       0.787383       0.000000
      0.325006       0.842791       0.000000
      0.229289       0.820711       0.000000
      0.380813       0.787383       0.000000
      0.468251       0.804752       0.000000
      0.432173       0.856962       0.000000
      0.325006       0.842791       0.000000
      0.229289       0.820711       0.000000
      0.325006       0.842791       0.000000
      0.270755       0.896655       0.000000
      0.152860       0.880474       0.000000
      0.325006       0.842791       0.000000
      0.432173       0.856962       0.000000
      0.397732       0.906804       0.000000
      0.270755       0.896655       0.000000
      0.468251       0.804752       0.000000
      0.563060       0.810819       0.000000
      0.546050       0.861851       0.000000
      0.432173       0.856962       0.000000
      0.563060       0.810819       0.000000
      0.658747       0.804752       0.000000
      0.660865       0.856962       0.000000
      0.546050       0.861851       0.000000
      0.432173       0.856962       0.000000
      0.546050       0.861851       0.000000
      0.529912       0.910264       0.000000
      0.397732       0.906804       0.000000
      0.546050       0.861851       0.000000
      0.660865       0.856962       0.000000
      0.662887       0.906804       0.000000
      0.529912       0.910264       0.000000
      0.658747       0.804752       0.000000
      0.748697       0.787383       0.000000
      0.770753       0.842791       0.000000
      0.660865       0.856962       0.000000
      0.748697       0.787383       0.000000
      0.827614       0.760948       0.000000
      0.870711       0.820711       0.000000
      0.770753       0.842791       0.000000
      0.660865       0.856962       0.000000
      0.770753       0.842791       0.000000
      0.792195       0.896655       0.000000
      0.662887       0.906804       0.000000
      0.770753       0.842791       0.000000
      0.870711       0.820711       0.000000
      0.913807       0.880474       0.000000
      0.792195       0.896655       0.000000
      0.152860       0.880474       0.000000
      0.270755       0.896655       0.000000
      0.217995       0.949038       0.000000
      0.076430       0.940237       0.000000
      0.270755       0.896655       0.000000
      0.397732       0.906804       0.000000
      0.364819       0.954435       0.000000
      0.217995       0.949038       0.000000
      0.076430       0.940237       0.000000
      0.217995       0.949038       0.000000
      0.166667       1.000000       0.000000
      0.000000       1.000000       0.000000
      0.217995       0.949038       0.000000
      0.364819       0.954435       0.000000
      0.333333       1.000000       0.000000
      0.166667       1.000000       0.000000
      0.397732       0.906804       0.000000
      0.529912       0.910264       0.000000
      0.514582       0.956255       0.000000
      0.364819       0.954435       0.000000
      0.529912       0.910264       0.000000
      0.662887       0.906804       0.000000
      0.664819       0.954435       0.000000
      0.514582       0.956255       0.000000
      0.364819       0.954435       0.000000
      0.514582       0.956255       0.000000
      0.500000       1.000000       0.000000
      0.333333       1.000000       0.000000
      0.514582       0.956255       0.000000
      0.664819       0.954435       0.000000
      0.666667       1.000000       0.000000
      0.500000       1.000000       0.000000
      0.662887       0.906804       0.000000
      0.792195       0.896655       0.000000
      0.813047       0.949038       0.000000
      0.664819       0.954435       0.000000
      0.792195       0.896655       0.000000
      0.913807       0.880474       0.000000
      0.956904       0.940237       0.000000
      0.813047       0.949038       0.000000
      0.664819       0.954435       0.000000
      0.813047       0.949038       0.000000
      0.833333       1.000000       0.000000
      0.666667       1.000000       0.000000
      0.813047       0.949038       0.000000
      0.956904       0.940237       0.000000
      1.000000       1.000000       0.000000
      0.833333       1.000000       0.000000
      0.458579       0.358579       0.000000
      0.428341       0.397369       0.000000
      0.351758       0.356122       0.000000
      0.382149       0.298816       0.000000
      0.428341       0.397369       0.000000
      0.407483       0.445805       0.000000
      0.331305       0.424779       0.000000
      0.351758       0.356122       0.000000
      0.382149       0.298816       0.000000
      0.351758       0.356122       0.000000
      0.277372       0.316058       0.000000
      0.305719       0.239052       0.000000
      0.351758       0.356122       0.000000
      0.331305       0.424779       0.000000
      0.258747       0.404752       0.000000
      0.277372       0.316058       0.000000
      0.407483       0.445805       0.000000
      0.400000       0.500000       0.000000
      0.324066       0.500000       0.000000
      0.331305       0.424779       0.000000
      0.400000       0.500000       0.000000
      0.407483       0.554195       0.000000
      0.331305       0.575221       0.000000
      0.324066       0.500000       0.000000
      0.331305       0.424779       0.000000
      0.324066       0.500000       0.000000
      0.252241       0.500000       0.000000
      0.258747       0.404752       0.000000
      0.324066       0.500000       0.000000
      0.331305       0.575221       0.000000
      0.258747       0.595248       0.000000
      0.252241       0.500000       0.000000
      0.407483       0.554195       0.000000
      0.428341       0.602631       0.000000
      0.351758       0.643878       0.000000
      0.331305       0.575221       0.000000
      0.428341       0.602631       0.000000
      0.458579       0.641421       0.000000
      0.382149       0.701184       0.000000
      0.351758       0.643878       0.000000
      0.331305       0.575221       0.000000
      0.351758       0.643878       0.000000
      0.277372       0.683942       0.000000
      0.258747       0.595248       0.000000
      0.351758       0.643878       0.000000
      0.382149       0.701184       0.000000
      0.305719       0.760948       0.000000
      0.277372       0.683942       0.000000
      0.305719       0.239052       0.000000
      0.277372       0.316058       0.000000
      0.205089       0.277126       0.000000
      0.229289       0.179289       0.000000
      0.277372       0.316058       0.000000
      0.258747       0.404752       0.000000
      0.189557       0.385654       0.000000
      0.205089       0.277126       0.000000
      0.229289       0.179289       0.000000
      0.205089       0.277126       0.000000
      0.134820       0.239280       0.000000
      0.152860       0.119526       0.000000
      0.205089       0.277126       0.000000
      0.189557       0.385654       0.000000
      0.123505       0.367423       0.000000
      0.134820       0.239280       0.000000
      0.258747       0.404752       0.000000
      0.252241       0.500000       0.000000
      0.184198       0.500000       0.000000
      0.189557       0.385654       0.000000
      0.252241       0.500000       0.000000
      0.258747       0.595248       0.000000
      0.189557       0.614346       0.000000
      0.184198       0.500000       0.000000
      0.189557       0.385654       0.000000
      0.184198       0.500000       0.000000
      0.119648       0.500000       0.000000
      0.123505       0.367423       0.000000
[...]
POINT_DATA   840
VECTORS U float 
      0.000437       0.005679       0.000000
      0.000225       0.006062       0.000000
      0.000038       0.005768       0.000000
      0.000282       0.005269       0.000000
      0.000225       0.006062       0.000000
      0.000006       0.006318       0.000000
     -0.000121       0.006206       0.000000
      0.000038       0.005768       0.000000
      0.000282       0.005269       0.000000
      0.000038       0.005768       0.000000
      0.000058       0.005731       0.000000
      0.000349       0.005302       0.000000
      0.000038       0.005768       0.000000
     -0.000121       0.006206       0.000000
     -0.000140       0.006156       0.000000
      0.000058       0.005731       0.000000
      0.000006       0.006318       0.000000
     -0.000218       0.006424       0.000000
     -0.000206       0.006451       0.000000
     -0.000121       0.006206       0.000000
     -0.000218       0.006424       0.000000
     -0.000464       0.006373       0.000000
     -0.000288       0.006412       0.000000
     -0.000206       0.006451       0.000000
     -0.000121       0.006206       0.000000
     -0.000206       0.006451       0.000000
     -0.000205       0.006446       0.000000
     -0.000140       0.006156       0.000000
     -0.000206       0.006451       0.000000
     -0.000288       0.006412       0.000000
     -0.000216       0.006437       0.000000
     -0.000205       0.006446       0.000000
     -0.000464       0.006373       0.000000
     -0.000743       0.006165       0.000000
     -0.000437       0.006092       0.000000
     -0.000288       0.006412       0.000000
     -0.000743       0.006165       0.000000
     -0.001054       0.005818       0.000000
     -0.000699       0.005594       0.000000
     -0.000437       0.006092       0.000000
     -0.000288       0.006412       0.000000
     -0.000437       0.006092       0.000000
     -0.000308       0.006110       0.000000
     -0.000216       0.006437       0.000000
     -0.000437       0.006092       0.000000
     -0.000699       0.005594       0.000000
     -0.000549       0.005609       0.000000
     -0.000308       0.006110       0.000000
      0.000349       0.005302       0.000000
      0.000058       0.005731       0.000000
      0.000121       0.005842       0.000000
      0.000453       0.005511       0.000000
      0.000058       0.005731       0.000000
     -0.000140       0.006156       0.000000
     -0.000122       0.006189       0.000000
      0.000121       0.005842       0.000000
      0.000453       0.005511       0.000000
      0.000121       0.005842       0.000000
      0.000201       0.006042       0.000000
      0.000576       0.005807       0.000000
      0.000121       0.005842       0.000000
     -0.000122       0.006189       0.000000
     -0.000093       0.006284       0.000000
      0.000201       0.006042       0.000000
     -0.000140       0.006156       0.000000
     -0.000205       0.006446       0.000000
     -0.000200       0.006458       0.000000
     -0.000122       0.006189       0.000000
     -0.000205       0.006446       0.000000
     -0.000216       0.006437       0.000000
     -0.000177       0.006471       0.000000
     -0.000200       0.006458       0.000000
     -0.000122       0.006189       0.000000
     -0.000200       0.006458       0.000000
     -0.000195       0.006493       0.000000
     -0.000093       0.006284       0.000000
     -0.000200       0.006458       0.000000
     -0.000177       0.006471       0.000000
     -0.000154       0.006513       0.000000
     -0.000195       0.006493       0.000000
     -0.000216       0.006437       0.000000
     -0.000308       0.006110       0.000000
     -0.000239       0.006179       0.000000
     -0.000177       0.006471       0.000000
     -0.000308       0.006110       0.000000
     -0.000549       0.005609       0.000000
     -0.000468       0.005725       0.000000
     -0.000239       0.006179       0.000000
     -0.000177       0.006471       0.000000
     -0.000239       0.006179       0.000000
     -0.000202       0.006288       0.000000
     -0.000154       0.006513       0.000000
     -0.000239       0.006179       0.000000
     -0.000468       0.005725       0.000000
     -0.000445       0.005927       0.000000
     -0.000202       0.006288       0.000000
      0.000576       0.005807       0.000000
      0.000201       0.006042       0.000000
      0.000302       0.006303       0.000000
      0.000741       0.006167       0.000000
      0.000201       0.006042       0.000000
     -0.000093       0.006284       0.000000
     -0.000053       0.006428       0.000000
      0.000302       0.006303       0.000000
      0.000741       0.006167       0.000000
      0.000302       0.006303       0.000000
      0.000434       0.006612       0.000000
      0.000975       0.006612       0.000000
      0.000302       0.006303       0.000000
     -0.000053       0.006428       0.000000
      0.000001       0.006612       0.000000
      0.000434       0.006612       0.000000
     -0.000093       0.006284       0.000000
     -0.000195       0.006493       0.000000
     -0.000191       0.006545       0.000000
     -0.000053       0.006428       0.000000
     -0.000195       0.006493       0.000000
     -0.000154       0.006513       0.000000
     -0.000141       0.006562       0.000000
     -0.000191       0.006545       0.000000
     -0.000053       0.006428       0.000000
     -0.000191       0.006545       0.000000
     -0.000188       0.006612       0.000000
      0.000001       0.006612       0.000000
     -0.000191       0.006545       0.000000
     -0.000141       0.006562       0.000000
     -0.000137       0.006612       0.000000
     -0.000188       0.006612       0.000000
     -0.000154       0.006513       0.000000
     -0.000202       0.006288       0.000000
     -0.000190       0.006432       0.000000
     -0.000141       0.006562       0.000000
     -0.000202       0.006288       0.000000
     -0.000445       0.005927       0.000000
     -0.000485       0.006224       0.000000
     -0.000190       0.006432       0.000000
     -0.000141       0.006562       0.000000
     -0.000190       0.006432       0.000000
     -0.000204       0.006612       0.000000
     -0.000137       0.006612       0.000000
     -0.000190       0.006432       0.000000
     -0.000485       0.006224       0.000000
     -0.000587       0.006612       0.000000
     -0.000204       0.006612       0.000000
      0.000384       0.000805       0.000000
      0.000590       0.001306       0.000000
      0.000561       0.001757       0.000000
      0.000229       0.001195       0.000000
      0.000590       0.001306       0.000000
      0.000753       0.002033       0.000000
      0.000945       0.002445       0.000000
      0.000561       0.001757       0.000000
      0.000229       0.001195       0.000000
      0.000561       0.001757       0.000000
      0.000638       0.001786       0.000000
      0.000268       0.001157       0.000000
      0.000561       0.001757       0.000000
      0.000945       0.002445       0.000000
      0.001069       0.002521       0.000000
      0.000638       0.001786       0.000000
      0.000753       0.002033       0.000000
      0.000770       0.003213       0.000000
      0.001171       0.003230       0.000000
      0.000945       0.002445       0.000000
      0.000770       0.003213       0.000000
      0.000782       0.004413       0.000000
      0.000983       0.004012       0.000000
      0.001171       0.003230       0.000000
      0.000945       0.002445       0.000000
      0.001171       0.003230       0.000000
      0.001303       0.003240       0.000000
      0.001069       0.002521       0.000000
      0.001171       0.003230       0.000000
      0.000983       0.004012       0.000000
      0.001107       0.003951       0.000000
      0.001303       0.003240       0.000000
      0.000782       0.004413       0.000000
      0.000640       0.005155       0.000000
      0.000616       0.004698       0.000000
      0.000983       0.004012       0.000000
      0.000640       0.005155       0.000000
      0.000437       0.005679       0.000000
      0.000282       0.005269       0.000000
      0.000616       0.004698       0.000000
      0.000983       0.004012       0.000000
      0.000616       0.004698       0.000000
      0.000705       0.004673       0.000000
      0.001107       0.003951       0.000000
      0.000616       0.004698       0.000000
      0.000282       0.005269       0.000000
      0.000349       0.005302       0.000000
      0.000705       0.004673       0.000000
      0.000268       0.001157       0.000000
      0.000638       0.001786       0.000000
      0.000728       0.001680       0.000000
      0.000314       0.000953       0.000000
      0.000638       0.001786       0.000000
      0.001069       0.002521       0.000000
      0.001188       0.002490       0.000000
      0.000728       0.001680       0.000000
      0.000314       0.000953       0.000000
      0.000728       0.001680       0.000000
      0.000810       0.001551       0.000000
      0.000322       0.000682       0.000000
      0.000728       0.001680       0.000000
      0.001188       0.002490       0.000000
      0.001308       0.002448       0.000000
      0.000810       0.001551       0.000000
      0.001069       0.002521       0.000000
      0.001303       0.003240       0.000000
      0.001423       0.003252       0.000000
      0.001188       0.002490       0.000000
      0.001303       0.003240       0.000000
      0.001107       0.003951       0.000000
      0.001228       0.004004       0.000000
      0.001423       0.003252       0.000000
      0.001188       0.002490       0.000000
      0.001423       0.003252       0.000000
      0.001554       0.003265       0.000000
      0.001308       0.002448       0.000000
      0.001423       0.003252       0.000000
      0.001228       0.004004       0.000000
      0.001352       0.004075       0.000000
      0.001554       0.003265       0.000000
      0.001107       0.003951       0.000000
      0.000705       0.004673       0.000000
      0.000814       0.004794       0.000000
      0.001228       0.004004       0.000000
      0.000705       0.004673       0.000000
      0.000349       0.005302       0.000000
      0.000453       0.005511       0.000000
      0.000814       0.004794       0.000000
      0.001228       0.004004       0.000000
      0.000814       0.004794       0.000000
      0.000922       0.004955       0.000000
      0.001352       0.004075       0.000000
      0.000814       0.004794       0.000000
      0.000453       0.005511       0.000000
      0.000576       0.005807       0.000000
      0.000922       0.004955       0.000000
      0.000322       0.000682       0.000000
      0.000810       0.001551       0.000000
      0.000879       0.001455       0.000000
      0.000261       0.000376       0.000000
      0.000810       0.001551       0.000000
      0.001308       0.002448       0.000000
      0.001420       0.002436       0.000000
      0.000879       0.001455       0.000000
      0.000261       0.000376       0.000000
      0.000879       0.001455       0.000000
      0.000941       0.001412       0.000000
      0.000000       0.000000       0.000000
      0.000879       0.001455       0.000000
      0.001420       0.002436       0.000000
      0.001519       0.002482       0.000000
      0.000941       0.001412       0.000000
      0.001308       0.002448       0.000000
      0.001554       0.003265       0.000000
      0.001688       0.003278       0.000000
      0.001420       0.002436       0.000000
      0.001554       0.003265       0.000000
      0.001352       0.004075       0.000000
      0.001471       0.004123       0.000000
      0.001688       0.003278       0.000000
      0.001420       0.002436       0.000000
      0.001688       0.003278       0.000000
      0.001810       0.003288       0.000000
      0.001519       0.002482       0.000000
      0.001688       0.003278       0.000000
      0.001471       0.004123       0.000000
      0.001581       0.004111       0.000000
      0.001810       0.003288       0.000000
      0.001352       0.004075       0.000000
      0.000922       0.004955       0.000000
      0.001032       0.005111       0.000000
      0.001471       0.004123       0.000000
      0.000922       0.004955       0.000000
      0.000576       0.005807       0.000000
      0.000741       0.006167       0.000000
      0.001032       0.005111       0.000000
      0.001471       0.004123       0.000000
      0.001032       0.005111       0.000000
      0.001158       0.005251       0.000000
      0.001581       0.004111       0.000000
      0.001032       0.005111       0.000000
      0.000741       0.006167       0.000000
      0.000975       0.006612       0.000000
      0.001158       0.005251       0.000000
     -0.000990       0.000739       0.000000
     -0.000675       0.000393       0.000000
     -0.000359       0.000471       0.000000
     -0.000619       0.000971       0.000000
     -0.000675       0.000393       0.000000
     -0.000405       0.000189       0.000000
     -0.000225       0.000159       0.000000
     -0.000359       0.000471       0.000000
     -0.000619       0.000971       0.000000
     -0.000359       0.000471       0.000000
     -0.000206       0.000461       0.000000
     -0.000444       0.000963       0.000000
     -0.000359       0.000471       0.000000
     -0.000225       0.000159       0.000000
     -0.000133       0.000144       0.000000
     -0.000206       0.000461       0.000000
     -0.000405       0.000189       0.000000
     -0.000189       0.000135       0.000000
     -0.000168       0.000114       0.000000
     -0.000225       0.000159       0.000000
     -0.000189       0.000135       0.000000
     -0.000002       0.000222       0.000000
     -0.000116       0.000326       0.000000
     -0.000168       0.000114       0.000000
     -0.000225       0.000159       0.000000
     -0.000168       0.000114       0.000000
     -0.000156       0.000125       0.000000
     -0.000133       0.000144       0.000000
     -0.000168       0.000114       0.000000
     -0.000116       0.000326       0.000000
     -0.000137       0.000375       0.000000
     -0.000156       0.000125       0.000000
     -0.000002       0.000222       0.000000
      0.000186       0.000450       0.000000
      0.000009       0.000724       0.000000
     -0.000116       0.000326       0.000000
      0.000186       0.000450       0.000000
      0.000384       0.000805       0.000000
      0.000229       0.001195       0.000000
      0.000009       0.000724       0.000000
     -0.000116       0.000326       0.000000
      0.000009       0.000724       0.000000
      0.000010       0.000754       0.000000
     -0.000137       0.000375       0.000000
      0.000009       0.000724       0.000000
      0.000229       0.001195       0.000000
      0.000268       0.001157       0.000000
      0.000010       0.000754       0.000000
     -0.000444       0.000963       0.000000
     -0.000206       0.000461       0.000000
     -0.000105       0.000396       0.000000
     -0.000329       0.000852       0.000000
     -0.000206       0.000461       0.000000
     -0.000133       0.000144       0.000000
     -0.000072       0.000122       0.000000
     -0.000105       0.000396       0.000000
     -0.000329       0.000852       0.000000
     -0.000105       0.000396       0.000000
     -0.000035       0.000292       0.000000
     -0.000257       0.000654       0.000000
     -0.000105       0.000396       0.000000
     -0.000072       0.000122       0.000000
     -0.000028       0.000091       0.000000
     -0.000035       0.000292       0.000000
     -0.000133       0.000144       0.000000
     -0.000156       0.000125       0.000000
     -0.000136       0.000122       0.000000
     -0.000072       0.000122       0.000000
     -0.000156       0.000125       0.000000
     -0.000137       0.000375       0.000000
     -0.000124       0.000346       0.000000
     -0.000136       0.000122       0.000000
     -0.000072       0.000122       0.000000
     -0.000136       0.000122       0.000000
     -0.000108       0.000100       0.000000
     -0.000028       0.000091       0.000000
     -0.000136       0.000122       0.000000
     -0.000124       0.000346       0.000000
     -0.000095       0.000260       0.000000
     -0.000108       0.000100       0.000000
     -0.000137       0.000375       0.000000
      0.000010       0.000754       0.000000
      0.000038       0.000642       0.000000
     -0.000124       0.000346       0.000000
      0.000010       0.000754       0.000000
      0.000268       0.001157       0.000000
      0.000314       0.000953       0.000000
      0.000038       0.000642       0.000000
     -0.000124       0.000346       0.000000
      0.000038       0.000642       0.000000
      0.000057       0.000454       0.000000
     -0.000095       0.000260       0.000000
      0.000038       0.000642       0.000000
      0.000314       0.000953       0.000000
      0.000322       0.000682       0.000000
      0.000057       0.000454       0.000000
     -0.000257       0.000654       0.000000
     -0.000035       0.000292       0.000000
      0.000003       0.000155       0.000000
     -0.000201       0.000366       0.000000
     -0.000035       0.000292       0.000000
     -0.000028       0.000091       0.000000
     -0.000003       0.000051       0.000000
      0.000003       0.000155       0.000000
     -0.000201       0.000366       0.000000
      0.000003       0.000155       0.000000
      0.000000       0.000000       0.000000
      0.000000       0.000000       0.000000
      0.000003       0.000155       0.000000
     -0.000003       0.000051       0.000000
      0.000000       0.000000       0.000000
      0.000000       0.000000       0.000000
     -0.000028       0.000091       0.000000
     -0.000108       0.000100       0.000000
     -0.000066       0.000058       0.000000
     -0.000003       0.000051       0.000000
     -0.000108       0.000100       0.000000
     -0.000095       0.000260       0.000000
     -0.000054       0.000138       0.000000
     -0.000066       0.000058       0.000000
     -0.000003       0.000051       0.000000
     -0.000066       0.000058       0.000000
      0.000000       0.000000       0.000000
      0.000000       0.000000       0.000000
     -0.000066       0.000058       0.000000
     -0.000054       0.000138       0.000000
      0.000000       0.000000       0.000000
      0.000000       0.000000       0.000000
     -0.000095       0.000260       0.000000
      0.000057       0.000454       0.000000
      0.000049       0.000230       0.000000
     -0.000054       0.000138       0.000000
      0.000057       0.000454       0.000000
      0.000322       0.000682       0.000000
      0.000261       0.000376       0.000000
      0.000049       0.000230       0.000000
     -0.000054       0.000138       0.000000
      0.000049       0.000230       0.000000
      0.000000       0.000000       0.000000
      0.000000       0.000000       0.000000
      0.000049       0.000230       0.000000
      0.000261       0.000376       0.000000
      0.000000       0.000000       0.000000
      0.000000       0.000000       0.000000
     -0.000990       0.000739       0.000000
     -0.001345       0.001241       0.000000
     -0.001092       0.001515       0.000000
     -0.000619       0.000971       0.000000
     -0.000619       0.000971       0.000000
     -0.001092       0.001515       0.000000
     -0.000940       0.001567       0.000000
     -0.000444       0.000963       0.000000
     -0.001092       0.001515       0.000000
     -0.001689       0.002215       0.000000
     -0.001670       0.002342       0.000000