# vtk DataFile Version 2.0
time_10.vtk
ASCII
DATASET UNSTRUCTURED_GRID
POINTS   576 float
      0.458579       0.641421       0.000000
      0.497369       0.671659       0.000000
      0.438243       0.730363       0.000000
      0.382149       0.701184       0.000000
      0.497369       0.671659       0.000000
      0.545805       0.692517       0.000000
      0.506084       0.750000       0.000000
      0.438243       0.730363       0.000000
      0.382149       0.701184       0.000000
      0.438243       0.730363       0.000000
      0.380813       0.787383       0.000000
      0.305719       0.760948       0.000000
      0.438243       0.730363       0.000000
      0.506084       0.750000       0.000000
      0.468251       0.804752       0.000000
      0.380813       0.787383       0.000000
      0.545805       0.692517       0.000000
      0.600000       0.700000       0.000000
      0.581017       0.756950       0.000000
      0.506084       0.750000       0.000000
      0.600000       0.700000       0.000000
      0.654195       0.692517       0.000000
      0.656527       0.750000       0.000000
      0.581017       0.756950       0.000000
      0.506084       0.750000       0.000000
      0.581017       0.756950       0.000000
      0.563060       0.810819       0.000000
      0.468251       0.804752       0.000000
      0.581017       0.756950       0.000000
      0.656527       0.750000       0.000000
      0.658747       0.804752       0.000000
      0.563060       0.810819       0.000000
      0.654195       0.692517       0.000000
      0.702631       0.671659       0.000000
      0.725999       0.730363       0.000000
      0.656527       0.750000       0.000000
      0.702631       0.671659       0.000000
      0.741421       0.641421       0.000000
      0.784518       0.701184       0.000000
      0.725999       0.730363       0.000000
      0.656527       0.750000       0.000000
      0.725999       0.730363       0.000000
      0.748697       0.787383       0.000000
      0.658747       0.804752       0.000000
      0.725999       0.730363       0.000000
      0.784518       0.701184       0.000000
      0.827614       0.760948       0.000000
      0.748697       0.787383       0.000000
      0.305719       0.760948       0.000000
      0.380813       0.787383       0.000000
      0.325006       0.842791       0.000000
      0.229289       0.820711       0.000000
      0.380813       0.787383       0.000000
      0.468251       0.804752       0.000000
      0.432173       0.856962       0.000000
      0.325006       0.842791       0.000000
      0.229289       0.820711       0.000000
      0.325006       0.842791       0.000000
      0.270755       0.896655       0.000000
      0.152860       0.880474       0.000000
      0.325006       0.842791       0.000000
      0.432173       0.856962       0.000000
      0.397732       0.906804       0.000000
      0.270755       0.896655       0.000000
      0.468251       0.804752       0.000000
      0.563060       0.810819       0.000000
      0.546050       0.861851       0.000000
      0.432173       0.856962       0.000000
      0.563060       0.810819       0.000000
      0.658747       0.804752       0.000000
      0.660865       0.856962       0.000000
      0.546050       0.861851       0.000000
      0.432173       0.856962       0.000000
      0.546050       0.861851       0.000000
      0.529912       0.910264       0.000000
      0.397732       0.906804       0.000000
      0.546050       0.861851       0.000000
      0.660865       0.856962       0.000000
      0.662887       0.906804       0.000000
      0.529912       0.910264       0.000000
      0.658747       0.804752       0.000000
      0.748697       0.787383       0.000000
      0.770753       0.842791       0.000000
      0.660865       0.856962       0.000000
      0.748697       0.787383       0.000000
      0.827614       0.760948       0.000000
      0.870711       0.820711       0.000000
      0.770753       0.842791       0.000000
      0.660865       0.856962       0.000000
      0.770753       0.842791       0.000000
      0.792195       0.896655       0.000000
      0.662887       0.906804       0.000000
      0.770753       0.842791       0.000000
      0.870711       0.820711       0.000000
      0.913807       0.880474       0.000000
      0.792195       0.896655       0.000000
      0.152860       0.880474       0.000000
      0.270755       0.896655       0.000000
      0.217995       0.949038       0.000000
      0.076430       0.940237       0.000000
      0.270755       0.896655       0.000000
      0.397732       0.906804       0.000000
      0.364819       0.954435       0.000000
      0.217995       0.949038       0.000000
      0.076430       0.940237       0.000000
      0.217995       0.949038       0.000000
      0.166667       1.000000       0.000000
      0.000000       1.000000       0.000000
      0.217995       0.949038       0.000000
      0.364819       0.954435       0.000000
      0.333333       1.000000       0.000000
      0.166667       1.000000       0.000000
      0.397732       0.906804       0.000000
      0.529912       0.910264       0.000000
      0.514582       0.956255       0.000000
      0.364819       0.954435       0.000000
      0.529912       0.910264       0.000000
      0.662887       0.906804       0.000000
      0.664819       0.954435       0.000000
      0.514582       0.956255       0.000000
      0.364819       0.954435       0.000000
      0.514582       0.956255       0.000000
      0.500000       1.000000       0.000000
      0.333333       1.000000       0.000000
      0.514582       0.956255       0.000000
      0.664819       0.954435       0.000000
      0.666667       1.000000       0.000000
      0.500000       1.000000       0.000000
      0.662887       0.906804       0.000000
      0.792195       0.896655       0.000000
      0.813047       0.949038       0.000000
      0.664819       0.954435       0.000000
      0.792195       0.896655       0.000000
      0.913807       0.880474       0.000000
      0.956904       0.940237       0.000000
      0.813047       0.949038       0.000000
      0.664819       0.954435       0.000000
      0.813047       0.949038       0.000000
      0.833333       1.000000       0.000000
      0.666667       1.000000       0.000000
      0.813047       0.949038       0.000000
      0.956904       0.940237       0.000000
      1.000000       1.000000       0.000000
      0.833333       1.000000       0.000000
      0.458579       0.358579       0.000000
      0.428341       0.397369       0.000000
      0.351758       0.356122       0.000000
      0.382149       0.298816       0.000000
      0.428341       0.397369       0.000000
      0.407483       0.445805       0.000000
      0.331305       0.424779       0.000000
      0.351758       0.356122       0.000000
      0.382149       0.298816       0.000000
      0.351758       0.356122       0.000000
      0.277372       0.316058       0.000000
      0.305719       0.239052       0.000000
      0.351758       0.356122       0.000000
      0.331305       0.424779       0.000000
      0.258747       0.404752       0.000000
      0.277372       0.316058       0.000000
      0.407483       0.445805       0.000000
      0.400000       0.500000       0.000000
      0.324066       0.500000       0.000000
      0.331305       0.424779       0.000000
      0.400000       0.500000       0.000000
      0.407483       0.554195       0.000000
      0.331305       0.575221       0.000000
      0.324066       0.500000       0.000000
      0.331305       0.424779       0.000000
      0.324066       0.500000       0.000000
      0.252241       0.500000       0.000000
      0.258747       0.404752       0.000000
      0.324066       0.500000       0.000000
      0.331305       0.575221       0.000000
      0.258747       0.595248       0.000000
      0.252241       0.500000       0.000000
      0.407483       0.554195       0.000000
      0.428341       0.602631       0.000000
      0.351758       0.643878       0.000000
      0.331305       0.575221       0.000000
      0.428341       0.602631       0.000000
      0.458579       0.641421       0.000000
      0.382149       0.701184       0.000000
      0.351758       0.643878       0.000000
      0.331305       0.575221       0.000000
      0.351758       0.643878       0.000000
      0.277372       0.683942       0.000000
      0.258747       0.595248       0.000000
      0.351758       0.643878       0.000000
      0.382149       0.701184       0.000000
      0.305719       0.760948       0.000000
      0.277372       0.683942       0.000000
      0.305719       0.239052       0.000000
      0.277372       0.316058       0.000000
      0.205089       0.277126       0.000000
      0.229289       0.179289       0.000000
      0.277372       0.316058       0.000000
      0.258747       0.404752       0.000000
      0.189557       0.385654       0.000000
      0.205089       0.277126       0.000000
      0.229289       0.179289       0.000000
      0.205089       0.277126       0.000000
      0.134820       0.239280       0.000000
      0.152860       0.119526       0.000000
      0.205089       0.277126       0.000000
      0.189557       0.385654       0.000000
      0.123505       0.367423       0.000000
      0.134820       0.239280       0.000000
      0.258747       0.404752       0.000000
      0.252241       0.500000       0.000000
      0.184198       0.500000       0.000000
      0.189557       0.385654       0.000000
      0.252241       0.500000       0.000000
      0.258747       0.595248       0.000000
      0.189557       0.614346       0.000000
      0.184198       0.500000       0.000000
      0.189557       0.385654       0.000000
      0.184198       0.500000       0.000000
      0.119648       0.500000       0.000000
      0.123505       0.367423       0.000000
[...]
POINT_DATA   576
VECTORS U float 
      0.000385       0.005000       0.000000
      0.000199       0.005357       0.000000
      0.000033       0.005089       0.000000
      0.000254       0.004637       0.000000
      0.000199       0.005357       0.000000
      0.000002       0.005596       0.000000
     -0.000113       0.005492       0.000000
      0.000033       0.005089       0.000000
      0.000254       0.004637       0.000000
      0.000033       0.005089       0.000000
      0.000058       0.005064       0.000000
      0.000322       0.004684       0.000000
      0.000033       0.005089       0.000000
     -0.000113       0.005492       0.000000
     -0.000125       0.005449       0.000000
      0.000058       0.005064       0.000000
      0.000002       0.005596       0.000000
     -0.000201       0.005693       0.000000
     -0.000189       0.005718       0.000000
     -0.000113       0.005492       0.000000
     -0.000201       0.005693       0.000000
     -0.000423       0.005643       0.000000
     -0.000263       0.005679       0.000000
     -0.000189       0.005718       0.000000
     -0.000113       0.005492       0.000000
     -0.000189       0.005718       0.000000
     -0.000188       0.005715       0.000000
     -0.000125       0.005449       0.000000
     -0.000189       0.005718       0.000000
     -0.000263       0.005679       0.000000
     -0.000199       0.005705       0.000000
     -0.000188       0.005715       0.000000
     -0.000423       0.005643       0.000000
     -0.000674       0.005445       0.000000
     -0.000399       0.005379       0.000000
     -0.000263       0.005679       0.000000
     -0.000674       0.005445       0.000000
     -0.000948       0.005115       0.000000
     -0.000637       0.004918       0.000000
     -0.000399       0.005379       0.000000
     -0.000263       0.005679       0.000000
     -0.000399       0.005379       0.000000
     -0.000288       0.005402       0.000000
     -0.000199       0.005705       0.000000
     -0.000399       0.005379       0.000000
     -0.000637       0.004918       0.000000
     -0.000512       0.004948       0.000000
     -0.000288       0.005402       0.000000
      0.000322       0.004684       0.000000
      0.000058       0.005064       0.000000
      0.000121       0.005174       0.000000
      0.000420       0.004886       0.000000
      0.000058       0.005064       0.000000
     -0.000125       0.005449       0.000000
     -0.000105       0.005484       0.000000
      0.000121       0.005174       0.000000
      0.000420       0.004886       0.000000
      0.000121       0.005174       0.000000
      0.000197       0.005362       0.000000
      0.000536       0.005162       0.000000
      0.000121       0.005174       0.000000
     -0.000105       0.005484       0.000000
     -0.000075       0.005576       0.000000
      0.000197       0.005362       0.000000
     -0.000125       0.005449       0.000000
     -0.000188       0.005715       0.000000
     -0.000182       0.005730       0.000000
     -0.000105       0.005484       0.000000
     -0.000188       0.005715       0.000000
     -0.000199       0.005705       0.000000
     -0.000165       0.005740       0.000000
     -0.000182       0.005730       0.000000
     -0.000105       0.005484       0.000000
     -0.000182       0.005730       0.000000
     -0.000176       0.005765       0.000000
     -0.000075       0.005576       0.000000
     -0.000182       0.005730       0.000000
     -0.000165       0.005740       0.000000
     -0.000145       0.005783       0.000000
     -0.000176       0.005765       0.000000
     -0.000199       0.005705       0.000000
     -0.000288       0.005402       0.000000
     -0.000229       0.005473       0.000000
     -0.000165       0.005740       0.000000
     -0.000288       0.005402       0.000000
     -0.000512       0.004948       0.000000
     -0.000443       0.005066       0.000000
     -0.000229       0.005473       0.000000
     -0.000165       0.005740       0.000000
     -0.000229       0.005473       0.000000
     -0.000197       0.005577       0.000000
     -0.000145       0.005783       0.000000
     -0.000229       0.005473       0.000000
     -0.000443       0.005066       0.000000
     -0.000424       0.005256       0.000000
     -0.000197       0.005577       0.000000
      0.000536       0.005162       0.000000
      0.000197       0.005362       0.000000
      0.000292       0.005603       0.000000
      0.000686       0.005489       0.000000
      0.000197       0.005362       0.000000
     -0.000075       0.005576       0.000000
     -0.000036       0.005711       0.000000
      0.000292       0.005603       0.000000
      0.000686       0.005489       0.000000
      0.000292       0.005603       0.000000
      0.000413       0.005882       0.000000
      0.000892       0.005882       0.000000
      0.000292       0.005603       0.000000
     -0.000036       0.005711       0.000000
      0.000015       0.005882       0.000000
      0.000413       0.005882       0.000000
     -0.000075       0.005576       0.000000
     -0.000176       0.005765       0.000000
     -0.000171       0.005817       0.000000
     -0.000036       0.005711       0.000000
     -0.000176       0.005765       0.000000
     -0.000145       0.005783       0.000000
     -0.000134       0.005832       0.000000
     -0.000171       0.005817       0.000000
     -0.000036       0.005711       0.000000
     -0.000171       0.005817       0.000000
     -0.000167       0.005882       0.000000
      0.000015       0.005882       0.000000
     -0.000171       0.005817       0.000000
     -0.000134       0.005832       0.000000
     -0.000130       0.005882       0.000000
     -0.000167       0.005882       0.000000
     -0.000145       0.005783       0.000000
     -0.000197       0.005577       0.000000
     -0.000188       0.005714       0.000000
     -0.000134       0.005832       0.000000
     -0.000197       0.005577       0.000000
     -0.000424       0.005256       0.000000
     -0.000461       0.005528       0.000000
     -0.000188       0.005714       0.000000
     -0.000134       0.005832       0.000000
     -0.000188       0.005714       0.000000
     -0.000202       0.005882       0.000000
     -0.000130       0.005882       0.000000
     -0.000188       0.005714       0.000000
     -0.000461       0.005528       0.000000
     -0.000554       0.005882       0.000000
     -0.000202       0.005882       0.000000
      0.000335       0.000761       0.000000
      0.000511       0.001231       0.000000
      0.000498       0.001616       0.000000
      0.000203       0.001109       0.000000
      0.000511       0.001231       0.000000
      0.000648       0.001907       0.000000
      0.000826       0.002220       0.000000
      0.000498       0.001616       0.000000
      0.000203       0.001109       0.000000
      0.000498       0.001616       0.000000
      0.000568       0.001618       0.000000
      0.000243       0.001059       0.000000
      0.000498       0.001616       0.000000
      0.000826       0.002220       0.000000
      0.000933       0.002257       0.000000
      0.000568       0.001618       0.000000
      0.000648       0.001907       0.000000
      0.000689       0.002859       0.000000
      0.001000       0.002873       0.000000
      0.000826       0.002220       0.000000
      0.000689       0.002859       0.000000
      0.000674       0.003820       0.000000
      0.000860       0.003522       0.000000
      0.001000       0.002873       0.000000
      0.000826       0.002220       0.000000
      0.001000       0.002873       0.000000
      0.001121       0.002882       0.000000
      0.000933       0.002257       0.000000
      0.001000       0.002873       0.000000
      0.000860       0.003522       0.000000
      0.000968       0.003500       0.000000
      0.001121       0.002882       0.000000
      0.000674       0.003820       0.000000
      0.000557       0.004511       0.000000
      0.000550       0.004122       0.000000
      0.000860       0.003522       0.000000
      0.000557       0.004511       0.000000
      0.000385       0.005000       0.000000
      0.000254       0.004637       0.000000
      0.000550       0.004122       0.000000
      0.000860       0.003522       0.000000
      0.000550       0.004122       0.000000
      0.000632       0.004126       0.000000
      0.000968       0.003500       0.000000
      0.000550       0.004122       0.000000
      0.000254       0.004637       0.000000
      0.000322       0.004684       0.000000
      0.000632       0.004126       0.000000
      0.000243       0.001059       0.000000
      0.000568       0.001618       0.000000
      0.000648       0.001509       0.000000
      0.000286       0.000865       0.000000
      0.000568       0.001618       0.000000
      0.000933       0.002257       0.000000
      0.001038       0.002219       0.000000
      0.000648       0.001509       0.000000
      0.000286       0.000865       0.000000
      0.000648       0.001509       0.000000
      0.000721       0.001384       0.000000
      0.000294       0.000614       0.000000
      0.000648       0.001509       0.000000
      0.001038       0.002219       0.000000
      0.001146       0.002177       0.000000
      0.000721       0.001384       0.000000
      0.000933       0.002257       0.000000
      0.001121       0.002882       0.000000
      0.001233       0.002893       0.000000
      0.001038       0.002219       0.000000
      0.001121       0.002882       0.000000
      0.000968       0.003500       0.000000
      0.001077       0.003559       0.000000
      0.001233       0.002893       0.000000
      0.001038       0.002219       0.000000
      0.001233       0.002893       0.000000
      0.001353       0.002906       0.000000
      0.001146       0.002177       0.000000
      0.001233       0.002893       0.000000
      0.001077       0.003559       0.000000
      0.001188       0.003630       0.000000
      0.001353       0.002906       0.000000
      0.000968       0.003500       0.000000
      0.000632       0.004126       0.000000
      0.000731       0.004251       0.000000
      0.001077       0.003559       0.000000
      0.000632       0.004126       0.000000
      0.000322       0.004684       0.000000
      0.000420       0.004886       0.000000
      0.000731       0.004251       0.000000
      0.001077       0.003559       0.000000
      0.000731       0.004251       0.000000
      0.000830       0.004407       0.000000
      0.001188       0.003630       0.000000
      0.000731       0.004251       0.000000
      0.000420       0.004886       0.000000
      0.000536       0.005162       0.000000
      0.000830       0.004407       0.000000
      0.000294       0.000614       0.000000
      0.000721       0.001384       0.000000
      0.000785       0.001291       0.000000
      0.000238       0.000338       0.000000
      0.000721       0.001384       0.000000
      0.001146       0.002177       0.000000
      0.001248       0.002162       0.000000
      0.000785       0.001291       0.000000
      0.000238       0.000338       0.000000
      0.000785       0.001291       0.000000
      0.000840       0.001248       0.000000
      0.000000       0.000000       0.000000
      0.000785       0.001291       0.000000
      0.001248       0.002162       0.000000
      0.001338       0.002196       0.000000
      0.000840       0.001248       0.000000
      0.001146       0.002177       0.000000
      0.001353       0.002906       0.000000
      0.001475       0.002919       0.000000
      0.001248       0.002162       0.000000
      0.001353       0.002906       0.000000
      0.001188       0.003630       0.000000
      0.001297       0.003680       0.000000
      0.001475       0.002919       0.000000
      0.001248       0.002162       0.000000
      0.001475       0.002919       0.000000
      0.001586       0.002929       0.000000
      0.001338       0.002196       0.000000
      0.001475       0.002919       0.000000
      0.001297       0.003680       0.000000
      0.001399       0.003678       0.000000
      0.001586       0.002929       0.000000
      0.001188       0.003630       0.000000
      0.000830       0.004407       0.000000
      0.000932       0.004557       0.000000
      0.001297       0.003680       0.000000
      0.000830       0.004407       0.000000
      0.000536       0.005162       0.000000
      0.000686       0.005489       0.000000
      0.000932       0.004557       0.000000
      0.001297       0.003680       0.000000
      0.000932       0.004557       0.000000
      0.001047       0.004688       0.000000
      0.001399       0.003678       0.000000
      0.000932       0.004557       0.000000
      0.000686       0.005489       0.000000
      0.000892       0.005882       0.000000
      0.001047       0.004688       0.000000
     -0.000890       0.000713       0.000000
     -0.000612       0.000384       0.000000
     -0.000327       0.000455       0.000000
     -0.000565       0.000918       0.000000
     -0.000612       0.000384       0.000000
     -0.000371       0.000189       0.000000
     -0.000206       0.000161       0.000000
     -0.000327       0.000455       0.000000
     -0.000565       0.000918       0.000000
     -0.000327       0.000455       0.000000
     -0.000192       0.000439       0.000000
     -0.000414       0.000896       0.000000
     -0.000327       0.000455       0.000000
     -0.000206       0.000161       0.000000
     -0.000123       0.000144       0.000000
     -0.000192       0.000439       0.000000
     -0.000371       0.000189       0.000000
     -0.000176       0.000135       0.000000
     -0.000156       0.000116       0.000000
     -0.000206       0.000161       0.000000
     -0.000176       0.000135       0.000000
     -0.000007       0.000216       0.000000
     -0.000111       0.000312       0.000000
     -0.000156       0.000116       0.000000
     -0.000206       0.000161       0.000000
     -0.000156       0.000116       0.000000
     -0.000144       0.000125       0.000000
     -0.000123       0.000144       0.000000
     -0.000156       0.000116       0.000000
     -0.000111       0.000312       0.000000
     -0.000127       0.000354       0.000000
     -0.000144       0.000125       0.000000
     -0.000007       0.000216       0.000000
      0.000161       0.000429       0.000000
      0.000003       0.000680       0.000000
     -0.000111       0.000312       0.000000
      0.000161       0.000429       0.000000
      0.000335       0.000761       0.000000
      0.000203       0.001109       0.000000
      0.000003       0.000680       0.000000
     -0.000111       0.000312       0.000000
      0.000003       0.000680       0.000000
      0.000009       0.000700       0.000000
     -0.000127       0.000354       0.000000
      0.000003       0.000680       0.000000
      0.000203       0.001109       0.000000
      0.000243       0.001059       0.000000
      0.000009       0.000700       0.000000
     -0.000414       0.000896       0.000000
     -0.000192       0.000439       0.000000
     -0.000102       0.000374       0.000000
     -0.000312       0.000784       0.000000
     -0.000192       0.000439       0.000000
     -0.000123       0.000144       0.000000
     -0.000068       0.000121       0.000000
     -0.000102       0.000374       0.000000
     -0.000312       0.000784       0.000000
     -0.000102       0.000374       0.000000
     -0.000038       0.000273       0.000000
     -0.000245       0.000599       0.000000
     -0.000102       0.000374       0.000000
     -0.000068       0.000121       0.000000
     -0.000028       0.000089       0.000000
     -0.000038       0.000273       0.000000
     -0.000123       0.000144       0.000000
     -0.000144       0.000125       0.000000
     -0.000126       0.000120       0.000000
     -0.000068       0.000121       0.000000
     -0.000144       0.000125       0.000000
     -0.000127       0.000354       0.000000
     -0.000112       0.000324       0.000000
     -0.000126       0.000120       0.000000
     -0.000068       0.000121       0.000000
     -0.000126       0.000120       0.000000
     -0.000099       0.000096       0.000000
     -0.000028       0.000089       0.000000
     -0.000126       0.000120       0.000000
     -0.000112       0.000324       0.000000
     -0.000085       0.000243       0.000000
     -0.000099       0.000096       0.000000
     -0.000127       0.000354       0.000000
      0.000009       0.000700       0.000000
      0.000037       0.000592       0.000000
     -0.000112       0.000324       0.000000
      0.000009       0.000700       0.000000
      0.000243       0.001059       0.000000
      0.000286       0.000865       0.000000
      0.000037       0.000592       0.000000
     -0.000112       0.000324       0.000000
      0.000037       0.000592       0.000000
      0.000055       0.000416       0.000000
     -0.000085       0.000243       0.000000
      0.000037       0.000592       0.000000
      0.000286       0.000865       0.000000
      0.000294       0.000614       0.000000
      0.000055       0.000416       0.000000
     -0.000245       0.000599       0.000000
     -0.000038       0.000273       0.000000
     -0.000001       0.000144       0.000000
     -0.000189       0.000336       0.000000
     -0.000038       0.000273       0.000000
     -0.000028       0.000089       0.000000
     -0.000004       0.000050       0.000000
     -0.000001       0.000144       0.000000
     -0.000189       0.000336       0.000000
     -0.000001       0.000144       0.000000
      0.000000       0.000000       0.000000
      0.000000       0.000000       0.000000
     -0.000001       0.000144       0.000000
     -0.000004       0.000050       0.000000
      0.000000       0.000000       0.000000
      0.000000       0.000000       0.000000
     -0.000028       0.000089       0.000000
     -0.000099       0.000096       0.000000
     -0.000061       0.000056       0.000000
     -0.000004       0.000050       0.000000
     -0.000099       0.000096       0.000000
     -0.000085       0.000243       0.000000
     -0.000048       0.000129       0.000000
     -0.000061       0.000056       0.000000
     -0.000004       0.000050       0.000000
     -0.000061       0.000056       0.000000
      0.000000       0.000000       0.000000
      0.000000       0.000000       0.000000
     -0.000061       0.000056       0.000000
     -0.000048       0.000129       0.000000
      0.000000       0.000000       0.000000
      0.000000       0.000000       0.000000
     -0.000085       0.000243       0.000000
      0.000055       0.000416       0.000000
      0.000048       0.000210       0.000000
     -0.000048       0.000129       0.000000
      0.000055       0.000416       0.000000
      0.000294       0.000614       0.000000
      0.000238       0.000338       0.000000
      0.000048       0.000210       0.000000
     -0.000048       0.000129       0.000000
      0.000048       0.000210       0.000000
      0.000000       0.000000       0.000000
      0.000000       0.000000       0.000000
      0.000048       0.000210       0.000000
      0.000238       0.000338       0.000000
      0.000000       0.000000       0.000000
      0.000000       0.000000       0.000000
     -0.000890       0.000713       0.000000
     -0.001195       0.001191       0.000000
     -0.000985       0.001423       0.000000
     -0.000565       0.000918       0.000000
     -0.001195       0.001191       0.000000
     -0.001462       0.001889       0.000000
     -0.001500       0.002070       0.000000
     -0.000985       0.001423       0.000000
     -0.000565       0.000918       0.000000
     -0.000985       0.001423       0.000000
     -0.000859       0.001449       0.000000