# vtk DataFile Version 2.0
time_10.vtk
ASCII
DATASET UNSTRUCTURED_GRID
POINTS   576 float
      0.458579       0.641421       0.000000
      0.497369       0.671659       0.000000
      0.438243       0.730363       0.000000
      0.382149       0.701184       0.000000
      0.497369       0.671659       0.000000
      0.545805       0.692517       0.000000
      0.506084       0.750000       0.000000
      0.438243       0.730363       0.000000
      0.382149       0.701184       0.000000
      0.438243       0.730363       0.000000
      0.380813       0.787383       0.000000
      0.305719       0.760948       0.000000
      0.438243       0.730363       0.000000
      0.506084       0.750000       0.000000
      0.468251       0.804752       0.000000
      0.380813       0.787383       0.000000
      0.545805       0.692517       0.000000
      0.600000       0.700000       0.000000
      0.581017       0.756950       0.000000
      0.506084       0.750000       0.000000
      0.600000       0.700000       0.000000
      0.654195       0.692517       0.000000
      0.656527       0.750000       0.000000
      0.581017       0.756950       0.000000
      0.506084       0.750000       0.000000
      0.581017       0.756950       0.000000
      0.563060       0.810819       0.000000
      0.468251       0.804752       0.000000
      0.581017       0.756950       0.000000
      0.656527       0.750000       0.000000
      0.658747       0.804752       0.000000
      0.563060       0.810819       0.000000
      0.654195       0.692517       0.000000
      0.702631       0.671659       0.000000
      0.725999       0.730363       0.000000
      0.656527       0.750000       0.000000
      0.702631       0.671659       0.000000
      0.741421       0.641421       0.000000
      0.784518       0.701184       0.000000
      0.725999       0.730363       0.000000
      0.656527       0.750000       0.000000
      0.725999       0.730363       0.000000
      0.748697       0.787383       0.000000
      0.658747       0.804752       0.000000
      0.725999       0.730363       0.000000
      0.784518       0.701184       0.000000
      0.827614       0.760948       0.000000
      0.748697       0.787383       0.000000
      0.305719       0.760948       0.000000
      0.380813       0.787383       0.000000
      0.325006       0.842791       0.000000
      0.229289       0.820711       0.000000
      0.380813       0.787383       0.000000
      0.468251       0.804752       0.000000
      0.432173       0.856962       0.000000
      0.325006       0.842791       0.000000
      0.229289       0.820711       0.000000
      0.325006       0.842791       0.000000
      0.270755       0.896655       0.000000
      0.152860       0.880474       0.000000
      0.325006       0.842791       0.000000
      0.432173       0.856962       0.000000
      0.397732       0.906804       0.000000
      0.270755       0.896655       0.000000
      0.468251       0.804752       0.000000
      0.563060       0.810819       0.000000
      0.546050       0.861851       0.000000
      0.432173       0.856962       0.000000
      0.563060       0.810819       0.000000
      0.658747       0.804752       0.000000
      0.660865       0.856962       0.000000
      0.546050       0.861851       0.000000
      0.432173       0.856962       0.000000
      0.546050       0.861851       0.000000
      0.529912       0.910264       0.000000
      0.397732       0.906804       0.000000
      0.546050       0.861851       0.000000
      0.660865       0.856962       0.000000
      0.662887       0.906804       0.000000
      0.529912       0.910264       0.000000
      0.658747       0.804752       0.000000
      0.748697       0.787383       0.000000
      0.770753       0.842791       0.000000
      0.660865       0.856962       0.000000
      0.748697       0.787383       0.000000
      0.827614       0.760948       0.000000
      0.870711       0.820711       0.000000
      0.770753       0.842791       0.000000
      0.660865       0.856962       0.000000
      0.770753       0.842791       0.000000
      0.792195       0.896655       0.000000
      0.662887       0.906804       0.000000
      0.770753       0.842791       0.000000
      0.870711       0.820711       0.000000
      0.913807       0.880474       0.000000
      0.792195       0.896655       0.000000
      0.152860       0.880474       0.000000
      0.270755       0.896655       0.000000
      0.217995       0.949038       0.000000
      0.076430       0.940237       0.000000
      0.270755       0.896655       0.000000
      0.397732       0.906804       0.000000
      0.364819       0.954435       0.000000
      0.217995       0.949038       0.000000
      0.076430       0.940237       0.000000
      0.217995       0.949038       0.000000
      0.166667       1.000000       0.000000
      0.000000       1.000000       0.000000
      0.217995       0.949038       0.000000
      0.364819       0.954435       0.000000
      0.333333       1.000000       0.000000
      0.166667       1.000000       0.000000
      0.397732       0.906804       0.000000
      0.529912       0.910264       0.000000
      0.514582       0.956255       0.000000
      0.364819       0.954435       0.000000
      0.529912       0.910264       0.000000
      0.662887       0.906804       0.000000
      0.664819       0.954435       0.000000
      0.514582       0.956255       0.000000
      0.364819       0.954435       0.000000
      0.514582       0.956255       0.000000
      0.500000       1.000000       0.000000
      0.333333       1.000000       0.000000
      0.514582       0.956255       0.000000
      0.664819       0.954435       0.000000
      0.666667       1.000000       0.000000
      0.500000       1.000000       0.000000
      0.662887       0.906804       0.000000
      0.792195       0.896655       0.000000
      0.813047       0.949038       0.000000
      0.664819       0.954435       0.000000
      0.792195       0.896655       0.000000
      0.913807       0.880474       0.000000
      0.956904       0.940237       0.000000
      0.813047       0.949038       0.000000
      0.664819       0.954435       0.000000
      0.813047       0.949038       0.000000
      0.833333       1.000000       0.000000
      0.666667       1.000000       0.000000
      0.813047       0.949038       0.000000
      0.956904       0.940237       0.000000
      1.000000       1.000000       0.000000
      0.833333       1.000000       0.000000
      0.458579       0.358579       0.000000
      0.428341       0.397369       0.000000
      0.351758       0.356122       0.000000
      0.382149       0.298816       0.000000
      0.428341       0.397369       0.000000
      0.407483       0.445805       0.000000
      0.331305       0.424779       0.000000
      0.351758       0.356122       0.000000
      0.382149       0.298816       0.000000
      0.351758       0.356122       0.000000
      0.277372       0.316058       0.000000
      0.305719       0.239052       0.000000
      0.351758       0.356122       0.000000
      0.331305       0.424779       0.000000
      0.258747       0.404752       0.000000
      0.277372       0.316058       0.000000
      0.407483       0.445805       0.000000
      0.400000       0.500000       0.000000
      0.324066       0.500000       0.000000
      0.331305       0.424779       0.000000
      0.400000       0.500000       0.000000
      0.407483       0.554195       0.000000
      0.331305       0.575221       0.000000
      0.324066       0.500000       0.000000
      0.331305       0.424779       0.000000
      0.324066       0.500000       0.000000
      0.252241       0.500000       0.000000
      0.258747       0.404752       0.000000
      0.324066       0.500000       0.000000
      0.331305       0.575221       0.000000
      0.258747       0.595248       0.000000
      0.252241       0.500000       0.000000
      0.407483       0.554195       0.000000
      0.428341       0.602631       0.000000
      0.351758       0.643878       0.000000
      0.331305       0.575221       0.000000
      0.428341       0.602631       0.000000
      0.458579       0.641421       0.000000
      0.382149       0.701184       0.000000
      0.351758       0.643878       0.000000
      0.331305       0.575221       0.000000
      0.351758       0.643878       0.000000
      0.277372       0.683942       0.000000
      0.258747       0.595248       0.000000
      0.351758       0.643878       0.000000
      0.382149       0.701184       0.000000
      0.305719       0.760948       0.000000
      0.277372       0.683942       0.000000
      0.305719       0.239052       0.000000
      0.277372       0.316058       0.000000
      0.205089       0.277126       0.000000
      0.229289       0.179289       0.000000
      0.277372       0.316058       0.000000
      0.258747       0.404752       0.000000
      0.189557       0.385654       0.000000
      0.205089       0.277126       0.000000
      0.229289       0.179289       0.000000
      0.205089       0.277126       0.000000
      0.134820       0.239280       0.000000
      0.152860       0.119526       0.000000
      0.205089       0.277126       0.000000
      0.189557       0.385654       0.000000
      0.123505       0.367423       0.000000
      0.134820       0.239280       0.000000
      0.258747       0.404752       0.000000
      0.252241       0.500000       0.000000
      0.184198       0.500000       0.000000
      0.189557       0.385654       0.000000
      0.252241       0.500000       0.000000
      0.258747       0.595248       0.000000
      0.189557       0.614346       0.000000
      0.184198       0.500000       0.000000
      0.189557       0.385654       0.000000
      0.184198       0.500000       0.000000
      0.119648       0.500000       0.000000
      0.123505       0.367423       0.000000
[...]
POINT_DATA   576
VECTORS U float 
      0.000371       0.004819       0.000000
      0.000191       0.005167       0.000000
      0.000032       0.004907       0.000000
      0.000246       0.004469       0.000000
      0.000191       0.005167       0.000000
      0.000001       0.005400       0.000000
     -0.000110       0.005299       0.000000
      0.000032       0.004907       0.000000
      0.000246       0.004469       0.000000
      0.000032       0.004907       0.000000
      0.000057       0.004885       0.000000
      0.000313       0.004519       0.000000
      0.000032       0.004907       0.000000
     -0.000110       0.005299       0.000000
     -0.000122       0.005258       0.000000
      0.000057       0.004885       0.000000
      0.000001       0.005400       0.000000
     -0.000196       0.005495       0.000000
     -0.000184       0.005519       0.000000
     -0.000110       0.005299       0.000000
     -0.000196       0.005495       0.000000
     -0.000411       0.005446       0.000000
     -0.000255       0.005481       0.000000
     -0.000184       0.005519       0.000000
     -0.000110       0.005299       0.000000
     -0.000184       0.005519       0.000000
     -0.000183       0.005517       0.000000
     -0.000122       0.005258       0.000000
     -0.000184       0.005519       0.000000
     -0.000255       0.005481       0.000000
     -0.000194       0.005507       0.000000
     -0.000183       0.005517       0.000000
     -0.000411       0.005446       0.000000
     -0.000654       0.005252       0.000000
     -0.000387       0.005189       0.000000
     -0.000255       0.005481       0.000000
     -0.000654       0.005252       0.000000
     -0.000917       0.004930       0.000000
     -0.000619       0.004741       0.000000
     -0.000387       0.005189       0.000000
     -0.000255       0.005481       0.000000
     -0.000387       0.005189       0.000000
     -0.000280       0.005212       0.000000
     -0.000194       0.005507       0.000000
     -0.000387       0.005189       0.000000
     -0.000619       0.004741       0.000000
     -0.000499       0.004772       0.000000
     -0.000280       0.005212       0.000000
      0.000313       0.004519       0.000000
      0.000057       0.004885       0.000000
      0.000119       0.004993       0.000000
      0.000409       0.004717       0.000000
      0.000057       0.004885       0.000000
     -0.000122       0.005258       0.000000
     -0.000101       0.005293       0.000000
      0.000119       0.004993       0.000000
      0.000409       0.004717       0.000000
      0.000119       0.004993       0.000000
      0.000194       0.005177       0.000000
      0.000522       0.004986       0.000000
      0.000119       0.004993       0.000000
     -0.000101       0.005293       0.000000
     -0.000071       0.005383       0.000000
      0.000194       0.005177       0.000000
     -0.000122       0.005258       0.000000
     -0.000183       0.005517       0.000000
     -0.000177       0.005532       0.000000
     -0.000101       0.005293       0.000000
     -0.000183       0.005517       0.000000
     -0.000194       0.005507       0.000000
     -0.000161       0.005541       0.000000
     -0.000177       0.005532       0.000000
     -0.000101       0.005293       0.000000
     -0.000177       0.005532       0.000000
     -0.000170       0.005567       0.000000
     -0.000071       0.005383       0.000000
     -0.000177       0.005532       0.000000
     -0.000161       0.005541       0.000000
     -0.000142       0.005584       0.000000
     -0.000170       0.005567       0.000000
     -0.000194       0.005507       0.000000
     -0.000280       0.005212       0.000000
     -0.000224       0.005282       0.000000
     -0.000161       0.005541       0.000000
     -0.000280       0.005212       0.000000
     -0.000499       0.004772       0.000000
     -0.000433       0.004888       0.000000
     -0.000224       0.005282       0.000000
     -0.000161       0.005541       0.000000
     -0.000224       0.005282       0.000000
     -0.000194       0.005385       0.000000
     -0.000142       0.005584       0.000000
     -0.000224       0.005282       0.000000
     -0.000433       0.004888       0.000000
     -0.000415       0.005074       0.000000
     -0.000194       0.005385       0.000000
      0.000522       0.004986       0.000000
      0.000194       0.005177       0.000000
      0.000287       0.005411       0.000000
      0.000668       0.005303       0.000000
      0.000194       0.005177       0.000000
     -0.000071       0.005383       0.000000
     -0.000032       0.005516       0.000000
      0.000287       0.005411       0.000000
      0.000668       0.005303       0.000000
      0.000287       0.005411       0.000000
      0.000404       0.005682       0.000000
      0.000867       0.005682       0.000000
      0.000287       0.005411       0.000000
     -0.000032       0.005516       0.000000
      0.000018       0.005682       0.000000
      0.000404       0.005682       0.000000
     -0.000071       0.005383       0.000000
     -0.000170       0.005567       0.000000
     -0.000165       0.005618       0.000000
     -0.000032       0.005516       0.000000
     -0.000170       0.005567       0.000000
     -0.000142       0.005584       0.000000
     -0.000131       0.005632       0.000000
     -0.000165       0.005618       0.000000
     -0.000032       0.005516       0.000000
     -0.000165       0.005618       0.000000
     -0.000162       0.005682       0.000000
      0.000018       0.005682       0.000000
     -0.000165       0.005618       0.000000
     -0.000131       0.005632       0.000000
     -0.000128       0.005682       0.000000
     -0.000162       0.005682       0.000000
     -0.000142       0.005584       0.000000
     -0.000194       0.005385       0.000000
     -0.000186       0.005518       0.000000
     -0.000131       0.005632       0.000000
     -0.000194       0.005385       0.000000
     -0.000415       0.005074       0.000000
     -0.000451       0.005339       0.000000
     -0.000186       0.005518       0.000000
     -0.000131       0.005632       0.000000
     -0.000186       0.005518       0.000000
     -0.000199       0.005682       0.000000
     -0.000128       0.005682       0.000000
     -0.000186       0.005518       0.000000
     -0.000451       0.005339       0.000000
     -0.000541       0.005682       0.000000
     -0.000199       0.005682       0.000000
      0.000322       0.000745       0.000000
      0.000491       0.001203       0.000000
      0.000481       0.001572       0.000000
      0.000196       0.001080       0.000000
      0.000491       0.001203       0.000000
      0.000622       0.001859       0.000000
      0.000794       0.002152       0.000000
      0.000481       0.001572       0.000000
      0.000196       0.001080       0.000000
      0.000481       0.001572       0.000000
      0.000548       0.001568       0.000000
      0.000235       0.001030       0.000000
      0.000481       0.001572       0.000000
      0.000794       0.002152       0.000000
      0.000897       0.002183       0.000000
      0.000548       0.001568       0.000000
      0.000622       0.001859       0.000000
      0.000665       0.002762       0.000000
      0.000959       0.002775       0.000000
      0.000794       0.002152       0.000000
      0.000665       0.002762       0.000000
      0.000648       0.003672       0.000000
      0.000827       0.003394       0.000000
      0.000959       0.002775       0.000000
      0.000794       0.002152       0.000000
      0.000959       0.002775       0.000000
      0.001076       0.002784       0.000000
      0.000897       0.002183       0.000000
      0.000959       0.002775       0.000000
      0.000827       0.003394       0.000000
      0.000932       0.003378       0.000000
      0.001076       0.002784       0.000000
      0.000648       0.003672       0.000000
      0.000535       0.004342       0.000000
      0.000531       0.003971       0.000000
      0.000827       0.003394       0.000000
      0.000535       0.004342       0.000000
      0.000371       0.004819       0.000000
      0.000246       0.004469       0.000000
      0.000531       0.003971       0.000000
      0.000827       0.003394       0.000000
      0.000531       0.003971       0.000000
      0.000611       0.003980       0.000000
      0.000932       0.003378       0.000000
      0.000531       0.003971       0.000000
      0.000246       0.004469       0.000000
      0.000313       0.004519       0.000000
      0.000611       0.003980       0.000000
      0.000235       0.001030       0.000000
      0.000548       0.001568       0.000000
      0.000626       0.001461       0.000000
      0.000277       0.000839       0.000000
      0.000548       0.001568       0.000000
      0.000897       0.002183       0.000000
      0.000999       0.002145       0.000000
      0.000626       0.001461       0.000000
      0.000277       0.000839       0.000000
      0.000626       0.001461       0.000000
      0.000696       0.001338       0.000000
      0.000286       0.000595       0.000000
      0.000626       0.001461       0.000000
      0.000999       0.002145       0.000000
      0.001103       0.002103       0.000000
      0.000696       0.001338       0.000000
      0.000897       0.002183       0.000000
      0.001076       0.002784       0.000000
      0.001185       0.002795       0.000000
      0.000999       0.002145       0.000000
      0.001076       0.002784       0.000000
      0.000932       0.003378       0.000000
      0.001037       0.003437       0.000000
      0.001185       0.002795       0.000000
      0.000999       0.002145       0.000000
      0.001185       0.002795       0.000000
      0.001301       0.002808       0.000000
      0.001103       0.002103       0.000000
      0.001185       0.002795       0.000000
      0.001037       0.003437       0.000000
      0.001145       0.003508       0.000000
      0.001301       0.002808       0.000000
      0.000932       0.003378       0.000000
      0.000611       0.003980       0.000000
      0.000707       0.004104       0.000000
      0.001037       0.003437       0.000000
      0.000611       0.003980       0.000000
      0.000313       0.004519       0.000000
      0.000409       0.004717       0.000000
      0.000707       0.004104       0.000000
      0.001037       0.003437       0.000000
      0.000707       0.004104       0.000000
      0.000804       0.004257       0.000000
      0.001145       0.003508       0.000000
      0.000707       0.004104       0.000000
      0.000409       0.004717       0.000000
      0.000522       0.004986       0.000000
      0.000804       0.004257       0.000000
      0.000286       0.000595       0.000000
      0.000696       0.001338       0.000000
      0.000758       0.001247       0.000000
      0.000231       0.000327       0.000000
      0.000696       0.001338       0.000000
      0.001103       0.002103       0.000000
      0.001202       0.002087       0.000000
      0.000758       0.001247       0.000000
      0.000231       0.000327       0.000000
      0.000758       0.001247       0.000000
      0.000812       0.001204       0.000000
      0.000000       0.000000       0.000000
      0.000758       0.001247       0.000000
      0.001202       0.002087       0.000000
      0.001290       0.002119       0.000000
      0.000812       0.001204       0.000000
      0.001103       0.002103       0.000000
      0.001301       0.002808       0.000000
      0.001419       0.002820       0.000000
      0.001202       0.002087       0.000000
      0.001301       0.002808       0.000000
      0.001145       0.003508       0.000000
      0.001251       0.003557       0.000000
      0.001419       0.002820       0.000000
      0.001202       0.002087       0.000000
      0.001419       0.002820       0.000000
      0.001527       0.002831       0.000000
      0.001290       0.002119       0.000000
      0.001419       0.002820       0.000000
      0.001251       0.003557       0.000000
      0.001350       0.003558       0.000000
      0.001527       0.002831       0.000000
      0.001145       0.003508       0.000000
      0.000804       0.004257       0.000000
      0.000902       0.004404       0.000000
      0.001251       0.003557       0.000000
      0.000804       0.004257       0.000000
      0.000522       0.004986       0.000000
      0.000668       0.005303       0.000000
      0.000902       0.004404       0.000000
      0.001251       0.003557       0.000000
      0.000902       0.004404       0.000000
      0.001014       0.004532       0.000000
      0.001350       0.003558       0.000000
      0.000902       0.004404       0.000000
      0.000668       0.005303       0.000000
      0.000867       0.005682       0.000000
      0.001014       0.004532       0.000000
     -0.000862       0.000698       0.000000
     -0.000593       0.000377       0.000000
     -0.000317       0.000446       0.000000
     -0.000548       0.000896       0.000000
     -0.000593       0.000377       0.000000
     -0.000360       0.000186       0.000000
     -0.000200       0.000159       0.000000
     -0.000317       0.000446       0.000000
     -0.000548       0.000896       0.000000
     -0.000317       0.000446       0.000000
     -0.000187       0.000430       0.000000
     -0.000404       0.000873       0.000000
     -0.000317       0.000446       0.000000
     -0.000200       0.000159       0.000000
     -0.000120       0.000143       0.000000
     -0.000187       0.000430       0.000000
     -0.000360       0.000186       0.000000
     -0.000171       0.000133       0.000000
     -0.000153       0.000115       0.000000
     -0.000200       0.000159       0.000000
     -0.000171       0.000133       0.000000
     -0.000008       0.000213       0.000000
     -0.000109       0.000306       0.000000
     -0.000153       0.000115       0.000000
     -0.000200       0.000159       0.000000
     -0.000153       0.000115       0.000000
     -0.000141       0.000124       0.000000
     -0.000120       0.000143       0.000000
     -0.000153       0.000115       0.000000
     -0.000109       0.000306       0.000000
     -0.000124       0.000347       0.000000
     -0.000141       0.000124       0.000000
     -0.000008       0.000213       0.000000
      0.000155       0.000420       0.000000
      0.000002       0.000664       0.000000
     -0.000109       0.000306       0.000000
      0.000155       0.000420       0.000000
      0.000322       0.000745       0.000000
      0.000196       0.001080       0.000000
      0.000002       0.000664       0.000000
     -0.000109       0.000306       0.000000
      0.000002       0.000664       0.000000
      0.000009       0.000683       0.000000
     -0.000124       0.000347       0.000000
      0.000002       0.000664       0.000000
      0.000196       0.001080       0.000000
      0.000235       0.001030       0.000000
      0.000009       0.000683       0.000000
     -0.000404       0.000873       0.000000
     -0.000187       0.000430       0.000000
     -0.000100       0.000365       0.000000
     -0.000305       0.000762       0.000000
     -0.000187       0.000430       0.000000
     -0.000120       0.000143       0.000000
     -0.000066       0.000119       0.000000
     -0.000100       0.000365       0.000000
     -0.000305       0.000762       0.000000
     -0.000100       0.000365       0.000000
     -0.000038       0.000266       0.000000
     -0.000240       0.000582       0.000000
     -0.000100       0.000365       0.000000
     -0.000066       0.000119       0.000000
     -0.000027       0.000088       0.000000
     -0.000038       0.000266       0.000000
     -0.000120       0.000143       0.000000
     -0.000141       0.000124       0.000000
     -0.000122       0.000118       0.000000
     -0.000066       0.000119       0.000000
     -0.000141       0.000124       0.000000
     -0.000124       0.000347       0.000000
     -0.000109       0.000317       0.000000
     -0.000122       0.000118       0.000000
     -0.000066       0.000119       0.000000
     -0.000122       0.000118       0.000000
     -0.000097       0.000095       0.000000
     -0.000027       0.000088       0.000000
     -0.000122       0.000118       0.000000
     -0.000109       0.000317       0.000000
     -0.000083       0.000237       0.000000
     -0.000097       0.000095       0.000000
     -0.000124       0.000347       0.000000
      0.000009       0.000683       0.000000
      0.000037       0.000576       0.000000
     -0.000109       0.000317       0.000000
      0.000009       0.000683       0.000000
      0.000235       0.001030       0.000000
      0.000277       0.000839       0.000000
      0.000037       0.000576       0.000000
     -0.000109       0.000317       0.000000
      0.000037       0.000576       0.000000
      0.000054       0.000405       0.000000
     -0.000083       0.000237       0.000000
      0.000037       0.000576       0.000000
      0.000277       0.000839       0.000000
      0.000286       0.000595       0.000000
      0.000054       0.000405       0.000000
     -0.000240       0.000582       0.000000
     -0.000038       0.000266       0.000000
     -0.000002       0.000141       0.000000
     -0.000184       0.000327       0.000000
     -0.000038       0.000266       0.000000
     -0.000027       0.000088       0.000000
     -0.000004       0.000049       0.000000
     -0.000002       0.000141       0.000000
     -0.000184       0.000327       0.000000
     -0.000002       0.000141       0.000000
      0.000000       0.000000       0.000000
      0.000000       0.000000       0.000000
     -0.000002       0.000141       0.000000
     -0.000004       0.000049       0.000000
      0.000000       0.000000       0.000000
      0.000000       0.000000       0.000000
     -0.000027       0.000088       0.000000
     -0.000097       0.000095       0.000000
     -0.000059       0.000055       0.000000
     -0.000004       0.000049       0.000000
     -0.000097       0.000095       0.000000
     -0.000083       0.000237       0.000000
     -0.000046       0.000125       0.000000
     -0.000059       0.000055       0.000000
     -0.000004       0.000049       0.000000
     -0.000059       0.000055       0.000000
      0.000000       0.000000       0.000000
      0.000000       0.000000       0.000000
     -0.000059       0.000055       0.000000
     -0.000046       0.000125       0.000000
      0.000000       0.000000       0.000000
      0.000000       0.000000       0.000000
     -0.000083       0.000237       0.000000
      0.000054       0.000405       0.000000
      0.000047       0.000204       0.000000
     -0.000046       0.000125       0.000000
      0.000054       0.000405       0.000000
      0.000286       0.000595       0.000000
      0.000231       0.000327       0.000000
      0.000047       0.000204       0.000000
     -0.000046       0.000125       0.000000
      0.000047       0.000204       0.000000
      0.000000       0.000000       0.000000
      0.000000       0.000000       0.000000
      0.000047       0.000204       0.000000
      0.000231       0.000327       0.000000
      0.000000       0.000000       0.000000
      0.000000       0.000000       0.000000
     -0.000862       0.000698       0.000000
     -0.001154       0.001165       0.000000
     -0.000954       0.001387       0.000000
     -0.000548       0.000896       0.000000
     -0.001154       0.001165       0.000000
     -0.001409       0.001845       0.000000
     -0.001447       0.002014       0.000000
     -0.000954       0.001387       0.000000
     -0.000548       0.000896       0.000000
     -0.000954       0.001387       0.000000
     -0.000833       0.001409       0.000000