# vtk DataFile Version 2.0
time_10.vtk
ASCII
DATASET UNSTRUCTURED_GRID
POINTS  1152 float
      0.000000       0.000000       0.000000
      0.083333       0.000000       0.000000
      0.083333       0.083333       0.000000
      0.000000       0.083333       0.000000
      0.083333       0.000000       0.000000
      0.166667       0.000000       0.000000
      0.166667       0.083333       0.000000
      0.083333       0.083333       0.000000
      0.000000       0.083333       0.000000
      0.083333       0.083333       0.000000
      0.083333       0.166667       0.000000
      0.000000       0.166667       0.000000
      0.083333       0.083333       0.000000
      0.166667       0.083333       0.000000
      0.166667       0.166667       0.000000
      0.083333       0.166667       0.000000
      0.166667       0.000000       0.000000
      0.250000       0.000000       0.000000
      0.250000       0.083333       0.000000
      0.166667       0.083333       0.000000
      0.250000       0.000000       0.000000
      0.333333       0.000000       0.000000
      0.333333       0.083333       0.000000
      0.250000       0.083333       0.000000
      0.166667       0.083333       0.000000
      0.250000       0.083333       0.000000
      0.250000       0.166667       0.000000
      0.166667       0.166667       0.000000
      0.250000       0.083333       0.000000
      0.333333       0.083333       0.000000
      0.333333       0.166667       0.000000
      0.250000       0.166667       0.000000
      0.333333       0.000000       0.000000
      0.416667      -0.000000       0.000000
      0.416667       0.083333       0.000000
      0.333333       0.083333       0.000000
      0.416667      -0.000000       0.000000
      0.500000       0.000000       0.000000
      0.500000       0.083333       0.000000
      0.416667       0.083333       0.000000
      0.333333       0.083333       0.000000
      0.416667       0.083333       0.000000
      0.416667       0.166667       0.000000
      0.333333       0.166667       0.000000
      0.416667       0.083333       0.000000
      0.500000       0.083333       0.000000
      0.500000       0.166667       0.000000
      0.416667       0.166667       0.000000
      0.000000       0.166667       0.000000
      0.083333       0.166667       0.000000
      0.083333       0.250000       0.000000
      0.000000       0.250000       0.000000
      0.083333       0.166667       0.000000
      0.166667       0.166667       0.000000
      0.166667       0.250000       0.000000
      0.083333       0.250000       0.000000
      0.000000       0.250000       0.000000
      0.083333       0.250000       0.000000
      0.083333       0.333333       0.000000
      0.000000       0.333333       0.000000
      0.083333       0.250000       0.000000
      0.166667       0.250000       0.000000
      0.166667       0.333333       0.000000
      0.083333       0.333333       0.000000
      0.166667       0.166667       0.000000
      0.250000       0.166667       0.000000
      0.250000       0.250000       0.000000
      0.166667       0.250000       0.000000
      0.250000       0.166667       0.000000
      0.333333       0.166667       0.000000
      0.333333       0.250000       0.000000
      0.250000       0.250000       0.000000
      0.166667       0.250000       0.000000
      0.250000       0.250000       0.000000
      0.250000       0.333333       0.000000
      0.166667       0.333333       0.000000
      0.250000       0.250000       0.000000
      0.333333       0.250000       0.000000
      0.333333       0.333333       0.000000
      0.250000       0.333333       0.000000
      0.333333       0.166667       0.000000
      0.416667       0.166667       0.000000
      0.416667       0.250000       0.000000
      0.333333       0.250000       0.000000
      0.416667       0.166667       0.000000
      0.500000       0.166667       0.000000
      0.500000       0.250000       0.000000
      0.416667       0.250000       0.000000
      0.333333       0.250000       0.000000
      0.416667       0.250000       0.000000
      0.416667       0.333333       0.000000
      0.333333       0.333333       0.000000
      0.416667       0.250000       0.000000
      0.500000       0.250000       0.000000
      0.500000       0.333333       0.000000
      0.416667       0.333333       0.000000
      0.000000       0.333333       0.000000
      0.083333       0.333333       0.000000
      0.083333       0.416667       0.000000
     -0.000000       0.416667       0.000000
      0.083333       0.333333       0.000000
      0.166667       0.333333       0.000000
      0.166667       0.416667       0.000000
      0.083333       0.416667       0.000000
     -0.000000       0.416667       0.000000
      0.083333       0.416667       0.000000
      0.083333       0.500000       0.000000
      0.000000       0.500000       0.000000
      0.083333       0.416667       0.000000
      0.166667       0.416667       0.000000
      0.166667       0.500000       0.000000
      0.083333       0.500000       0.000000
      0.166667       0.333333       0.000000
      0.250000       0.333333       0.000000
      0.250000       0.416667       0.000000
      0.166667       0.416667       0.000000
      0.250000       0.333333       0.000000
      0.333333       0.333333       0.000000
      0.333333       0.416667       0.000000
      0.250000       0.416667       0.000000
      0.166667       0.416667       0.000000
      0.250000       0.416667       0.000000
      0.250000       0.500000       0.000000
      0.166667       0.500000       0.000000
      0.250000       0.416667       0.000000
      0.333333       0.416667       0.000000
      0.333333       0.500000       0.000000
      0.250000       0.500000       0.000000
      0.333333       0.333333       0.000000
      0.375000       0.333333       0.000000
      0.375000       0.375000       0.000000
      0.333333       0.375000       0.000000
      0.375000       0.333333       0.000000
      0.416667       0.333333       0.000000
      0.416667       0.375000       0.000000
      0.375000       0.375000       0.000000
      0.333333       0.375000       0.000000
      0.375000       0.375000       0.000000
      0.375000       0.416667       0.000000
      0.333333       0.416667       0.000000
      0.375000       0.375000       0.000000
      0.416667       0.375000       0.000000
      0.416667       0.416667       0.000000
      0.375000       0.416667       0.000000
      0.416667       0.333333       0.000000
      0.458333       0.333333       0.000000
      0.458333       0.375000       0.000000
      0.416667       0.375000       0.000000
      0.458333       0.333333       0.000000
      0.500000       0.333333       0.000000
      0.500000       0.375000       0.000000
      0.458333       0.375000       0.000000
      0.416667       0.375000       0.000000
      0.458333       0.375000       0.000000
      0.458333       0.416667       0.000000
      0.416667       0.416667       0.000000
      0.458333       0.375000       0.000000
      0.500000       0.375000       0.000000
      0.500000       0.416667       0.000000
      0.458333       0.416667       0.000000
      0.333333       0.416667       0.000000
      0.375000       0.416667       0.000000
      0.375000       0.458333       0.000000
      0.333333       0.458333       0.000000
      0.375000       0.416667       0.000000
      0.416667       0.416667       0.000000
      0.416667       0.458333       0.000000
      0.375000       0.458333       0.000000
      0.333333       0.458333       0.000000
      0.375000       0.458333       0.000000
      0.375000       0.500000       0.000000
      0.333333       0.500000       0.000000
      0.375000       0.458333       0.000000
      0.416667       0.458333       0.000000
      0.416667       0.500000       0.000000
      0.375000       0.500000       0.000000
      0.416667       0.416667       0.000000
      0.437500       0.416667       0.000000
      0.437500       0.437500       0.000000
      0.416667       0.437500       0.000000
      0.437500       0.416667       0.000000
      0.458333       0.416667       0.000000
      0.458333       0.437500       0.000000
      0.437500       0.437500       0.000000
      0.416667       0.437500       0.000000
      0.437500       0.437500       0.000000
      0.437500       0.458333       0.000000
      0.416667       0.458333       0.000000
      0.437500       0.437500       0.000000
      0.458333       0.437500       0.000000
      0.458333       0.458333       0.000000
      0.437500       0.458333       0.000000
      0.458333       0.416667       0.000000
      0.479167       0.416667       0.000000
      0.479167       0.437500       0.000000
      0.458333       0.437500       0.000000
      0.479167       0.416667       0.000000
      0.500000       0.416667       0.000000
      0.500000       0.437500       0.000000
      0.479167       0.437500       0.000000
      0.458333       0.437500       0.000000
      0.479167       0.437500       0.000000
      0.479167       0.458333       0.000000
      0.458333       0.458333       0.000000
      0.479167       0.437500       0.000000
      0.500000       0.437500       0.000000
      0.500000       0.458333       0.000000
      0.479167       0.458333       0.000000
      0.416667       0.458333       0.000000
      0.437500       0.458333       0.000000
      0.437500       0.479167       0.000000
      0.416667       0.479167       0.000000
      0.437500       0.458333       0.000000
      0.458333       0.458333       0.000000
      0.458333       0.479167       0.000000
      0.437500       0.479167       0.000000
      0.416667       0.479167       0.000000
      0.437500       0.479167       0.000000
      0.437500       0.500000       0.000000
      0.416667       0.500000       0.000000
[...]
POINT_DATA  1152
VECTORS U float 
      0.000000       0.000000       0.000000
      0.000000       0.000000       0.000000
      0.000071      -0.000018       0.000000
      0.000051      -0.000020       0.000000
      0.000000       0.000000       0.000000
      0.000000       0.000000       0.000000
      0.000092       0.000013       0.000000
      0.000071      -0.000018       0.000000
      0.000051      -0.000020       0.000000
      0.000071      -0.000018       0.000000
      0.000075      -0.000046       0.000000
      0.000050      -0.000092       0.000000
      0.000071      -0.000018       0.000000
      0.000092       0.000013       0.000000
      0.000099       0.000015       0.000000
      0.000075      -0.000046       0.000000
      0.000000       0.000000       0.000000
      0.000000       0.000000       0.000000
      0.000110       0.000054       0.000000
      0.000092       0.000013       0.000000
      0.000000       0.000000       0.000000
      0.000000       0.000000       0.000000
      0.000121       0.000107       0.000000
      0.000110       0.000054       0.000000
      0.000092       0.000013       0.000000
      0.000110       0.000054       0.000000
      0.000124       0.000097       0.000000
      0.000099       0.000015       0.000000
      0.000110       0.000054       0.000000
      0.000121       0.000107       0.000000
      0.000140       0.000210       0.000000
      0.000124       0.000097       0.000000
      0.000000       0.000000       0.000000
      0.000000       0.000000       0.000000
      0.000114       0.000173       0.000000
      0.000121       0.000107       0.000000
      0.000000       0.000000       0.000000
      0.000000       0.000000       0.000000
      0.000081       0.000242       0.000000
      0.000114       0.000173       0.000000
      0.000121       0.000107       0.000000
      0.000114       0.000173       0.000000
      0.000127       0.000357       0.000000
      0.000140       0.000210       0.000000
      0.000114       0.000173       0.000000
      0.000081       0.000242       0.000000
      0.000067       0.000519       0.000000
      0.000127       0.000357       0.000000
      0.000050      -0.000092       0.000000
      0.000075      -0.000046       0.000000
     -0.000001      -0.000078       0.000000
     -0.000025      -0.000171       0.000000
      0.000075      -0.000046       0.000000
      0.000099       0.000015       0.000000
      0.000020       0.000011       0.000000
     -0.000001      -0.000078       0.000000
     -0.000025      -0.000171       0.000000
     -0.000001      -0.000078       0.000000
     -0.000145      -0.000105       0.000000
     -0.000159      -0.000231       0.000000
     -0.000001      -0.000078       0.000000
      0.000020       0.000011       0.000000
     -0.000133       0.000003       0.000000
     -0.000145      -0.000105       0.000000
      0.000099       0.000015       0.000000
      0.000124       0.000097       0.000000
      0.000046       0.000127       0.000000
      0.000020       0.000011       0.000000
      0.000124       0.000097       0.000000
      0.000140       0.000210       0.000000
      0.000068       0.000300       0.000000
      0.000046       0.000127       0.000000
      0.000020       0.000011       0.000000
      0.000046       0.000127       0.000000
     -0.000117       0.000140       0.000000
     -0.000133       0.000003       0.000000
      0.000046       0.000127       0.000000
      0.000068       0.000300       0.000000
     -0.000097       0.000361       0.000000
     -0.000117       0.000140       0.000000
      0.000140       0.000210       0.000000
      0.000127       0.000357       0.000000
      0.000058       0.000544       0.000000
      0.000068       0.000300       0.000000
      0.000127       0.000357       0.000000
      0.000067       0.000519       0.000000
     -0.000020       0.000831       0.000000
      0.000058       0.000544       0.000000
      0.000068       0.000300       0.000000
      0.000058       0.000544       0.000000
     -0.000092       0.000715       0.000000
     -0.000097       0.000361       0.000000
      0.000058       0.000544       0.000000
     -0.000020       0.000831       0.000000
     -0.000174       0.001182       0.000000
     -0.000092       0.000715       0.000000
     -0.000159      -0.000231       0.000000
     -0.000145      -0.000105       0.000000
     -0.000320      -0.000119       0.000000
     -0.000322      -0.000258       0.000000
     -0.000145      -0.000105       0.000000
     -0.000133       0.000003       0.000000
     -0.000330      -0.000000       0.000000
     -0.000320      -0.000119       0.000000
     -0.000322      -0.000258       0.000000
     -0.000320      -0.000119       0.000000
     -0.000479      -0.000118       0.000000
     -0.000477      -0.000260       0.000000
     -0.000320      -0.000119       0.000000
     -0.000330      -0.000000       0.000000
     -0.000508       0.000013       0.000000
     -0.000479      -0.000118       0.000000
     -0.000133       0.000003       0.000000
     -0.000117       0.000140       0.000000
     -0.000349       0.000147       0.000000
     -0.000330      -0.000000       0.000000
     -0.000117       0.000140       0.000000
     -0.000097       0.000361       0.000000
     -0.000369       0.000387       0.000000
     -0.000349       0.000147       0.000000
     -0.000330      -0.000000       0.000000
     -0.000349       0.000147       0.000000
     -0.000584       0.000174       0.000000
     -0.000508       0.000013       0.000000
     -0.000349       0.000147       0.000000
     -0.000369       0.000387       0.000000
     -0.000717       0.000425       0.000000
     -0.000584       0.000174       0.000000
     -0.000097       0.000361       0.000000
     -0.000089       0.000519       0.000000
     -0.000212       0.000553       0.000000
     -0.000219       0.000377       0.000000
     -0.000089       0.000519       0.000000
     -0.000092       0.000715       0.000000
     -0.000209       0.000782       0.000000
     -0.000212       0.000553       0.000000
     -0.000219       0.000377       0.000000
     -0.000212       0.000553       0.000000
     -0.000374       0.000573       0.000000
     -0.000369       0.000387       0.000000
     -0.000212       0.000553       0.000000
     -0.000209       0.000782       0.000000
     -0.000372       0.000827       0.000000
     -0.000374       0.000573       0.000000
     -0.000092       0.000715       0.000000
     -0.000117       0.000942       0.000000
     -0.000225       0.001065       0.000000
     -0.000209       0.000782       0.000000
     -0.000117       0.000942       0.000000
     -0.000174       0.001182       0.000000
     -0.000283       0.001377       0.000000
     -0.000225       0.001065       0.000000
     -0.000209       0.000782       0.000000
     -0.000225       0.001065       0.000000
     -0.000376       0.001173       0.000000
     -0.000372       0.000827       0.000000
     -0.000225       0.001065       0.000000
     -0.000283       0.001377       0.000000
     -0.000428       0.001594       0.000000
     -0.000376       0.001173       0.000000
     -0.000369       0.000387       0.000000
     -0.000374       0.000573       0.000000
     -0.000579       0.000586       0.000000
     -0.000543       0.000399       0.000000
     -0.000374       0.000573       0.000000
     -0.000372       0.000827       0.000000
     -0.000607       0.000849       0.000000
     -0.000579       0.000586       0.000000
     -0.000543       0.000399       0.000000
     -0.000579       0.000586       0.000000
     -0.000807       0.000614       0.000000
     -0.000717       0.000425       0.000000
     -0.000579       0.000586       0.000000
     -0.000607       0.000849       0.000000
     -0.000914       0.000877       0.000000
     -0.000807       0.000614       0.000000
     -0.000372       0.000827       0.000000
     -0.000372       0.000988       0.000000
     -0.000478       0.001011       0.000000
     -0.000479       0.000840       0.000000
     -0.000372       0.000988       0.000000
     -0.000376       0.001173       0.000000
     -0.000478       0.001215       0.000000
     -0.000478       0.001011       0.000000
     -0.000479       0.000840       0.000000
     -0.000478       0.001011       0.000000
     -0.000613       0.001024       0.000000
     -0.000607       0.000849       0.000000
     -0.000478       0.001011       0.000000
     -0.000478       0.001215       0.000000
     -0.000612       0.001244       0.000000
     -0.000613       0.001024       0.000000
     -0.000376       0.001173       0.000000
     -0.000393       0.001379       0.000000
     -0.000488       0.001455       0.000000
     -0.000478       0.001215       0.000000
     -0.000393       0.001379       0.000000
     -0.000428       0.001594       0.000000
     -0.000523       0.001717       0.000000
     -0.000488       0.001455       0.000000
     -0.000478       0.001215       0.000000
     -0.000488       0.001455       0.000000
     -0.000613       0.001524       0.000000
     -0.000612       0.001244       0.000000
     -0.000488       0.001455       0.000000
     -0.000523       0.001717       0.000000
     -0.000642       0.001859       0.000000
     -0.000613       0.001524       0.000000
     -0.000607       0.000849       0.000000
     -0.000613       0.001024       0.000000
     -0.000781       0.001034       0.000000
     -0.000755       0.000859       0.000000
     -0.000613       0.001024       0.000000
     -0.000612       0.001244       0.000000
     -0.000798       0.001257       0.000000
     -0.000781       0.001034       0.000000
     -0.000755       0.000859       0.000000
     -0.000781       0.001034       0.000000
     -0.000974       0.001052       0.000000
     -0.000914       0.000877       0.000000
     -0.000781       0.001034       0.000000
     -0.000798       0.001257       0.000000
     -0.001043       0.001274       0.000000
     -0.000974       0.001052       0.000000
     -0.000612       0.001244       0.000000
     -0.000611       0.001376       0.000000
     -0.000695       0.001390       0.000000
     -0.000697       0.001252       0.000000
     -0.000611       0.001376       0.000000
     -0.000613       0.001524       0.000000
     -0.000693       0.001552       0.000000
     -0.000695       0.001390       0.000000
     -0.000697       0.001252       0.000000
     -0.000695       0.001390       0.000000
     -0.000800       0.001398       0.000000
     -0.000798       0.001257       0.000000
     -0.000695       0.001390       0.000000
     -0.000693       0.001552       0.000000
     -0.000795       0.001571       0.000000
     -0.000800       0.001398       0.000000
     -0.000613       0.001524       0.000000
     -0.000621       0.001688       0.000000
     -0.000696       0.001741       0.000000
     -0.000693       0.001552       0.000000
     -0.000621       0.001688       0.000000
     -0.000642       0.001859       0.000000
     -0.000717       0.001946       0.000000
     -0.000696       0.001741       0.000000
     -0.000693       0.001552       0.000000
     -0.000696       0.001741       0.000000
     -0.000790       0.001792       0.000000
     -0.000795       0.001571       0.000000
     -0.000696       0.001741       0.000000
     -0.000717       0.001946       0.000000
     -0.000809       0.002057       0.000000
     -0.000790       0.001792       0.000000
     -0.000798       0.001257       0.000000
     -0.000800       0.001398       0.000000
     -0.000931       0.001402       0.000000
     -0.000916       0.001262       0.000000
     -0.000800       0.001398       0.000000
     -0.000795       0.001571       0.000000
     -0.000938       0.001578       0.000000
     -0.000931       0.001402       0.000000
     -0.000916       0.001262       0.000000
     -0.000931       0.001402       0.000000
     -0.001082       0.001414       0.000000
     -0.001043       0.001274       0.000000
     -0.000931       0.001402       0.000000
     -0.000938       0.001578       0.000000
     -0.001130       0.001591       0.000000
     -0.001082       0.001414       0.000000
     -0.000795       0.001571       0.000000
     -0.000790       0.001792       0.000000
     -0.000926       0.001829       0.000000
     -0.000938       0.001578       0.000000
     -0.000790       0.001792       0.000000
     -0.000809       0.002057       0.000000
     -0.000938       0.002236       0.000000
     -0.000926       0.001829       0.000000
     -0.000938       0.001578       0.000000
     -0.000926       0.001829       0.000000
     -0.001199       0.001857       0.000000
     -0.001130       0.001591       0.000000
     -0.000926       0.001829       0.000000
     -0.000938       0.002236       0.000000
     -0.001344       0.002895       0.000000
     -0.001199       0.001857       0.000000
      0.000000       0.000000       0.000000
      0.000000       0.000000       0.000000
      0.000020       0.000305       0.000000
      0.000081       0.000242       0.000000
      0.000000       0.000000       0.000000
      0.000000       0.000000       0.000000
     -0.000062       0.000354       0.000000
      0.000020       0.000305       0.000000
      0.000081       0.000242       0.000000
      0.000020       0.000305       0.000000
     -0.000046       0.000665       0.000000
      0.000067       0.000519       0.000000
      0.000020       0.000305       0.000000
     -0.000062       0.000354       0.000000
     -0.000196       0.000776       0.000000
     -0.000046       0.000665       0.000000
      0.000000       0.000000       0.000000
      0.000000       0.000000       0.000000
     -0.000157       0.000393       0.000000
     -0.000062       0.000354       0.000000
      0.000000       0.000000       0.000000
      0.000000       0.000000       0.000000
     -0.000266       0.000437       0.000000
     -0.000157       0.000393       0.000000
     -0.000062       0.000354       0.000000
     -0.000157       0.000393       0.000000
     -0.000368       0.000859       0.000000
     -0.000196       0.000776       0.000000
     -0.000157       0.000393       0.000000
     -0.000266       0.000437       0.000000
     -0.000557       0.000945       0.000000
     -0.000368       0.000859       0.000000
      0.000000       0.000000       0.000000
      0.000000       0.000000       0.000000
     -0.000418       0.000528       0.000000
     -0.000266       0.000437       0.000000
      0.000000       0.000000       0.000000
      0.000000       0.000000       0.000000
     -0.000650       0.000798       0.000000
     -0.000418       0.000528       0.000000
     -0.000266       0.000437       0.000000
     -0.000418       0.000528       0.000000
     -0.000769       0.001085       0.000000
     -0.000557       0.000945       0.000000
     -0.000418       0.000528       0.000000
     -0.000650       0.000798       0.000000
     -0.000990       0.001326       0.000000
     -0.000769       0.001085       0.000000
      0.000067       0.000519       0.000000
     -0.000046       0.000665       0.000000
     -0.000180       0.001087       0.000000
     -0.000020       0.000831       0.000000
     -0.000046       0.000665       0.000000
     -0.000196       0.000776       0.000000
     -0.000388       0.001264       0.000000
     -0.000180       0.001087       0.000000
     -0.000020       0.000831       0.000000
     -0.000180       0.001087       0.000000
     -0.000384       0.001588       0.000000
     -0.000174       0.001182       0.000000
     -0.000180       0.001087       0.000000
     -0.000388       0.001264       0.000000
     -0.000632       0.001810       0.000000
     -0.000384       0.001588       0.000000
     -0.000196       0.000776       0.000000
     -0.000368       0.000859       0.000000
     -0.000609       0.001376       0.000000
     -0.000388       0.001264       0.000000
     -0.000368       0.000859       0.000000
     -0.000557       0.000945       0.000000
     -0.000829       0.001473       0.000000
     -0.000609       0.001376       0.000000
     -0.000388       0.001264       0.000000
     -0.000609       0.001376       0.000000
     -0.000856       0.001915       0.000000
     -0.000632       0.001810       0.000000
     -0.000609       0.001376       0.000000
     -0.000829       0.001473       0.000000
     -0.001066       0.001991       0.000000
     -0.000856       0.001915       0.000000
     -0.000557       0.000945       0.000000
     -0.000769       0.001085       0.000000
     -0.001046       0.001604       0.000000
     -0.000829       0.001473       0.000000
     -0.000769       0.001085       0.000000
     -0.000990       0.001326       0.000000
     -0.001251       0.001800       0.000000
     -0.001046       0.001604       0.000000
     -0.000829       0.001473       0.000000
     -0.001046       0.001604       0.000000
     -0.001268       0.002088       0.000000
     -0.001066       0.001991       0.000000
     -0.001046       0.001604       0.000000
     -0.001251       0.001800       0.000000
     -0.001457       0.002233       0.000000
     -0.001268       0.002088       0.000000
     -0.000632       0.001810       0.000000
     -0.000856       0.001915       0.000000
     -0.001068       0.002436       0.000000
     -0.000903       0.002381       0.000000
     -0.000856       0.001915       0.000000
     -0.001066       0.001991       0.000000
     -0.001241       0.002482       0.000000
     -0.001068       0.002436       0.000000
     -0.000903       0.002381       0.000000
     -0.001068       0.002436       0.000000
     -0.001166       0.002919       0.000000
     -0.001058       0.002899       0.000000
     -0.001068       0.002436       0.000000
     -0.001241       0.002482       0.000000
     -0.001316       0.002947       0.000000
     -0.001166       0.002919       0.000000
     -0.001066       0.001991       0.000000
     -0.001268       0.002088       0.000000
     -0.001423       0.002543       0.000000
     -0.001241       0.002482       0.000000
     -0.001268       0.002088       0.000000
     -0.001457       0.002233       0.000000
     -0.001599       0.002630       0.000000
     -0.001423       0.002543       0.000000
     -0.001241       0.002482       0.000000
     -0.001423       0.002543       0.000000
     -0.001489       0.002980       0.000000
     -0.001316       0.002947       0.000000
     -0.001423       0.002543       0.000000
     -0.001599       0.002630       0.000000
     -0.001662       0.003008       0.000000
     -0.001489       0.002980       0.000000
     -0.000174       0.001182       0.000000
     -0.000267       0.001405       0.000000
     -0.000390       0.001665       0.000000
     -0.000283       0.001377       0.000000
     -0.000267       0.001405       0.000000
     -0.000384       0.001588       0.000000
     -0.000523       0.001881       0.000000
     -0.000390       0.001665       0.000000
     -0.000283       0.001377       0.000000
     -0.000390       0.001665       0.000000
     -0.000556       0.001975       0.000000
     -0.000428       0.001594       0.000000
     -0.000390       0.001665       0.000000
     -0.000523       0.001881       0.000000
     -0.000699       0.002210       0.000000
     -0.000556       0.001975       0.000000
     -0.000384       0.001588       0.000000
     -0.000509       0.001720       0.000000
     -0.000653       0.002017       0.000000
     -0.000523       0.001881       0.000000
     -0.000509       0.001720       0.000000
     -0.000632       0.001810       0.000000
     -0.000769       0.002098       0.000000
     -0.000653       0.002017       0.000000
     -0.000523       0.001881       0.000000
     -0.000653       0.002017       0.000000
     -0.000812       0.002325       0.000000