# vtk DataFile Version 2.0
time_10.vtk
ASCII
DATASET UNSTRUCTURED_GRID
POINTS  1152 float
      0.000000       0.000000       0.000000
      0.083333       0.000000       0.000000
      0.083333       0.083333       0.000000
      0.000000       0.083333       0.000000
      0.083333       0.000000       0.000000
      0.166667       0.000000       0.000000
      0.166667       0.083333       0.000000
      0.083333       0.083333       0.000000
      0.000000       0.083333       0.000000
      0.083333       0.083333       0.000000
      0.083333       0.166667       0.000000
      0.000000       0.166667       0.000000
      0.083333       0.083333       0.000000
      0.166667       0.083333       0.000000
      0.166667       0.166667       0.000000
      0.083333       0.166667       0.000000
      0.166667       0.000000       0.000000
      0.250000       0.000000       0.000000
      0.250000       0.083333       0.000000
      0.166667       0.083333       0.000000
      0.250000       0.000000       0.000000
      0.333333       0.000000       0.000000
      0.333333       0.083333       0.000000
      0.250000       0.083333       0.000000
      0.166667       0.083333       0.000000
      0.250000       0.083333       0.000000
      0.250000       0.166667       0.000000
      0.166667       0.166667       0.000000
      0.250000       0.083333       0.000000
      0.333333       0.083333       0.000000
      0.333333       0.166667       0.000000
      0.250000       0.166667       0.000000
      0.333333       0.000000       0.000000
      0.416667      -0.000000       0.000000
      0.416667       0.083333       0.000000
      0.333333       0.083333       0.000000
      0.416667      -0.000000       0.000000
      0.500000       0.000000       0.000000
      0.500000       0.083333       0.000000
      0.416667       0.083333       0.000000
      0.333333       0.083333       0.000000
      0.416667       0.083333       0.000000
      0.416667       0.166667       0.000000
      0.333333       0.166667       0.000000
      0.416667       0.083333       0.000000
      0.500000       0.083333       0.000000
      0.500000       0.166667       0.000000
      0.416667       0.166667       0.000000
      0.000000       0.166667       0.000000
      0.083333       0.166667       0.000000
      0.083333       0.250000       0.000000
      0.000000       0.250000       0.000000
      0.083333       0.166667       0.000000
      0.166667       0.166667       0.000000
      0.166667       0.250000       0.000000
      0.083333       0.250000       0.000000
      0.000000       0.250000       0.000000
      0.083333       0.250000       0.000000
      0.083333       0.333333       0.000000
      0.000000       0.333333       0.000000
      0.083333       0.250000       0.000000
      0.166667       0.250000       0.000000
      0.166667       0.333333       0.000000
      0.083333       0.333333       0.000000
      0.166667       0.166667       0.000000
      0.250000       0.166667       0.000000
      0.250000       0.250000       0.000000
      0.166667       0.250000       0.000000
      0.250000       0.166667       0.000000
      0.333333       0.166667       0.000000
      0.333333       0.250000       0.000000
      0.250000       0.250000       0.000000
      0.166667       0.250000       0.000000
      0.250000       0.250000       0.000000
      0.250000       0.333333       0.000000
      0.166667       0.333333       0.000000
      0.250000       0.250000       0.000000
      0.333333       0.250000       0.000000
      0.333333       0.333333       0.000000
      0.250000       0.333333       0.000000
      0.333333       0.166667       0.000000
      0.416667       0.166667       0.000000
      0.416667       0.250000       0.000000
      0.333333       0.250000       0.000000
      0.416667       0.166667       0.000000
      0.500000       0.166667       0.000000
      0.500000       0.250000       0.000000
      0.416667       0.250000       0.000000
      0.333333       0.250000       0.000000
      0.416667       0.250000       0.000000
      0.416667       0.333333       0.000000
      0.333333       0.333333       0.000000
      0.416667       0.250000       0.000000
      0.500000       0.250000       0.000000
      0.500000       0.333333       0.000000
      0.416667       0.333333       0.000000
      0.000000       0.333333       0.000000
      0.083333       0.333333       0.000000
      0.083333       0.416667       0.000000
     -0.000000       0.416667       0.000000
      0.083333       0.333333       0.000000
      0.166667       0.333333       0.000000
      0.166667       0.416667       0.000000
      0.083333       0.416667       0.000000
     -0.000000       0.416667       0.000000
      0.083333       0.416667       0.000000
      0.083333       0.500000       0.000000
      0.000000       0.500000       0.000000
      0.083333       0.416667       0.000000
      0.166667       0.416667       0.000000
      0.166667       0.500000       0.000000
      0.083333       0.500000       0.000000
      0.166667       0.333333       0.000000
      0.250000       0.333333       0.000000
      0.250000       0.416667       0.000000
      0.166667       0.416667       0.000000
      0.250000       0.333333       0.000000
      0.333333       0.333333       0.000000
      0.333333       0.416667       0.000000
      0.250000       0.416667       0.000000
      0.166667       0.416667       0.000000
      0.250000       0.416667       0.000000
      0.250000       0.500000       0.000000
      0.166667       0.500000       0.000000
      0.250000       0.416667       0.000000
      0.333333       0.416667       0.000000
      0.333333       0.500000       0.000000
      0.250000       0.500000       0.000000
      0.333333       0.333333       0.000000
      0.375000       0.333333       0.000000
      0.375000       0.375000       0.000000
      0.333333       0.375000       0.000000
      0.375000       0.333333       0.000000
      0.416667       0.333333       0.000000
      0.416667       0.375000       0.000000
      0.375000       0.375000       0.000000
      0.333333       0.375000       0.000000
      0.375000       0.375000       0.000000
      0.375000       0.416667       0.000000
      0.333333       0.416667       0.000000
      0.375000       0.375000       0.000000
      0.416667       0.375000       0.000000
      0.416667       0.416667       0.000000
      0.375000       0.416667       0.000000
      0.416667       0.333333       0.000000
      0.458333       0.333333       0.000000
      0.458333       0.375000       0.000000
      0.416667       0.375000       0.000000
      0.458333       0.333333       0.000000
      0.500000       0.333333       0.000000
      0.500000       0.375000       0.000000
      0.458333       0.375000       0.000000
      0.416667       0.375000       0.000000
      0.458333       0.375000       0.000000
      0.458333       0.416667       0.000000
      0.416667       0.416667       0.000000
      0.458333       0.375000       0.000000
      0.500000       0.375000       0.000000
      0.500000       0.416667       0.000000
      0.458333       0.416667       0.000000
      0.333333       0.416667       0.000000
      0.375000       0.416667       0.000000
      0.375000       0.458333       0.000000
      0.333333       0.458333       0.000000
      0.375000       0.416667       0.000000
      0.416667       0.416667       0.000000
      0.416667       0.458333       0.000000
      0.375000       0.458333       0.000000
      0.333333       0.458333       0.000000
      0.375000       0.458333       0.000000
      0.375000       0.500000       0.000000
      0.333333       0.500000       0.000000
      0.375000       0.458333       0.000000
      0.416667       0.458333       0.000000
      0.416667       0.500000       0.000000
      0.375000       0.500000       0.000000
      0.416667       0.416667       0.000000
      0.437500       0.416667       0.000000
      0.437500       0.437500       0.000000
      0.416667       0.437500       0.000000
      0.437500       0.416667       0.000000
      0.458333       0.416667       0.000000
      0.458333       0.437500       0.000000
      0.437500       0.437500       0.000000
      0.416667       0.437500       0.000000
      0.437500       0.437500       0.000000
      0.437500       0.458333       0.000000
      0.416667       0.458333       0.000000
      0.437500       0.437500       0.000000
      0.458333       0.437500       0.000000
      0.458333       0.458333       0.000000
      0.437500       0.458333       0.000000
      0.458333       0.416667       0.000000
      0.479167       0.416667       0.000000
      0.479167       0.437500       0.000000
      0.458333       0.437500       0.000000
      0.479167       0.416667       0.000000
      0.500000       0.416667       0.000000
      0.500000       0.437500       0.000000
      0.479167       0.437500       0.000000
      0.458333       0.437500       0.000000
      0.479167       0.437500       0.000000
      0.479167       0.458333       0.000000
      0.458333       0.458333       0.000000
      0.479167       0.437500       0.000000
      0.500000       0.437500       0.000000
      0.500000       0.458333       0.000000
      0.479167       0.458333       0.000000
      0.416667       0.458333       0.000000
      0.437500       0.458333       0.000000
      0.437500       0.479167       0.000000
      0.416667       0.479167       0.000000
      0.437500       0.458333       0.000000
      0.458333       0.458333       0.000000
      0.458333       0.479167       0.000000
      0.437500       0.479167       0.000000
      0.416667       0.479167       0.000000
      0.437500       0.479167       0.000000
      0.437500       0.500000       0.000000
      0.416667       0.500000       0.000000
[...]
POINT_DATA  1152
VECTORS U float 
      0.000000       0.000000       0.000000
      0.000000       0.000000       0.000000
      0.000073      -0.000016       0.000000
      0.000054      -0.000017       0.000000
      0.000000       0.000000       0.000000
      0.000000       0.000000       0.000000
      0.000093       0.000014       0.000000
      0.000073      -0.000016       0.000000
      0.000054      -0.000017       0.000000
      0.000073      -0.000016       0.000000
      0.000080      -0.000043       0.000000
      0.000055      -0.000087       0.000000
      0.000073      -0.000016       0.000000
      0.000093       0.000014       0.000000
      0.000102       0.000018       0.000000
      0.000080      -0.000043       0.000000
      0.000000       0.000000       0.000000
      0.000000       0.000000       0.000000
      0.000111       0.000055       0.000000
      0.000093       0.000014       0.000000
      0.000000       0.000000       0.000000
      0.000000       0.000000       0.000000
      0.000121       0.000108       0.000000
      0.000111       0.000055       0.000000
      0.000093       0.000014       0.000000
      0.000111       0.000055       0.000000
      0.000126       0.000099       0.000000
      0.000102       0.000018       0.000000
      0.000111       0.000055       0.000000
      0.000121       0.000108       0.000000
      0.000141       0.000212       0.000000
      0.000126       0.000099       0.000000
      0.000000       0.000000       0.000000
      0.000000       0.000000       0.000000
      0.000113       0.000172       0.000000
      0.000121       0.000108       0.000000
      0.000000       0.000000       0.000000
      0.000000       0.000000       0.000000
      0.000079       0.000240       0.000000
      0.000113       0.000172       0.000000
      0.000121       0.000108       0.000000
      0.000113       0.000172       0.000000
      0.000126       0.000357       0.000000
      0.000141       0.000212       0.000000
      0.000113       0.000172       0.000000
      0.000079       0.000240       0.000000
      0.000065       0.000515       0.000000
      0.000126       0.000357       0.000000
      0.000055      -0.000087       0.000000
      0.000080      -0.000043       0.000000
      0.000006      -0.000073       0.000000
     -0.000017      -0.000165       0.000000
      0.000080      -0.000043       0.000000
      0.000102       0.000018       0.000000
      0.000027       0.000015       0.000000
      0.000006      -0.000073       0.000000
     -0.000017      -0.000165       0.000000
      0.000006      -0.000073       0.000000
     -0.000135      -0.000100       0.000000
     -0.000150      -0.000225       0.000000
      0.000006      -0.000073       0.000000
      0.000027       0.000015       0.000000
     -0.000123       0.000007       0.000000
     -0.000135      -0.000100       0.000000
      0.000102       0.000018       0.000000
      0.000126       0.000099       0.000000
      0.000052       0.000130       0.000000
      0.000027       0.000015       0.000000
      0.000126       0.000099       0.000000
      0.000141       0.000212       0.000000
      0.000073       0.000303       0.000000
      0.000052       0.000130       0.000000
      0.000027       0.000015       0.000000
      0.000052       0.000130       0.000000
     -0.000108       0.000145       0.000000
     -0.000123       0.000007       0.000000
      0.000052       0.000130       0.000000
      0.000073       0.000303       0.000000
     -0.000087       0.000366       0.000000
     -0.000108       0.000145       0.000000
      0.000141       0.000212       0.000000
      0.000126       0.000357       0.000000
      0.000061       0.000546       0.000000
      0.000073       0.000303       0.000000
      0.000126       0.000357       0.000000
      0.000065       0.000515       0.000000
     -0.000019       0.000826       0.000000
      0.000061       0.000546       0.000000
      0.000073       0.000303       0.000000
      0.000061       0.000546       0.000000
     -0.000083       0.000720       0.000000
     -0.000087       0.000366       0.000000
      0.000061       0.000546       0.000000
     -0.000019       0.000826       0.000000
     -0.000169       0.001178       0.000000
     -0.000083       0.000720       0.000000
     -0.000150      -0.000225       0.000000
     -0.000135      -0.000100       0.000000
     -0.000309      -0.000114       0.000000
     -0.000311      -0.000251       0.000000
     -0.000135      -0.000100       0.000000
     -0.000123       0.000007       0.000000
     -0.000318       0.000004       0.000000
     -0.000309      -0.000114       0.000000
     -0.000311      -0.000251       0.000000
     -0.000309      -0.000114       0.000000
     -0.000466      -0.000113       0.000000
     -0.000464      -0.000253       0.000000
     -0.000309      -0.000114       0.000000
     -0.000318       0.000004       0.000000
     -0.000494       0.000018       0.000000
     -0.000466      -0.000113       0.000000
     -0.000123       0.000007       0.000000
     -0.000108       0.000145       0.000000
     -0.000337       0.000152       0.000000
     -0.000318       0.000004       0.000000
     -0.000108       0.000145       0.000000
     -0.000087       0.000366       0.000000
     -0.000355       0.000393       0.000000
     -0.000337       0.000152       0.000000
     -0.000318       0.000004       0.000000
     -0.000337       0.000152       0.000000
     -0.000571       0.000178       0.000000
     -0.000494       0.000018       0.000000
     -0.000337       0.000152       0.000000
     -0.000355       0.000393       0.000000
     -0.000703       0.000429       0.000000
     -0.000571       0.000178       0.000000
     -0.000087       0.000366       0.000000
     -0.000079       0.000525       0.000000
     -0.000199       0.000560       0.000000
     -0.000206       0.000383       0.000000
     -0.000079       0.000525       0.000000
     -0.000083       0.000720       0.000000
     -0.000196       0.000789       0.000000
     -0.000199       0.000560       0.000000
     -0.000206       0.000383       0.000000
     -0.000199       0.000560       0.000000
     -0.000358       0.000580       0.000000
     -0.000355       0.000393       0.000000
     -0.000199       0.000560       0.000000
     -0.000196       0.000789       0.000000
     -0.000355       0.000836       0.000000
     -0.000358       0.000580       0.000000
     -0.000083       0.000720       0.000000
     -0.000110       0.000945       0.000000
     -0.000214       0.001071       0.000000
     -0.000196       0.000789       0.000000
     -0.000110       0.000945       0.000000
     -0.000169       0.001178       0.000000
     -0.000275       0.001377       0.000000
     -0.000214       0.001071       0.000000
     -0.000196       0.000789       0.000000
     -0.000214       0.001071       0.000000
     -0.000359       0.001185       0.000000
     -0.000355       0.000836       0.000000
     -0.000214       0.001071       0.000000
     -0.000275       0.001377       0.000000
     -0.000415       0.001601       0.000000
     -0.000359       0.001185       0.000000
     -0.000355       0.000393       0.000000
     -0.000358       0.000580       0.000000
     -0.000563       0.000593       0.000000
     -0.000528       0.000404       0.000000
     -0.000358       0.000580       0.000000
     -0.000355       0.000836       0.000000
     -0.000588       0.000858       0.000000
     -0.000563       0.000593       0.000000
     -0.000528       0.000404       0.000000
     -0.000563       0.000593       0.000000
     -0.000792       0.000620       0.000000
     -0.000703       0.000429       0.000000
     -0.000563       0.000593       0.000000
     -0.000588       0.000858       0.000000
     -0.000898       0.000886       0.000000
     -0.000792       0.000620       0.000000
     -0.000355       0.000836       0.000000
     -0.000354       0.000999       0.000000
     -0.000458       0.001023       0.000000
     -0.000460       0.000850       0.000000
     -0.000354       0.000999       0.000000
     -0.000359       0.001185       0.000000
     -0.000458       0.001230       0.000000
     -0.000458       0.001023       0.000000
     -0.000460       0.000850       0.000000
     -0.000458       0.001023       0.000000
     -0.000592       0.001036       0.000000
     -0.000588       0.000858       0.000000
     -0.000458       0.001023       0.000000
     -0.000458       0.001230       0.000000
     -0.000589       0.001261       0.000000
     -0.000592       0.001036       0.000000
     -0.000359       0.001185       0.000000
     -0.000377       0.001390       0.000000
     -0.000469       0.001472       0.000000
     -0.000458       0.001230       0.000000
     -0.000377       0.001390       0.000000
     -0.000415       0.001601       0.000000
     -0.000507       0.001730       0.000000
     -0.000469       0.001472       0.000000
     -0.000458       0.001230       0.000000
     -0.000469       0.001472       0.000000
     -0.000588       0.001548       0.000000
     -0.000589       0.001261       0.000000
     -0.000469       0.001472       0.000000
     -0.000507       0.001730       0.000000
     -0.000622       0.001883       0.000000
     -0.000588       0.001548       0.000000
     -0.000588       0.000858       0.000000
     -0.000592       0.001036       0.000000
     -0.000762       0.001045       0.000000
     -0.000738       0.000868       0.000000
     -0.000592       0.001036       0.000000
     -0.000589       0.001261       0.000000
     -0.000777       0.001274       0.000000
     -0.000762       0.001045       0.000000
     -0.000738       0.000868       0.000000
     -0.000762       0.001045       0.000000
     -0.000959       0.001063       0.000000
     -0.000898       0.000886       0.000000
     -0.000762       0.001045       0.000000
     -0.000777       0.001274       0.000000
     -0.001029       0.001291       0.000000
     -0.000959       0.001063       0.000000
     -0.000589       0.001261       0.000000
     -0.000587       0.001396       0.000000
     -0.000671       0.001411       0.000000
     -0.000674       0.001269       0.000000
     -0.000587       0.001396       0.000000
     -0.000588       0.001548       0.000000
     -0.000667       0.001579       0.000000
     -0.000671       0.001411       0.000000
     -0.000674       0.001269       0.000000
     -0.000671       0.001411       0.000000
     -0.000777       0.001419       0.000000
     -0.000777       0.001274       0.000000
     -0.000671       0.001411       0.000000
     -0.000667       0.001579       0.000000
     -0.000770       0.001599       0.000000
     -0.000777       0.001419       0.000000
     -0.000588       0.001548       0.000000
     -0.000599       0.001714       0.000000
     -0.000671       0.001772       0.000000
     -0.000667       0.001579       0.000000
     -0.000599       0.001714       0.000000
     -0.000622       0.001883       0.000000
     -0.000695       0.001977       0.000000
     -0.000671       0.001772       0.000000
     -0.000667       0.001579       0.000000
     -0.000671       0.001772       0.000000
     -0.000763       0.001829       0.000000
     -0.000770       0.001599       0.000000
     -0.000671       0.001772       0.000000
     -0.000695       0.001977       0.000000
     -0.000784       0.002096       0.000000
     -0.000763       0.001829       0.000000
     -0.000777       0.001274       0.000000
     -0.000777       0.001419       0.000000
     -0.000911       0.001424       0.000000
     -0.000897       0.001279       0.000000
     -0.000777       0.001419       0.000000
     -0.000770       0.001599       0.000000
     -0.000917       0.001607       0.000000
     -0.000911       0.001424       0.000000
     -0.000897       0.001279       0.000000
     -0.000911       0.001424       0.000000
     -0.001069       0.001435       0.000000
     -0.001029       0.001291       0.000000
     -0.000911       0.001424       0.000000
     -0.000917       0.001607       0.000000
     -0.001117       0.001619       0.000000
     -0.001069       0.001435       0.000000
     -0.000770       0.001599       0.000000
     -0.000763       0.001829       0.000000
     -0.000902       0.001869       0.000000
     -0.000917       0.001607       0.000000
     -0.000763       0.001829       0.000000
     -0.000784       0.002096       0.000000
     -0.000912       0.002275       0.000000
     -0.000902       0.001869       0.000000
     -0.000917       0.001607       0.000000
     -0.000902       0.001869       0.000000
     -0.001183       0.001893       0.000000
     -0.001117       0.001619       0.000000
     -0.000902       0.001869       0.000000
     -0.000912       0.002275       0.000000
     -0.001277       0.002805       0.000000
     -0.001183       0.001893       0.000000
      0.000000       0.000000       0.000000
      0.000000       0.000000       0.000000
      0.000018       0.000300       0.000000
      0.000079       0.000240       0.000000
      0.000000       0.000000       0.000000
      0.000000       0.000000       0.000000
     -0.000063       0.000347       0.000000
      0.000018       0.000300       0.000000
      0.000079       0.000240       0.000000
      0.000018       0.000300       0.000000
     -0.000047       0.000656       0.000000
      0.000065       0.000515       0.000000
      0.000018       0.000300       0.000000
     -0.000063       0.000347       0.000000
     -0.000194       0.000760       0.000000
     -0.000047       0.000656       0.000000
      0.000000       0.000000       0.000000
      0.000000       0.000000       0.000000
     -0.000155       0.000383       0.000000
     -0.000063       0.000347       0.000000
      0.000000       0.000000       0.000000
      0.000000       0.000000       0.000000
     -0.000261       0.000424       0.000000
     -0.000155       0.000383       0.000000
     -0.000063       0.000347       0.000000
     -0.000155       0.000383       0.000000
     -0.000361       0.000837       0.000000
     -0.000194       0.000760       0.000000
     -0.000155       0.000383       0.000000
     -0.000261       0.000424       0.000000
     -0.000544       0.000917       0.000000
     -0.000361       0.000837       0.000000
      0.000000       0.000000       0.000000
      0.000000       0.000000       0.000000
     -0.000408       0.000511       0.000000
     -0.000261       0.000424       0.000000
      0.000000       0.000000       0.000000
      0.000000       0.000000       0.000000
     -0.000631       0.000772       0.000000
     -0.000408       0.000511       0.000000
     -0.000261       0.000424       0.000000
     -0.000408       0.000511       0.000000
     -0.000748       0.001050       0.000000
     -0.000544       0.000917       0.000000
     -0.000408       0.000511       0.000000
     -0.000631       0.000772       0.000000
     -0.000962       0.001283       0.000000
     -0.000748       0.001050       0.000000
      0.000065       0.000515       0.000000
     -0.000047       0.000656       0.000000
     -0.000178       0.001071       0.000000
     -0.000019       0.000826       0.000000
     -0.000047       0.000656       0.000000
     -0.000194       0.000760       0.000000
     -0.000381       0.001236       0.000000
     -0.000178       0.001071       0.000000
     -0.000019       0.000826       0.000000
     -0.000178       0.001071       0.000000
     -0.000378       0.001563       0.000000
     -0.000169       0.001178       0.000000
     -0.000178       0.001071       0.000000
     -0.000381       0.001236       0.000000
     -0.000616       0.001765       0.000000
     -0.000378       0.001563       0.000000
     -0.000194       0.000760       0.000000
     -0.000361       0.000837       0.000000
     -0.000594       0.001339       0.000000
     -0.000381       0.001236       0.000000
     -0.000361       0.000837       0.000000
     -0.000544       0.000917       0.000000
     -0.000806       0.001429       0.000000
     -0.000594       0.001339       0.000000
     -0.000381       0.001236       0.000000
     -0.000594       0.001339       0.000000
     -0.000831       0.001860       0.000000
     -0.000616       0.001765       0.000000
     -0.000594       0.001339       0.000000
     -0.000806       0.001429       0.000000
     -0.001032       0.001931       0.000000
     -0.000831       0.001860       0.000000
     -0.000544       0.000917       0.000000
     -0.000748       0.001050       0.000000
     -0.001016       0.001554       0.000000
     -0.000806       0.001429       0.000000
     -0.000748       0.001050       0.000000
     -0.000962       0.001283       0.000000
     -0.001214       0.001742       0.000000
     -0.001016       0.001554       0.000000
     -0.000806       0.001429       0.000000
     -0.001016       0.001554       0.000000
     -0.001229       0.002023       0.000000
     -0.001032       0.001931       0.000000
     -0.001016       0.001554       0.000000
     -0.001214       0.001742       0.000000
     -0.001412       0.002162       0.000000
     -0.001229       0.002023       0.000000
     -0.000616       0.001765       0.000000
     -0.000831       0.001860       0.000000
     -0.001031       0.002363       0.000000
     -0.000874       0.002314       0.000000
     -0.000831       0.001860       0.000000
     -0.001032       0.001931       0.000000
     -0.001199       0.002406       0.000000
     -0.001031       0.002363       0.000000
     -0.000874       0.002314       0.000000
     -0.001031       0.002363       0.000000
     -0.001124       0.002830       0.000000
     -0.001017       0.002811       0.000000
     -0.001031       0.002363       0.000000
     -0.001199       0.002406       0.000000
     -0.001271       0.002858       0.000000
     -0.001124       0.002830       0.000000
     -0.001032       0.001931       0.000000
     -0.001229       0.002023       0.000000
     -0.001376       0.002465       0.000000
     -0.001199       0.002406       0.000000
     -0.001229       0.002023       0.000000
     -0.001412       0.002162       0.000000
     -0.001548       0.002549       0.000000
     -0.001376       0.002465       0.000000
     -0.001199       0.002406       0.000000
     -0.001376       0.002465       0.000000
     -0.001440       0.002891       0.000000
     -0.001271       0.002858       0.000000
     -0.001376       0.002465       0.000000
     -0.001548       0.002549       0.000000
     -0.001608       0.002918       0.000000
     -0.001440       0.002891       0.000000
     -0.000169       0.001178       0.000000
     -0.000263       0.001392       0.000000
     -0.000383       0.001650       0.000000
     -0.000275       0.001377       0.000000
     -0.000263       0.001392       0.000000
     -0.000378       0.001563       0.000000
     -0.000513       0.001848       0.000000
     -0.000383       0.001650       0.000000
     -0.000275       0.001377       0.000000
     -0.000383       0.001650       0.000000
     -0.000545       0.001958       0.000000
     -0.000415       0.001601       0.000000
     -0.000383       0.001650       0.000000
     -0.000513       0.001848       0.000000
     -0.000682       0.002166       0.000000
     -0.000545       0.001958       0.000000
     -0.000378       0.001563       0.000000
     -0.000499       0.001684       0.000000
     -0.000637       0.001971       0.000000
     -0.000513       0.001848       0.000000
     -0.000499       0.001684       0.000000
     -0.000616       0.001765       0.000000
     -0.000747       0.002042       0.000000
     -0.000637       0.001971       0.000000
     -0.000513       0.001848       0.000000
     -0.000637       0.001971       0.000000
     -0.000788       0.002265       0.000000