# vtk DataFile Version 2.0
time_10.vtk
ASCII
DATASET UNSTRUCTURED_GRID
POINTS  1152 float
      0.000000       0.000000       0.000000
      0.083333       0.000000       0.000000
      0.083333       0.083333       0.000000
      0.000000       0.083333       0.000000
      0.083333       0.000000       0.000000
      0.166667       0.000000       0.000000
      0.166667       0.083333       0.000000
      0.083333       0.083333       0.000000
      0.000000       0.083333       0.000000
      0.083333       0.083333       0.000000
      0.083333       0.166667       0.000000
      0.000000       0.166667       0.000000
      0.083333       0.083333       0.000000
      0.166667       0.083333       0.000000
      0.166667       0.166667       0.000000
      0.083333       0.166667       0.000000
      0.166667       0.000000       0.000000
      0.250000       0.000000       0.000000
      0.250000       0.083333       0.000000
      0.166667       0.083333       0.000000
      0.250000       0.000000       0.000000
      0.333333       0.000000       0.000000
      0.333333       0.083333       0.000000
      0.250000       0.083333       0.000000
      0.166667       0.083333       0.000000
      0.250000       0.083333       0.000000
      0.250000       0.166667       0.000000
      0.166667       0.166667       0.000000
      0.250000       0.083333       0.000000
      0.333333       0.083333       0.000000
      0.333333       0.166667       0.000000
      0.250000       0.166667       0.000000
      0.333333       0.000000       0.000000
      0.416667      -0.000000       0.000000
      0.416667       0.083333       0.000000
      0.333333       0.083333       0.000000
      0.416667      -0.000000       0.000000
      0.500000       0.000000       0.000000
      0.500000       0.083333       0.000000
      0.416667       0.083333       0.000000
      0.333333       0.083333       0.000000
      0.416667       0.083333       0.000000
      0.416667       0.166667       0.000000
      0.333333       0.166667       0.000000
      0.416667       0.083333       0.000000
      0.500000       0.083333       0.000000
      0.500000       0.166667       0.000000
      0.416667       0.166667       0.000000
      0.000000       0.166667       0.000000
      0.083333       0.166667       0.000000
      0.083333       0.250000       0.000000
      0.000000       0.250000       0.000000
      0.083333       0.166667       0.000000
      0.166667       0.166667       0.000000
      0.166667       0.250000       0.000000
      0.083333       0.250000       0.000000
      0.000000       0.250000       0.000000
      0.083333       0.250000       0.000000
      0.083333       0.333333       0.000000
      0.000000       0.333333       0.000000
      0.083333       0.250000       0.000000
      0.166667       0.250000       0.000000
      0.166667       0.333333       0.000000
      0.083333       0.333333       0.000000
      0.166667       0.166667       0.000000
      0.250000       0.166667       0.000000
      0.250000       0.250000       0.000000
      0.166667       0.250000       0.000000
      0.250000       0.166667       0.000000
      0.333333       0.166667       0.000000
      0.333333       0.250000       0.000000
      0.250000       0.250000       0.000000
      0.166667       0.250000       0.000000
      0.250000       0.250000       0.000000
      0.250000       0.333333       0.000000
      0.166667       0.333333       0.000000
      0.250000       0.250000       0.000000
      0.333333       0.250000       0.000000
      0.333333       0.333333       0.000000
      0.250000       0.333333       0.000000
      0.333333       0.166667       0.000000
      0.416667       0.166667       0.000000
      0.416667       0.250000       0.000000
      0.333333       0.250000       0.000000
      0.416667       0.166667       0.000000
      0.500000       0.166667       0.000000
      0.500000       0.250000       0.000000
      0.416667       0.250000       0.000000
      0.333333       0.250000       0.000000
      0.416667       0.250000       0.000000
      0.416667       0.333333       0.000000
      0.333333       0.333333       0.000000
      0.416667       0.250000       0.000000
      0.500000       0.250000       0.000000
      0.500000       0.333333       0.000000
      0.416667       0.333333       0.000000
      0.000000       0.333333       0.000000
      0.083333       0.333333       0.000000
      0.083333       0.416667       0.000000
     -0.000000       0.416667       0.000000
      0.083333       0.333333       0.000000
      0.166667       0.333333       0.000000
      0.166667       0.416667       0.000000
      0.083333       0.416667       0.000000
     -0.000000       0.416667       0.000000
      0.083333       0.416667       0.000000
      0.083333       0.500000       0.000000
      0.000000       0.500000       0.000000
      0.083333       0.416667       0.000000
      0.166667       0.416667       0.000000
      0.166667       0.500000       0.000000
      0.083333       0.500000       0.000000
      0.166667       0.333333       0.000000
      0.250000       0.333333       0.000000
      0.250000       0.416667       0.000000
      0.166667       0.416667       0.000000
      0.250000       0.333333       0.000000
      0.333333       0.333333       0.000000
      0.333333       0.416667       0.000000
      0.250000       0.416667       0.000000
      0.166667       0.416667       0.000000
      0.250000       0.416667       0.000000
      0.250000       0.500000       0.000000
      0.166667       0.500000       0.000000
      0.250000       0.416667       0.000000
      0.333333       0.416667       0.000000
      0.333333       0.500000       0.000000
      0.250000       0.500000       0.000000
      0.333333       0.333333       0.000000
      0.375000       0.333333       0.000000
      0.375000       0.375000       0.000000
      0.333333       0.375000       0.000000
      0.375000       0.333333       0.000000
      0.416667       0.333333       0.000000
      0.416667       0.375000       0.000000
      0.375000       0.375000       0.000000
      0.333333       0.375000       0.000000
      0.375000       0.375000       0.000000
      0.375000       0.416667       0.000000
      0.333333       0.416667       0.000000
      0.375000       0.375000       0.000000
      0.416667       0.375000       0.000000
      0.416667       0.416667       0.000000
      0.375000       0.416667       0.000000
      0.416667       0.333333       0.000000
      0.458333       0.333333       0.000000
      0.458333       0.375000       0.000000
      0.416667       0.375000       0.000000
      0.458333       0.333333       0.000000
      0.500000       0.333333       0.000000
      0.500000       0.375000       0.000000
      0.458333       0.375000       0.000000
      0.416667       0.375000       0.000000
      0.458333       0.375000       0.000000
      0.458333       0.416667       0.000000
      0.416667       0.416667       0.000000
      0.458333       0.375000       0.000000
      0.500000       0.375000       0.000000
      0.500000       0.416667       0.000000
      0.458333       0.416667       0.000000
      0.333333       0.416667       0.000000
      0.375000       0.416667       0.000000
      0.375000       0.458333       0.000000
      0.333333       0.458333       0.000000
      0.375000       0.416667       0.000000
      0.416667       0.416667       0.000000
      0.416667       0.458333       0.000000
      0.375000       0.458333       0.000000
      0.333333       0.458333       0.000000
      0.375000       0.458333       0.000000
      0.375000       0.500000       0.000000
      0.333333       0.500000       0.000000
      0.375000       0.458333       0.000000
      0.416667       0.458333       0.000000
      0.416667       0.500000       0.000000
      0.375000       0.500000       0.000000
      0.416667       0.416667       0.000000
      0.437500       0.416667       0.000000
      0.437500       0.437500       0.000000
      0.416667       0.437500       0.000000
      0.437500       0.416667       0.000000
      0.458333       0.416667       0.000000
      0.458333       0.437500       0.000000
      0.437500       0.437500       0.000000
      0.416667       0.437500       0.000000
      0.437500       0.437500       0.000000
      0.437500       0.458333       0.000000
      0.416667       0.458333       0.000000
      0.437500       0.437500       0.000000
      0.458333       0.437500       0.000000
      0.458333       0.458333       0.000000
      0.437500       0.458333       0.000000
      0.458333       0.416667       0.000000
      0.479167       0.416667       0.000000
      0.479167       0.437500       0.000000
      0.458333       0.437500       0.000000
      0.479167       0.416667       0.000000
      0.500000       0.416667       0.000000
      0.500000       0.437500       0.000000
      0.479167       0.437500       0.000000
      0.458333       0.437500       0.000000
      0.479167       0.437500       0.000000
      0.479167       0.458333       0.000000
      0.458333       0.458333       0.000000
      0.479167       0.437500       0.000000
      0.500000       0.437500       0.000000
      0.500000       0.458333       0.000000
      0.479167       0.458333       0.000000
      0.416667       0.458333       0.000000
      0.437500       0.458333       0.000000
      0.437500       0.479167       0.000000
      0.416667       0.479167       0.000000
      0.437500       0.458333       0.000000
      0.458333       0.458333       0.000000
      0.458333       0.479167       0.000000
      0.437500       0.479167       0.000000
      0.416667       0.479167       0.000000
      0.437500       0.479167       0.000000
      0.437500       0.500000       0.000000
      0.416667       0.500000       0.000000
[...]
POINT_DATA  1152
VECTORS U float 
      0.000000       0.000000       0.000000
      0.000000       0.000000       0.000000
      0.000032      -0.000004       0.000000
      0.000026      -0.000002       0.000000
      0.000000       0.000000       0.000000
      0.000000       0.000000       0.000000
      0.000039       0.000007       0.000000
      0.000032      -0.000004       0.000000
      0.000026      -0.000002       0.000000
      0.000032      -0.000004       0.000000
      0.000039      -0.000012       0.000000
      0.000031      -0.000026       0.000000
      0.000032      -0.000004       0.000000
      0.000039       0.000007       0.000000
      0.000047       0.000011       0.000000
      0.000039      -0.000012       0.000000
      0.000000       0.000000       0.000000
      0.000000       0.000000       0.000000
      0.000046       0.000023       0.000000
      0.000039       0.000007       0.000000
      0.000000       0.000000       0.000000
      0.000000       0.000000       0.000000
      0.000049       0.000043       0.000000
      0.000046       0.000023       0.000000
      0.000039       0.000007       0.000000
      0.000046       0.000023       0.000000
      0.000056       0.000041       0.000000
      0.000047       0.000011       0.000000
      0.000046       0.000023       0.000000
      0.000049       0.000043       0.000000
      0.000060       0.000084       0.000000
      0.000056       0.000041       0.000000
      0.000000       0.000000       0.000000
      0.000000       0.000000       0.000000
      0.000045       0.000067       0.000000
      0.000049       0.000043       0.000000
      0.000000       0.000000       0.000000
      0.000000       0.000000       0.000000
      0.000031       0.000091       0.000000
      0.000045       0.000067       0.000000
      0.000049       0.000043       0.000000
      0.000045       0.000067       0.000000
      0.000053       0.000139       0.000000
      0.000060       0.000084       0.000000
      0.000045       0.000067       0.000000
      0.000031       0.000091       0.000000
      0.000028       0.000196       0.000000
      0.000053       0.000139       0.000000
      0.000031      -0.000026       0.000000
      0.000039      -0.000012       0.000000
      0.000016      -0.000022       0.000000
      0.000007      -0.000054       0.000000
      0.000039      -0.000012       0.000000
      0.000047       0.000011       0.000000
      0.000023       0.000011       0.000000
      0.000016      -0.000022       0.000000
      0.000007      -0.000054       0.000000
      0.000016      -0.000022       0.000000
     -0.000035      -0.000031       0.000000
     -0.000040      -0.000076       0.000000
      0.000016      -0.000022       0.000000
      0.000023       0.000011       0.000000
     -0.000030       0.000009       0.000000
     -0.000035      -0.000031       0.000000
      0.000047       0.000011       0.000000
      0.000056       0.000041       0.000000
      0.000032       0.000055       0.000000
      0.000023       0.000011       0.000000
      0.000056       0.000041       0.000000
      0.000060       0.000084       0.000000
      0.000039       0.000122       0.000000
      0.000032       0.000055       0.000000
      0.000023       0.000011       0.000000
      0.000032       0.000055       0.000000
     -0.000024       0.000062       0.000000
     -0.000030       0.000009       0.000000
      0.000032       0.000055       0.000000
      0.000039       0.000122       0.000000
     -0.000016       0.000148       0.000000
     -0.000024       0.000062       0.000000
      0.000060       0.000084       0.000000
      0.000053       0.000139       0.000000
      0.000033       0.000213       0.000000
      0.000039       0.000122       0.000000
      0.000053       0.000139       0.000000
      0.000028       0.000196       0.000000
     -0.000000       0.000315       0.000000
      0.000033       0.000213       0.000000
      0.000039       0.000122       0.000000
      0.000033       0.000213       0.000000
     -0.000015       0.000283       0.000000
     -0.000016       0.000148       0.000000
      0.000033       0.000213       0.000000
     -0.000000       0.000315       0.000000
     -0.000051       0.000450       0.000000
     -0.000015       0.000283       0.000000
     -0.000040      -0.000076       0.000000
     -0.000035      -0.000031       0.000000
     -0.000098      -0.000036       0.000000
     -0.000099      -0.000086       0.000000
     -0.000035      -0.000031       0.000000
     -0.000030       0.000009       0.000000
     -0.000101       0.000008       0.000000
     -0.000098      -0.000036       0.000000
     -0.000099      -0.000086       0.000000
     -0.000098      -0.000036       0.000000
     -0.000156      -0.000035       0.000000
     -0.000156      -0.000087       0.000000
     -0.000098      -0.000036       0.000000
     -0.000101       0.000008       0.000000
     -0.000167       0.000013       0.000000
     -0.000156      -0.000035       0.000000
     -0.000030       0.000009       0.000000
     -0.000024       0.000062       0.000000
     -0.000108       0.000065       0.000000
     -0.000101       0.000008       0.000000
     -0.000024       0.000062       0.000000
     -0.000016       0.000148       0.000000
     -0.000113       0.000159       0.000000
     -0.000108       0.000065       0.000000
     -0.000101       0.000008       0.000000
     -0.000108       0.000065       0.000000
     -0.000196       0.000074       0.000000
     -0.000167       0.000013       0.000000
     -0.000108       0.000065       0.000000
     -0.000113       0.000159       0.000000
     -0.000245       0.000172       0.000000
     -0.000196       0.000074       0.000000
     -0.000016       0.000148       0.000000
     -0.000013       0.000209       0.000000
     -0.000055       0.000224       0.000000
     -0.000058       0.000155       0.000000
     -0.000013       0.000209       0.000000
     -0.000015       0.000283       0.000000
     -0.000054       0.000312       0.000000
     -0.000055       0.000224       0.000000
     -0.000058       0.000155       0.000000
     -0.000055       0.000224       0.000000
     -0.000112       0.000232       0.000000
     -0.000113       0.000159       0.000000
     -0.000055       0.000224       0.000000
     -0.000054       0.000312       0.000000
     -0.000110       0.000332       0.000000
     -0.000112       0.000232       0.000000
     -0.000015       0.000283       0.000000
     -0.000027       0.000367       0.000000
     -0.000062       0.000419       0.000000
     -0.000054       0.000312       0.000000
     -0.000027       0.000367       0.000000
     -0.000051       0.000450       0.000000
     -0.000087       0.000527       0.000000
     -0.000062       0.000419       0.000000
     -0.000054       0.000312       0.000000
     -0.000062       0.000419       0.000000
     -0.000111       0.000466       0.000000
     -0.000110       0.000332       0.000000
     -0.000062       0.000419       0.000000
     -0.000087       0.000527       0.000000
     -0.000135       0.000615       0.000000
     -0.000111       0.000466       0.000000
     -0.000113       0.000159       0.000000
     -0.000112       0.000232       0.000000
     -0.000189       0.000236       0.000000
     -0.000178       0.000163       0.000000
     -0.000112       0.000232       0.000000
     -0.000110       0.000332       0.000000
     -0.000195       0.000341       0.000000
     -0.000189       0.000236       0.000000
     -0.000178       0.000163       0.000000
     -0.000189       0.000236       0.000000
     -0.000277       0.000246       0.000000
     -0.000245       0.000172       0.000000
     -0.000189       0.000236       0.000000
     -0.000195       0.000341       0.000000
     -0.000315       0.000350       0.000000
     -0.000277       0.000246       0.000000
     -0.000110       0.000332       0.000000
     -0.000109       0.000395       0.000000
     -0.000146       0.000405       0.000000
     -0.000148       0.000337       0.000000
     -0.000109       0.000395       0.000000
     -0.000111       0.000466       0.000000
     -0.000145       0.000485       0.000000
     -0.000146       0.000405       0.000000
     -0.000148       0.000337       0.000000
     -0.000146       0.000405       0.000000
     -0.000195       0.000411       0.000000
     -0.000195       0.000341       0.000000
     -0.000146       0.000405       0.000000
     -0.000145       0.000485       0.000000
     -0.000192       0.000499       0.000000
     -0.000195       0.000411       0.000000
     -0.000111       0.000466       0.000000
     -0.000119       0.000542       0.000000
     -0.000150       0.000576       0.000000
     -0.000145       0.000485       0.000000
     -0.000119       0.000542       0.000000
     -0.000135       0.000615       0.000000
     -0.000166       0.000666       0.000000
     -0.000150       0.000576       0.000000
     -0.000145       0.000485       0.000000
     -0.000150       0.000576       0.000000
     -0.000192       0.000608       0.000000
     -0.000192       0.000499       0.000000
     -0.000150       0.000576       0.000000
     -0.000166       0.000666       0.000000
     -0.000206       0.000725       0.000000
     -0.000192       0.000608       0.000000
     -0.000195       0.000341       0.000000
     -0.000195       0.000411       0.000000
     -0.000260       0.000413       0.000000
     -0.000252       0.000343       0.000000
     -0.000195       0.000411       0.000000
     -0.000192       0.000499       0.000000
     -0.000262       0.000504       0.000000
     -0.000260       0.000413       0.000000
     -0.000252       0.000343       0.000000
     -0.000260       0.000413       0.000000
     -0.000336       0.000419       0.000000
     -0.000315       0.000350       0.000000
     -0.000260       0.000413       0.000000
     -0.000262       0.000504       0.000000
     -0.000359       0.000508       0.000000
     -0.000336       0.000419       0.000000
     -0.000192       0.000499       0.000000
     -0.000191       0.000551       0.000000
     -0.000221       0.000557       0.000000
     -0.000224       0.000502       0.000000
     -0.000191       0.000551       0.000000
     -0.000192       0.000608       0.000000
     -0.000219       0.000621       0.000000
     -0.000221       0.000557       0.000000
     -0.000224       0.000502       0.000000
     -0.000221       0.000557       0.000000
     -0.000260       0.000561       0.000000
     -0.000262       0.000504       0.000000
     -0.000221       0.000557       0.000000
     -0.000219       0.000621       0.000000
     -0.000256       0.000629       0.000000
     -0.000260       0.000561       0.000000
     -0.000192       0.000608       0.000000
     -0.000196       0.000668       0.000000
     -0.000221       0.000691       0.000000
     -0.000219       0.000621       0.000000
     -0.000196       0.000668       0.000000
     -0.000206       0.000725       0.000000
     -0.000231       0.000759       0.000000
     -0.000221       0.000691       0.000000
     -0.000219       0.000621       0.000000
     -0.000221       0.000691       0.000000
     -0.000254       0.000713       0.000000
     -0.000256       0.000629       0.000000
     -0.000221       0.000691       0.000000
     -0.000231       0.000759       0.000000
     -0.000262       0.000799       0.000000
     -0.000254       0.000713       0.000000
     -0.000262       0.000504       0.000000
     -0.000260       0.000561       0.000000
     -0.000311       0.000562       0.000000
     -0.000308       0.000505       0.000000
     -0.000260       0.000561       0.000000
     -0.000256       0.000629       0.000000
     -0.000310       0.000632       0.000000
     -0.000311       0.000562       0.000000
     -0.000308       0.000505       0.000000
     -0.000311       0.000562       0.000000
     -0.000371       0.000565       0.000000
     -0.000359       0.000508       0.000000
     -0.000311       0.000562       0.000000
     -0.000310       0.000632       0.000000
     -0.000384       0.000634       0.000000
     -0.000371       0.000565       0.000000
     -0.000256       0.000629       0.000000
     -0.000254       0.000713       0.000000
     -0.000302       0.000727       0.000000
     -0.000310       0.000632       0.000000
     -0.000254       0.000713       0.000000
     -0.000262       0.000799       0.000000
     -0.000305       0.000851       0.000000
     -0.000302       0.000727       0.000000
     -0.000310       0.000632       0.000000
     -0.000302       0.000727       0.000000
     -0.000397       0.000731       0.000000
     -0.000384       0.000634       0.000000
     -0.000302       0.000727       0.000000
     -0.000305       0.000851       0.000000
     -0.000400       0.000963       0.000000
     -0.000397       0.000731       0.000000
      0.000000       0.000000       0.000000
      0.000000       0.000000       0.000000
      0.000007       0.000112       0.000000
      0.000031       0.000091       0.000000
      0.000000       0.000000       0.000000
      0.000000       0.000000       0.000000
     -0.000023       0.000127       0.000000
      0.000007       0.000112       0.000000
      0.000031       0.000091       0.000000
      0.000007       0.000112       0.000000
     -0.000015       0.000244       0.000000
      0.000028       0.000196       0.000000
      0.000007       0.000112       0.000000
     -0.000023       0.000127       0.000000
     -0.000068       0.000275       0.000000
     -0.000015       0.000244       0.000000
      0.000000       0.000000       0.000000
      0.000000       0.000000       0.000000
     -0.000055       0.000137       0.000000
     -0.000023       0.000127       0.000000
      0.000000       0.000000       0.000000
      0.000000       0.000000       0.000000
     -0.000091       0.000147       0.000000
     -0.000055       0.000137       0.000000
     -0.000023       0.000127       0.000000
     -0.000055       0.000137       0.000000
     -0.000125       0.000295       0.000000
     -0.000068       0.000275       0.000000
     -0.000055       0.000137       0.000000
     -0.000091       0.000147       0.000000
     -0.000185       0.000315       0.000000
     -0.000125       0.000295       0.000000
      0.000000       0.000000       0.000000
      0.000000       0.000000       0.000000
     -0.000139       0.000170       0.000000
     -0.000091       0.000147       0.000000
      0.000000       0.000000       0.000000
      0.000000       0.000000       0.000000
     -0.000213       0.000252       0.000000
     -0.000139       0.000170       0.000000
     -0.000091       0.000147       0.000000
     -0.000139       0.000170       0.000000
     -0.000253       0.000352       0.000000
     -0.000185       0.000315       0.000000
     -0.000139       0.000170       0.000000
     -0.000213       0.000252       0.000000
     -0.000326       0.000426       0.000000
     -0.000253       0.000352       0.000000
      0.000028       0.000196       0.000000
     -0.000015       0.000244       0.000000
     -0.000060       0.000395       0.000000
     -0.000000       0.000315       0.000000
     -0.000015       0.000244       0.000000
     -0.000068       0.000275       0.000000
     -0.000130       0.000441       0.000000
     -0.000060       0.000395       0.000000
     -0.000000       0.000315       0.000000
     -0.000060       0.000395       0.000000
     -0.000127       0.000570       0.000000
     -0.000051       0.000450       0.000000
     -0.000060       0.000395       0.000000
     -0.000130       0.000441       0.000000
     -0.000205       0.000620       0.000000
     -0.000127       0.000570       0.000000
     -0.000068       0.000275       0.000000
     -0.000125       0.000295       0.000000
     -0.000200       0.000466       0.000000
     -0.000130       0.000441       0.000000
     -0.000125       0.000295       0.000000
     -0.000185       0.000315       0.000000
     -0.000270       0.000489       0.000000
     -0.000200       0.000466       0.000000
     -0.000130       0.000441       0.000000
     -0.000200       0.000466       0.000000
     -0.000274       0.000642       0.000000
     -0.000205       0.000620       0.000000
     -0.000200       0.000466       0.000000
     -0.000270       0.000489       0.000000
     -0.000341       0.000660       0.000000
     -0.000274       0.000642       0.000000
     -0.000185       0.000315       0.000000
     -0.000253       0.000352       0.000000
     -0.000341       0.000525       0.000000
     -0.000270       0.000489       0.000000
     -0.000253       0.000352       0.000000
     -0.000326       0.000426       0.000000
     -0.000409       0.000585       0.000000
     -0.000341       0.000525       0.000000
     -0.000270       0.000489       0.000000
     -0.000341       0.000525       0.000000
     -0.000409       0.000688       0.000000
     -0.000341       0.000660       0.000000
     -0.000341       0.000525       0.000000
     -0.000409       0.000585       0.000000
     -0.000474       0.000732       0.000000
     -0.000409       0.000688       0.000000
     -0.000205       0.000620       0.000000
     -0.000274       0.000642       0.000000
     -0.000336       0.000812       0.000000
     -0.000283       0.000801       0.000000
     -0.000274       0.000642       0.000000
     -0.000341       0.000660       0.000000
     -0.000394       0.000824       0.000000
     -0.000336       0.000812       0.000000
     -0.000283       0.000801       0.000000
     -0.000336       0.000812       0.000000
     -0.000365       0.000972       0.000000
     -0.000326       0.000966       0.000000
     -0.000336       0.000812       0.000000
     -0.000394       0.000824       0.000000
     -0.000417       0.000982       0.000000
     -0.000365       0.000972       0.000000
     -0.000341       0.000660       0.000000
     -0.000409       0.000688       0.000000
     -0.000456       0.000843       0.000000
     -0.000394       0.000824       0.000000
     -0.000409       0.000688       0.000000
     -0.000474       0.000732       0.000000
     -0.000518       0.000871       0.000000
     -0.000456       0.000843       0.000000
     -0.000394       0.000824       0.000000
     -0.000456       0.000843       0.000000
     -0.000477       0.000994       0.000000
     -0.000417       0.000982       0.000000
     -0.000456       0.000843       0.000000
     -0.000518       0.000871       0.000000
     -0.000538       0.001004       0.000000
     -0.000477       0.000994       0.000000
     -0.000051       0.000450       0.000000
     -0.000087       0.000520       0.000000
     -0.000128       0.000614       0.000000
     -0.000087       0.000527       0.000000
     -0.000087       0.000520       0.000000
     -0.000127       0.000570       0.000000
     -0.000172       0.000667       0.000000
     -0.000128       0.000614       0.000000
     -0.000087       0.000527       0.000000
     -0.000128       0.000614       0.000000
     -0.000183       0.000721       0.000000
     -0.000135       0.000615       0.000000
     -0.000128       0.000614       0.000000
     -0.000172       0.000667       0.000000
     -0.000225       0.000771       0.000000
     -0.000183       0.000721       0.000000
     -0.000127       0.000570       0.000000
     -0.000167       0.000601       0.000000
     -0.000211       0.000696       0.000000
     -0.000172       0.000667       0.000000
     -0.000167       0.000601       0.000000
     -0.000205       0.000620       0.000000
     -0.000245       0.000712       0.000000
     -0.000211       0.000696       0.000000
     -0.000172       0.000667       0.000000
     -0.000211       0.000696       0.000000
     -0.000256       0.000791       0.000000