# vtk DataFile Version 2.0
time_10.vtk
ASCII
DATASET UNSTRUCTURED_GRID
POINTS  1152 float
      0.000000       0.000000       0.000000
      0.083333       0.000000       0.000000
      0.083333       0.083333       0.000000
      0.000000       0.083333       0.000000
      0.083333       0.000000       0.000000
      0.166667       0.000000       0.000000
      0.166667       0.083333       0.000000
      0.083333       0.083333       0.000000
      0.000000       0.083333       0.000000
      0.083333       0.083333       0.000000
      0.083333       0.166667       0.000000
      0.000000       0.166667       0.000000
      0.083333       0.083333       0.000000
      0.166667       0.083333       0.000000
      0.166667       0.166667       0.000000
      0.083333       0.166667       0.000000
      0.166667       0.000000       0.000000
      0.250000       0.000000       0.000000
      0.250000       0.083333       0.000000
      0.166667       0.083333       0.000000
      0.250000       0.000000       0.000000
      0.333333       0.000000       0.000000
      0.333333       0.083333       0.000000
      0.250000       0.083333       0.000000
      0.166667       0.083333       0.000000
      0.250000       0.083333       0.000000
      0.250000       0.166667       0.000000
      0.166667       0.166667       0.000000
      0.250000       0.083333       0.000000
      0.333333       0.083333       0.000000
      0.333333       0.166667       0.000000
      0.250000       0.166667       0.000000
      0.333333       0.000000       0.000000
      0.416667      -0.000000       0.000000
      0.416667       0.083333       0.000000
      0.333333       0.083333       0.000000
      0.416667      -0.000000       0.000000
      0.500000       0.000000       0.000000
      0.500000       0.083333       0.000000
      0.416667       0.083333       0.000000
      0.333333       0.083333       0.000000
      0.416667       0.083333       0.000000
      0.416667       0.166667       0.000000
      0.333333       0.166667       0.000000
      0.416667       0.083333       0.000000
      0.500000       0.083333       0.000000
      0.500000       0.166667       0.000000
      0.416667       0.166667       0.000000
      0.000000       0.166667       0.000000
      0.083333       0.166667       0.000000
      0.083333       0.250000       0.000000
      0.000000       0.250000       0.000000
      0.083333       0.166667       0.000000
      0.166667       0.166667       0.000000
      0.166667       0.250000       0.000000
      0.083333       0.250000       0.000000
      0.000000       0.250000       0.000000
      0.083333       0.250000       0.000000
      0.083333       0.333333       0.000000
      0.000000       0.333333       0.000000
      0.083333       0.250000       0.000000
      0.166667       0.250000       0.000000
      0.166667       0.333333       0.000000
      0.083333       0.333333       0.000000
      0.166667       0.166667       0.000000
      0.250000       0.166667       0.000000
      0.250000       0.250000       0.000000
      0.166667       0.250000       0.000000
      0.250000       0.166667       0.000000
      0.333333       0.166667       0.000000
      0.333333       0.250000       0.000000
      0.250000       0.250000       0.000000
      0.166667       0.250000       0.000000
      0.250000       0.250000       0.000000
      0.250000       0.333333       0.000000
      0.166667       0.333333       0.000000
      0.250000       0.250000       0.000000
      0.333333       0.250000       0.000000
      0.333333       0.333333       0.000000
      0.250000       0.333333       0.000000
      0.333333       0.166667       0.000000
      0.416667       0.166667       0.000000
      0.416667       0.250000       0.000000
      0.333333       0.250000       0.000000
      0.416667       0.166667       0.000000
      0.500000       0.166667       0.000000
      0.500000       0.250000       0.000000
      0.416667       0.250000       0.000000
      0.333333       0.250000       0.000000
      0.416667       0.250000       0.000000
      0.416667       0.333333       0.000000
      0.333333       0.333333       0.000000
      0.416667       0.250000       0.000000
      0.500000       0.250000       0.000000
      0.500000       0.333333       0.000000
      0.416667       0.333333       0.000000
      0.000000       0.333333       0.000000
      0.083333       0.333333       0.000000
      0.083333       0.416667       0.000000
     -0.000000       0.416667       0.000000
      0.083333       0.333333       0.000000
      0.166667       0.333333       0.000000
      0.166667       0.416667       0.000000
      0.083333       0.416667       0.000000
     -0.000000       0.416667       0.000000
      0.083333       0.416667       0.000000
      0.083333       0.500000       0.000000
      0.000000       0.500000       0.000000
      0.083333       0.416667       0.000000
      0.166667       0.416667       0.000000
      0.166667       0.500000       0.000000
      0.083333       0.500000       0.000000
      0.166667       0.333333       0.000000
      0.250000       0.333333       0.000000
      0.250000       0.416667       0.000000
      0.166667       0.416667       0.000000
      0.250000       0.333333       0.000000
      0.333333       0.333333       0.000000
      0.333333       0.416667       0.000000
      0.250000       0.416667       0.000000
      0.166667       0.416667       0.000000
      0.250000       0.416667       0.000000
      0.250000       0.500000       0.000000
      0.166667       0.500000       0.000000
      0.250000       0.416667       0.000000
      0.333333       0.416667       0.000000
      0.333333       0.500000       0.000000
      0.250000       0.500000       0.000000
      0.333333       0.333333       0.000000
      0.375000       0.333333       0.000000
      0.375000       0.375000       0.000000
      0.333333       0.375000       0.000000
      0.375000       0.333333       0.000000
      0.416667       0.333333       0.000000
      0.416667       0.375000       0.000000
      0.375000       0.375000       0.000000
      0.333333       0.375000       0.000000
      0.375000       0.375000       0.000000
      0.375000       0.416667       0.000000
      0.333333       0.416667       0.000000
      0.375000       0.375000       0.000000
      0.416667       0.375000       0.000000
      0.416667       0.416667       0.000000
      0.375000       0.416667       0.000000
      0.416667       0.333333       0.000000
      0.458333       0.333333       0.000000
      0.458333       0.375000       0.000000
      0.416667       0.375000       0.000000
      0.458333       0.333333       0.000000
      0.500000       0.333333       0.000000
      0.500000       0.375000       0.000000
      0.458333       0.375000       0.000000
      0.416667       0.375000       0.000000
      0.458333       0.375000       0.000000
      0.458333       0.416667       0.000000
      0.416667       0.416667       0.000000
      0.458333       0.375000       0.000000
      0.500000       0.375000       0.000000
      0.500000       0.416667       0.000000
      0.458333       0.416667       0.000000
      0.333333       0.416667       0.000000
      0.375000       0.416667       0.000000
      0.375000       0.458333       0.000000
      0.333333       0.458333       0.000000
      0.375000       0.416667       0.000000
      0.416667       0.416667       0.000000
      0.416667       0.458333       0.000000
      0.375000       0.458333       0.000000
      0.333333       0.458333       0.000000
      0.375000       0.458333       0.000000
      0.375000       0.500000       0.000000
      0.333333       0.500000       0.000000
      0.375000       0.458333       0.000000
      0.416667       0.458333       0.000000
      0.416667       0.500000       0.000000
      0.375000       0.500000       0.000000
      0.416667       0.416667       0.000000
      0.437500       0.416667       0.000000
      0.437500       0.437500       0.000000
      0.416667       0.437500       0.000000
      0.437500       0.416667       0.000000
      0.458333       0.416667       0.000000
      0.458333       0.437500       0.000000
      0.437500       0.437500       0.000000
      0.416667       0.437500       0.000000
      0.437500       0.437500       0.000000
      0.437500       0.458333       0.000000
      0.416667       0.458333       0.000000
      0.437500       0.437500       0.000000
      0.458333       0.437500       0.000000
      0.458333       0.458333       0.000000
      0.437500       0.458333       0.000000
      0.458333       0.416667       0.000000
      0.479167       0.416667       0.000000
      0.479167       0.437500       0.000000
      0.458333       0.437500       0.000000
      0.479167       0.416667       0.000000
      0.500000       0.416667       0.000000
      0.500000       0.437500       0.000000
      0.479167       0.437500       0.000000
      0.458333       0.437500       0.000000
      0.479167       0.437500       0.000000
      0.479167       0.458333       0.000000
      0.458333       0.458333       0.000000
      0.479167       0.437500       0.000000
      0.500000       0.437500       0.000000
      0.500000       0.458333       0.000000
      0.479167       0.458333       0.000000
      0.416667       0.458333       0.000000
      0.437500       0.458333       0.000000
      0.437500       0.479167       0.000000
      0.416667       0.479167       0.000000
      0.437500       0.458333       0.000000
      0.458333       0.458333       0.000000
      0.458333       0.479167       0.000000
      0.437500       0.479167       0.000000
      0.416667       0.479167       0.000000
      0.437500       0.479167       0.000000
      0.437500       0.500000       0.000000
      0.416667       0.500000       0.000000
[...]
POINT_DATA  1152
VECTORS U float 
      0.000000       0.000000       0.000000
      0.000000       0.000000       0.000000
      0.000008      -0.000001       0.000000
      0.000007      -0.000000       0.000000
      0.000000       0.000000       0.000000
      0.000000       0.000000       0.000000
      0.000010       0.000002       0.000000
      0.000008      -0.000001       0.000000
      0.000007      -0.000000       0.000000
      0.000008      -0.000001       0.000000
      0.000010      -0.000003       0.000000
      0.000008      -0.000006       0.000000
      0.000008      -0.000001       0.000000
      0.000010       0.000002       0.000000
      0.000012       0.000003       0.000000
      0.000010      -0.000003       0.000000
      0.000000       0.000000       0.000000
      0.000000       0.000000       0.000000
      0.000012       0.000006       0.000000
      0.000010       0.000002       0.000000
      0.000000       0.000000       0.000000
      0.000000       0.000000       0.000000
      0.000012       0.000011       0.000000
      0.000012       0.000006       0.000000
      0.000010       0.000002       0.000000
      0.000012       0.000006       0.000000
      0.000014       0.000011       0.000000
      0.000012       0.000003       0.000000
      0.000012       0.000006       0.000000
      0.000012       0.000011       0.000000
      0.000015       0.000021       0.000000
      0.000014       0.000011       0.000000
      0.000000       0.000000       0.000000
      0.000000       0.000000       0.000000
      0.000011       0.000017       0.000000
      0.000012       0.000011       0.000000
      0.000000       0.000000       0.000000
      0.000000       0.000000       0.000000
      0.000008       0.000023       0.000000
      0.000011       0.000017       0.000000
      0.000012       0.000011       0.000000
      0.000011       0.000017       0.000000
      0.000014       0.000035       0.000000
      0.000015       0.000021       0.000000
      0.000011       0.000017       0.000000
      0.000008       0.000023       0.000000
      0.000007       0.000050       0.000000
      0.000014       0.000035       0.000000
      0.000008      -0.000006       0.000000
      0.000010      -0.000003       0.000000
      0.000004      -0.000005       0.000000
      0.000002      -0.000013       0.000000
      0.000010      -0.000003       0.000000
      0.000012       0.000003       0.000000
      0.000006       0.000003       0.000000
      0.000004      -0.000005       0.000000
      0.000002      -0.000013       0.000000
      0.000004      -0.000005       0.000000
     -0.000008      -0.000008       0.000000
     -0.000010      -0.000019       0.000000
      0.000004      -0.000005       0.000000
      0.000006       0.000003       0.000000
     -0.000007       0.000002       0.000000
     -0.000008      -0.000008       0.000000
      0.000012       0.000003       0.000000
      0.000014       0.000011       0.000000
      0.000008       0.000014       0.000000
      0.000006       0.000003       0.000000
      0.000014       0.000011       0.000000
      0.000015       0.000021       0.000000
      0.000010       0.000031       0.000000
      0.000008       0.000014       0.000000
      0.000006       0.000003       0.000000
      0.000008       0.000014       0.000000
     -0.000006       0.000016       0.000000
     -0.000007       0.000002       0.000000
      0.000008       0.000014       0.000000
      0.000010       0.000031       0.000000
     -0.000004       0.000037       0.000000
     -0.000006       0.000016       0.000000
      0.000015       0.000021       0.000000
      0.000014       0.000035       0.000000
      0.000009       0.000054       0.000000
      0.000010       0.000031       0.000000
      0.000014       0.000035       0.000000
      0.000007       0.000050       0.000000
      0.000000       0.000079       0.000000
      0.000009       0.000054       0.000000
      0.000010       0.000031       0.000000
      0.000009       0.000054       0.000000
     -0.000003       0.000072       0.000000
     -0.000004       0.000037       0.000000
      0.000009       0.000054       0.000000
      0.000000       0.000079       0.000000
     -0.000013       0.000114       0.000000
     -0.000003       0.000072       0.000000
     -0.000010      -0.000019       0.000000
     -0.000008      -0.000008       0.000000
     -0.000024      -0.000009       0.000000
     -0.000025      -0.000022       0.000000
     -0.000008      -0.000008       0.000000
     -0.000007       0.000002       0.000000
     -0.000025       0.000002       0.000000
     -0.000024      -0.000009       0.000000
     -0.000025      -0.000022       0.000000
     -0.000024      -0.000009       0.000000
     -0.000039      -0.000009       0.000000
     -0.000039      -0.000022       0.000000
     -0.000024      -0.000009       0.000000
     -0.000025       0.000002       0.000000
     -0.000042       0.000004       0.000000
     -0.000039      -0.000009       0.000000
     -0.000007       0.000002       0.000000
     -0.000006       0.000016       0.000000
     -0.000027       0.000017       0.000000
     -0.000025       0.000002       0.000000
     -0.000006       0.000016       0.000000
     -0.000004       0.000037       0.000000
     -0.000028       0.000040       0.000000
     -0.000027       0.000017       0.000000
     -0.000025       0.000002       0.000000
     -0.000027       0.000017       0.000000
     -0.000049       0.000019       0.000000
     -0.000042       0.000004       0.000000
     -0.000027       0.000017       0.000000
     -0.000028       0.000040       0.000000
     -0.000061       0.000043       0.000000
     -0.000049       0.000019       0.000000
     -0.000004       0.000037       0.000000
     -0.000003       0.000053       0.000000
     -0.000013       0.000057       0.000000
     -0.000014       0.000039       0.000000
     -0.000003       0.000053       0.000000
     -0.000003       0.000072       0.000000
     -0.000013       0.000079       0.000000
     -0.000013       0.000057       0.000000
     -0.000014       0.000039       0.000000
     -0.000013       0.000057       0.000000
     -0.000028       0.000059       0.000000
     -0.000028       0.000040       0.000000
     -0.000013       0.000057       0.000000
     -0.000013       0.000079       0.000000
     -0.000027       0.000084       0.000000
     -0.000028       0.000059       0.000000
     -0.000003       0.000072       0.000000
     -0.000006       0.000093       0.000000
     -0.000015       0.000106       0.000000
     -0.000013       0.000079       0.000000
     -0.000006       0.000093       0.000000
     -0.000013       0.000114       0.000000
     -0.000022       0.000133       0.000000
     -0.000015       0.000106       0.000000
     -0.000013       0.000079       0.000000
     -0.000015       0.000106       0.000000
     -0.000027       0.000118       0.000000
     -0.000027       0.000084       0.000000
     -0.000015       0.000106       0.000000
     -0.000022       0.000133       0.000000
     -0.000034       0.000155       0.000000
     -0.000027       0.000118       0.000000
     -0.000028       0.000040       0.000000
     -0.000028       0.000059       0.000000
     -0.000047       0.000060       0.000000
     -0.000044       0.000041       0.000000
     -0.000028       0.000059       0.000000
     -0.000027       0.000084       0.000000
     -0.000049       0.000086       0.000000
     -0.000047       0.000060       0.000000
     -0.000044       0.000041       0.000000
     -0.000047       0.000060       0.000000
     -0.000069       0.000062       0.000000
     -0.000061       0.000043       0.000000
     -0.000047       0.000060       0.000000
     -0.000049       0.000086       0.000000
     -0.000079       0.000088       0.000000
     -0.000069       0.000062       0.000000
     -0.000027       0.000084       0.000000
     -0.000027       0.000100       0.000000
     -0.000036       0.000102       0.000000
     -0.000037       0.000085       0.000000
     -0.000027       0.000100       0.000000
     -0.000027       0.000118       0.000000
     -0.000036       0.000123       0.000000
     -0.000036       0.000102       0.000000
     -0.000037       0.000085       0.000000
     -0.000036       0.000102       0.000000
     -0.000049       0.000104       0.000000
     -0.000049       0.000086       0.000000
     -0.000036       0.000102       0.000000
     -0.000036       0.000123       0.000000
     -0.000048       0.000126       0.000000
     -0.000049       0.000104       0.000000
     -0.000027       0.000118       0.000000
     -0.000029       0.000137       0.000000
     -0.000037       0.000145       0.000000
     -0.000036       0.000123       0.000000
     -0.000029       0.000137       0.000000
     -0.000034       0.000155       0.000000
     -0.000041       0.000168       0.000000
     -0.000037       0.000145       0.000000
     -0.000036       0.000123       0.000000
     -0.000037       0.000145       0.000000
     -0.000048       0.000153       0.000000
     -0.000048       0.000126       0.000000
     -0.000037       0.000145       0.000000
     -0.000041       0.000168       0.000000
     -0.000051       0.000182       0.000000
     -0.000048       0.000153       0.000000
     -0.000049       0.000086       0.000000
     -0.000049       0.000104       0.000000
     -0.000065       0.000104       0.000000
     -0.000063       0.000087       0.000000
     -0.000049       0.000104       0.000000
     -0.000048       0.000126       0.000000
     -0.000065       0.000127       0.000000
     -0.000065       0.000104       0.000000
     -0.000063       0.000087       0.000000
     -0.000065       0.000104       0.000000
     -0.000084       0.000106       0.000000
     -0.000079       0.000088       0.000000
     -0.000065       0.000104       0.000000
     -0.000065       0.000127       0.000000
     -0.000089       0.000128       0.000000
     -0.000084       0.000106       0.000000
     -0.000048       0.000126       0.000000
     -0.000047       0.000139       0.000000
     -0.000055       0.000141       0.000000
     -0.000056       0.000127       0.000000
     -0.000047       0.000139       0.000000
     -0.000048       0.000153       0.000000
     -0.000054       0.000157       0.000000
     -0.000055       0.000141       0.000000
     -0.000056       0.000127       0.000000
     -0.000055       0.000141       0.000000
     -0.000065       0.000141       0.000000
     -0.000065       0.000127       0.000000
     -0.000055       0.000141       0.000000
     -0.000054       0.000157       0.000000
     -0.000064       0.000159       0.000000
     -0.000065       0.000141       0.000000
     -0.000048       0.000153       0.000000
     -0.000049       0.000168       0.000000
     -0.000055       0.000174       0.000000
     -0.000054       0.000157       0.000000
     -0.000049       0.000168       0.000000
     -0.000051       0.000182       0.000000
     -0.000057       0.000191       0.000000
     -0.000055       0.000174       0.000000
     -0.000054       0.000157       0.000000
     -0.000055       0.000174       0.000000
     -0.000063       0.000179       0.000000
     -0.000064       0.000159       0.000000
     -0.000055       0.000174       0.000000
     -0.000057       0.000191       0.000000
     -0.000065       0.000201       0.000000
     -0.000063       0.000179       0.000000
     -0.000065       0.000127       0.000000
     -0.000065       0.000141       0.000000
     -0.000077       0.000142       0.000000
     -0.000077       0.000127       0.000000
     -0.000065       0.000141       0.000000
     -0.000064       0.000159       0.000000
     -0.000077       0.000159       0.000000
     -0.000077       0.000142       0.000000
     -0.000077       0.000127       0.000000
     -0.000077       0.000142       0.000000
     -0.000092       0.000142       0.000000
     -0.000089       0.000128       0.000000
     -0.000077       0.000142       0.000000
     -0.000077       0.000159       0.000000
     -0.000096       0.000160       0.000000
     -0.000092       0.000142       0.000000
     -0.000064       0.000159       0.000000
     -0.000063       0.000179       0.000000
     -0.000075       0.000183       0.000000
     -0.000077       0.000159       0.000000
     -0.000063       0.000179       0.000000
     -0.000065       0.000201       0.000000
     -0.000076       0.000214       0.000000
     -0.000075       0.000183       0.000000
     -0.000077       0.000159       0.000000
     -0.000075       0.000183       0.000000
     -0.000099       0.000184       0.000000
     -0.000096       0.000160       0.000000
     -0.000075       0.000183       0.000000
     -0.000076       0.000214       0.000000
     -0.000099       0.000241       0.000000
     -0.000099       0.000184       0.000000
      0.000000       0.000000       0.000000
      0.000000       0.000000       0.000000
      0.000002       0.000028       0.000000
      0.000008       0.000023       0.000000
      0.000000       0.000000       0.000000
      0.000000       0.000000       0.000000
     -0.000006       0.000032       0.000000
      0.000002       0.000028       0.000000
      0.000008       0.000023       0.000000
      0.000002       0.000028       0.000000
     -0.000004       0.000061       0.000000
      0.000007       0.000050       0.000000
      0.000002       0.000028       0.000000
     -0.000006       0.000032       0.000000
     -0.000017       0.000069       0.000000
     -0.000004       0.000061       0.000000
      0.000000       0.000000       0.000000
      0.000000       0.000000       0.000000
     -0.000014       0.000034       0.000000
     -0.000006       0.000032       0.000000
      0.000000       0.000000       0.000000
      0.000000       0.000000       0.000000
     -0.000023       0.000037       0.000000
     -0.000014       0.000034       0.000000
     -0.000006       0.000032       0.000000
     -0.000014       0.000034       0.000000
     -0.000031       0.000074       0.000000
     -0.000017       0.000069       0.000000
     -0.000014       0.000034       0.000000
     -0.000023       0.000037       0.000000
     -0.000046       0.000079       0.000000
     -0.000031       0.000074       0.000000
      0.000000       0.000000       0.000000
      0.000000       0.000000       0.000000
     -0.000035       0.000042       0.000000
     -0.000023       0.000037       0.000000
      0.000000       0.000000       0.000000
      0.000000       0.000000       0.000000
     -0.000053       0.000063       0.000000
     -0.000035       0.000042       0.000000
     -0.000023       0.000037       0.000000
     -0.000035       0.000042       0.000000
     -0.000063       0.000088       0.000000
     -0.000046       0.000079       0.000000
     -0.000035       0.000042       0.000000
     -0.000053       0.000063       0.000000
     -0.000081       0.000106       0.000000
     -0.000063       0.000088       0.000000
      0.000007       0.000050       0.000000
     -0.000004       0.000061       0.000000
     -0.000015       0.000099       0.000000
      0.000000       0.000079       0.000000
     -0.000004       0.000061       0.000000
     -0.000017       0.000069       0.000000
     -0.000032       0.000111       0.000000
     -0.000015       0.000099       0.000000
      0.000000       0.000079       0.000000
     -0.000015       0.000099       0.000000
     -0.000032       0.000143       0.000000
     -0.000013       0.000114       0.000000
     -0.000015       0.000099       0.000000
     -0.000032       0.000111       0.000000
     -0.000051       0.000155       0.000000
     -0.000032       0.000143       0.000000
     -0.000017       0.000069       0.000000
     -0.000031       0.000074       0.000000
     -0.000050       0.000117       0.000000
     -0.000032       0.000111       0.000000
     -0.000031       0.000074       0.000000
     -0.000046       0.000079       0.000000
     -0.000067       0.000122       0.000000
     -0.000050       0.000117       0.000000
     -0.000032       0.000111       0.000000
     -0.000050       0.000117       0.000000
     -0.000068       0.000160       0.000000
     -0.000051       0.000155       0.000000
     -0.000050       0.000117       0.000000
     -0.000067       0.000122       0.000000
     -0.000085       0.000165       0.000000
     -0.000068       0.000160       0.000000
     -0.000046       0.000079       0.000000
     -0.000063       0.000088       0.000000
     -0.000085       0.000131       0.000000
     -0.000067       0.000122       0.000000
     -0.000063       0.000088       0.000000
     -0.000081       0.000106       0.000000
     -0.000102       0.000146       0.000000
     -0.000085       0.000131       0.000000
     -0.000067       0.000122       0.000000
     -0.000085       0.000131       0.000000
     -0.000102       0.000172       0.000000
     -0.000085       0.000165       0.000000
     -0.000085       0.000131       0.000000
     -0.000102       0.000146       0.000000
     -0.000118       0.000183       0.000000
     -0.000102       0.000172       0.000000
     -0.000051       0.000155       0.000000
     -0.000068       0.000160       0.000000
     -0.000083       0.000203       0.000000
     -0.000070       0.000200       0.000000
     -0.000068       0.000160       0.000000
     -0.000085       0.000165       0.000000
     -0.000098       0.000206       0.000000
     -0.000083       0.000203       0.000000
     -0.000070       0.000200       0.000000
     -0.000083       0.000203       0.000000
     -0.000091       0.000243       0.000000
     -0.000081       0.000241       0.000000
     -0.000083       0.000203       0.000000
     -0.000098       0.000206       0.000000
     -0.000104       0.000246       0.000000
     -0.000091       0.000243       0.000000
     -0.000085       0.000165       0.000000
     -0.000102       0.000172       0.000000
     -0.000114       0.000211       0.000000
     -0.000098       0.000206       0.000000
     -0.000102       0.000172       0.000000
     -0.000118       0.000183       0.000000
     -0.000129       0.000218       0.000000
     -0.000114       0.000211       0.000000
     -0.000098       0.000206       0.000000
     -0.000114       0.000211       0.000000
     -0.000119       0.000249       0.000000
     -0.000104       0.000246       0.000000
     -0.000114       0.000211       0.000000
     -0.000129       0.000218       0.000000
     -0.000134       0.000251       0.000000
     -0.000119       0.000249       0.000000
     -0.000013       0.000114       0.000000
     -0.000021       0.000131       0.000000
     -0.000032       0.000154       0.000000
     -0.000022       0.000133       0.000000
     -0.000021       0.000131       0.000000
     -0.000032       0.000143       0.000000
     -0.000043       0.000167       0.000000
     -0.000032       0.000154       0.000000
     -0.000022       0.000133       0.000000
     -0.000032       0.000154       0.000000
     -0.000045       0.000181       0.000000
     -0.000034       0.000155       0.000000
     -0.000032       0.000154       0.000000
     -0.000043       0.000167       0.000000
     -0.000056       0.000193       0.000000
     -0.000045       0.000181       0.000000
     -0.000032       0.000143       0.000000
     -0.000042       0.000151       0.000000
     -0.000052       0.000174       0.000000
     -0.000043       0.000167       0.000000
     -0.000042       0.000151       0.000000
     -0.000051       0.000155       0.000000
     -0.000061       0.000178       0.000000
     -0.000052       0.000174       0.000000
     -0.000043       0.000167       0.000000
     -0.000052       0.000174       0.000000
     -0.000064       0.000198       0.000000