# vtk DataFile Version 2.0
time_10.vtk
ASCII
DATASET UNSTRUCTURED_GRID
POINTS  1152 float
      0.000000       0.000000       0.000000
      0.083333       0.000000       0.000000
      0.083333       0.083333       0.000000
      0.000000       0.083333       0.000000
      0.083333       0.000000       0.000000
      0.166667       0.000000       0.000000
      0.166667       0.083333       0.000000
      0.083333       0.083333       0.000000
      0.000000       0.083333       0.000000
      0.083333       0.083333       0.000000
      0.083333       0.166667       0.000000
      0.000000       0.166667       0.000000
      0.083333       0.083333       0.000000
      0.166667       0.083333       0.000000
      0.166667       0.166667       0.000000
      0.083333       0.166667       0.000000
      0.166667       0.000000       0.000000
      0.250000       0.000000       0.000000
      0.250000       0.083333       0.000000
      0.166667       0.083333       0.000000
      0.250000       0.000000       0.000000
      0.333333       0.000000       0.000000
      0.333333       0.083333       0.000000
      0.250000       0.083333       0.000000
      0.166667       0.083333       0.000000
      0.250000       0.083333       0.000000
      0.250000       0.166667       0.000000
      0.166667       0.166667       0.000000
      0.250000       0.083333       0.000000
      0.333333       0.083333       0.000000
      0.333333       0.166667       0.000000
      0.250000       0.166667       0.000000
      0.333333       0.000000       0.000000
      0.416667      -0.000000       0.000000
      0.416667       0.083333       0.000000
      0.333333       0.083333       0.000000
      0.416667      -0.000000       0.000000
      0.500000       0.000000       0.000000
      0.500000       0.083333       0.000000
      0.416667       0.083333       0.000000
      0.333333       0.083333       0.000000
      0.416667       0.083333       0.000000
      0.416667       0.166667       0.000000
      0.333333       0.166667       0.000000
      0.416667       0.083333       0.000000
      0.500000       0.083333       0.000000
      0.500000       0.166667       0.000000
      0.416667       0.166667       0.000000
      0.000000       0.166667       0.000000
      0.083333       0.166667       0.000000
      0.083333       0.250000       0.000000
      0.000000       0.250000       0.000000
      0.083333       0.166667       0.000000
      0.166667       0.166667       0.000000
      0.166667       0.250000       0.000000
      0.083333       0.250000       0.000000
      0.000000       0.250000       0.000000
      0.083333       0.250000       0.000000
      0.083333       0.333333       0.000000
      0.000000       0.333333       0.000000
      0.083333       0.250000       0.000000
      0.166667       0.250000       0.000000
      0.166667       0.333333       0.000000
      0.083333       0.333333       0.000000
      0.166667       0.166667       0.000000
      0.250000       0.166667       0.000000
      0.250000       0.250000       0.000000
      0.166667       0.250000       0.000000
      0.250000       0.166667       0.000000
      0.333333       0.166667       0.000000
      0.333333       0.250000       0.000000
      0.250000       0.250000       0.000000
      0.166667       0.250000       0.000000
      0.250000       0.250000       0.000000
      0.250000       0.333333       0.000000
      0.166667       0.333333       0.000000
      0.250000       0.250000       0.000000
      0.333333       0.250000       0.000000
      0.333333       0.333333       0.000000
      0.250000       0.333333       0.000000
      0.333333       0.166667       0.000000
      0.416667       0.166667       0.000000
      0.416667       0.250000       0.000000
      0.333333       0.250000       0.000000
      0.416667       0.166667       0.000000
      0.500000       0.166667       0.000000
      0.500000       0.250000       0.000000
      0.416667       0.250000       0.000000
      0.333333       0.250000       0.000000
      0.416667       0.250000       0.000000
      0.416667       0.333333       0.000000
      0.333333       0.333333       0.000000
      0.416667       0.250000       0.000000
      0.500000       0.250000       0.000000
      0.500000       0.333333       0.000000
      0.416667       0.333333       0.000000
      0.000000       0.333333       0.000000
      0.083333       0.333333       0.000000
      0.083333       0.416667       0.000000
     -0.000000       0.416667       0.000000
      0.083333       0.333333       0.000000
      0.166667       0.333333       0.000000
      0.166667       0.416667       0.000000
      0.083333       0.416667       0.000000
     -0.000000       0.416667       0.000000
      0.083333       0.416667       0.000000
      0.083333       0.500000       0.000000
      0.000000       0.500000       0.000000
      0.083333       0.416667       0.000000
      0.166667       0.416667       0.000000
      0.166667       0.500000       0.000000
      0.083333       0.500000       0.000000
      0.166667       0.333333       0.000000
      0.250000       0.333333       0.000000
      0.250000       0.416667       0.000000
      0.166667       0.416667       0.000000
      0.250000       0.333333       0.000000
      0.333333       0.333333       0.000000
      0.333333       0.416667       0.000000
      0.250000       0.416667       0.000000
      0.166667       0.416667       0.000000
      0.250000       0.416667       0.000000
      0.250000       0.500000       0.000000
      0.166667       0.500000       0.000000
      0.250000       0.416667       0.000000
      0.333333       0.416667       0.000000
      0.333333       0.500000       0.000000
      0.250000       0.500000       0.000000
      0.333333       0.333333       0.000000
      0.375000       0.333333       0.000000
      0.375000       0.375000       0.000000
      0.333333       0.375000       0.000000
      0.375000       0.333333       0.000000
      0.416667       0.333333       0.000000
      0.416667       0.375000       0.000000
      0.375000       0.375000       0.000000
      0.333333       0.375000       0.000000
      0.375000       0.375000       0.000000
      0.375000       0.416667       0.000000
      0.333333       0.416667       0.000000
      0.375000       0.375000       0.000000
      0.416667       0.375000       0.000000
      0.416667       0.416667       0.000000
      0.375000       0.416667       0.000000
      0.416667       0.333333       0.000000
      0.458333       0.333333       0.000000
      0.458333       0.375000       0.000000
      0.416667       0.375000       0.000000
      0.458333       0.333333       0.000000
      0.500000       0.333333       0.000000
      0.500000       0.375000       0.000000
      0.458333       0.375000       0.000000
      0.416667       0.375000       0.000000
      0.458333       0.375000       0.000000
      0.458333       0.416667       0.000000
      0.416667       0.416667       0.000000
      0.458333       0.375000       0.000000
      0.500000       0.375000       0.000000
      0.500000       0.416667       0.000000
      0.458333       0.416667       0.000000
      0.333333       0.416667       0.000000
      0.375000       0.416667       0.000000
      0.375000       0.458333       0.000000
      0.333333       0.458333       0.000000
      0.375000       0.416667       0.000000
      0.416667       0.416667       0.000000
      0.416667       0.458333       0.000000
      0.375000       0.458333       0.000000
      0.333333       0.458333       0.000000
      0.375000       0.458333       0.000000
      0.375000       0.500000       0.000000
      0.333333       0.500000       0.000000
      0.375000       0.458333       0.000000
      0.416667       0.458333       0.000000
      0.416667       0.500000       0.000000
      0.375000       0.500000       0.000000
      0.416667       0.416667       0.000000
      0.437500       0.416667       0.000000
      0.437500       0.437500       0.000000
      0.416667       0.437500       0.000000
      0.437500       0.416667       0.000000
      0.458333       0.416667       0.000000
      0.458333       0.437500       0.000000
      0.437500       0.437500       0.000000
      0.416667       0.437500       0.000000
      0.437500       0.437500       0.000000
      0.437500       0.458333       0.000000
      0.416667       0.458333       0.000000
      0.437500       0.437500       0.000000
      0.458333       0.437500       0.000000
      0.458333       0.458333       0.000000
      0.437500       0.458333       0.000000
      0.458333       0.416667       0.000000
      0.479167       0.416667       0.000000
      0.479167       0.437500       0.000000
      0.458333       0.437500       0.000000
      0.479167       0.416667       0.000000
      0.500000       0.416667       0.000000
      0.500000       0.437500       0.000000
      0.479167       0.437500       0.000000
      0.458333       0.437500       0.000000
      0.479167       0.437500       0.000000
      0.479167       0.458333       0.000000
      0.458333       0.458333       0.000000
      0.479167       0.437500       0.000000
      0.500000       0.437500       0.000000
      0.500000       0.458333       0.000000
      0.479167       0.458333       0.000000
      0.416667       0.458333       0.000000
      0.437500       0.458333       0.000000
      0.437500       0.479167       0.000000
      0.416667       0.479167       0.000000
      0.437500       0.458333       0.000000
      0.458333       0.458333       0.000000
      0.458333       0.479167       0.000000
      0.437500       0.479167       0.000000
      0.416667       0.479167       0.000000
      0.437500       0.479167       0.000000
      0.437500       0.500000       0.000000
      0.416667       0.500000       0.000000
[...]
POINT_DATA  1152
VECTORS U float 
      0.000000       0.000000       0.000000
      0.000000       0.000000       0.000000
      0.000073      -0.000017       0.000000
      0.000053      -0.000019       0.000000
      0.000000       0.000000       0.000000
      0.000000       0.000000       0.000000
      0.000093       0.000014       0.000000
      0.000073      -0.000017       0.000000
      0.000053      -0.000019       0.000000
      0.000073      -0.000017       0.000000
      0.000078      -0.000044       0.000000
      0.000053      -0.000089       0.000000
      0.000073      -0.000017       0.000000
      0.000093       0.000014       0.000000
      0.000102       0.000017       0.000000
      0.000078      -0.000044       0.000000
      0.000000       0.000000       0.000000
      0.000000       0.000000       0.000000
      0.000111       0.000055       0.000000
      0.000093       0.000014       0.000000
      0.000000       0.000000       0.000000
      0.000000       0.000000       0.000000
      0.000122       0.000108       0.000000
      0.000111       0.000055       0.000000
      0.000093       0.000014       0.000000
      0.000111       0.000055       0.000000
      0.000126       0.000099       0.000000
      0.000102       0.000017       0.000000
      0.000111       0.000055       0.000000
      0.000122       0.000108       0.000000
      0.000141       0.000212       0.000000
      0.000126       0.000099       0.000000
      0.000000       0.000000       0.000000
      0.000000       0.000000       0.000000
      0.000114       0.000173       0.000000
      0.000122       0.000108       0.000000
      0.000000       0.000000       0.000000
      0.000000       0.000000       0.000000
      0.000080       0.000242       0.000000
      0.000114       0.000173       0.000000
      0.000122       0.000108       0.000000
      0.000114       0.000173       0.000000
      0.000127       0.000359       0.000000
      0.000141       0.000212       0.000000
      0.000114       0.000173       0.000000
      0.000080       0.000242       0.000000
      0.000065       0.000519       0.000000
      0.000127       0.000359       0.000000
      0.000053      -0.000089       0.000000
      0.000078      -0.000044       0.000000
      0.000003      -0.000075       0.000000
     -0.000020      -0.000168       0.000000
      0.000078      -0.000044       0.000000
      0.000102       0.000017       0.000000
      0.000025       0.000013       0.000000
      0.000003      -0.000075       0.000000
     -0.000020      -0.000168       0.000000
      0.000003      -0.000075       0.000000
     -0.000139      -0.000102       0.000000
     -0.000154      -0.000228       0.000000
      0.000003      -0.000075       0.000000
      0.000025       0.000013       0.000000
     -0.000127       0.000006       0.000000
     -0.000139      -0.000102       0.000000
      0.000102       0.000017       0.000000
      0.000126       0.000099       0.000000
      0.000050       0.000130       0.000000
      0.000025       0.000013       0.000000
      0.000126       0.000099       0.000000
      0.000141       0.000212       0.000000
      0.000071       0.000303       0.000000
      0.000050       0.000130       0.000000
      0.000025       0.000013       0.000000
      0.000050       0.000130       0.000000
     -0.000112       0.000144       0.000000
     -0.000127       0.000006       0.000000
      0.000050       0.000130       0.000000
      0.000071       0.000303       0.000000
     -0.000091       0.000366       0.000000
     -0.000112       0.000144       0.000000
      0.000141       0.000212       0.000000
      0.000127       0.000359       0.000000
      0.000060       0.000548       0.000000
      0.000071       0.000303       0.000000
      0.000127       0.000359       0.000000
      0.000065       0.000519       0.000000
     -0.000020       0.000831       0.000000
      0.000060       0.000548       0.000000
      0.000071       0.000303       0.000000
      0.000060       0.000548       0.000000
     -0.000087       0.000721       0.000000
     -0.000091       0.000366       0.000000
      0.000060       0.000548       0.000000
     -0.000020       0.000831       0.000000
     -0.000172       0.001185       0.000000
     -0.000087       0.000721       0.000000
     -0.000154      -0.000228       0.000000
     -0.000139      -0.000102       0.000000
     -0.000314      -0.000116       0.000000
     -0.000316      -0.000255       0.000000
     -0.000139      -0.000102       0.000000
     -0.000127       0.000006       0.000000
     -0.000324       0.000003       0.000000
     -0.000314      -0.000116       0.000000
     -0.000316      -0.000255       0.000000
     -0.000314      -0.000116       0.000000
     -0.000473      -0.000115       0.000000
     -0.000471      -0.000257       0.000000
     -0.000314      -0.000116       0.000000
     -0.000324       0.000003       0.000000
     -0.000502       0.000016       0.000000
     -0.000473      -0.000115       0.000000
     -0.000127       0.000006       0.000000
     -0.000112       0.000144       0.000000
     -0.000343       0.000151       0.000000
     -0.000324       0.000003       0.000000
     -0.000112       0.000144       0.000000
     -0.000091       0.000366       0.000000
     -0.000362       0.000393       0.000000
     -0.000343       0.000151       0.000000
     -0.000324       0.000003       0.000000
     -0.000343       0.000151       0.000000
     -0.000578       0.000177       0.000000
     -0.000502       0.000016       0.000000
     -0.000343       0.000151       0.000000
     -0.000362       0.000393       0.000000
     -0.000711       0.000430       0.000000
     -0.000578       0.000177       0.000000
     -0.000091       0.000366       0.000000
     -0.000083       0.000525       0.000000
     -0.000204       0.000560       0.000000
     -0.000212       0.000383       0.000000
     -0.000083       0.000525       0.000000
     -0.000087       0.000721       0.000000
     -0.000202       0.000791       0.000000
     -0.000204       0.000560       0.000000
     -0.000212       0.000383       0.000000
     -0.000204       0.000560       0.000000
     -0.000365       0.000580       0.000000
     -0.000362       0.000393       0.000000
     -0.000204       0.000560       0.000000
     -0.000202       0.000791       0.000000
     -0.000363       0.000837       0.000000
     -0.000365       0.000580       0.000000
     -0.000087       0.000721       0.000000
     -0.000113       0.000948       0.000000
     -0.000219       0.001074       0.000000
     -0.000202       0.000791       0.000000
     -0.000113       0.000948       0.000000
     -0.000172       0.001185       0.000000
     -0.000280       0.001383       0.000000
     -0.000219       0.001074       0.000000
     -0.000202       0.000791       0.000000
     -0.000219       0.001074       0.000000
     -0.000367       0.001187       0.000000
     -0.000363       0.000837       0.000000
     -0.000219       0.001074       0.000000
     -0.000280       0.001383       0.000000
     -0.000422       0.001607       0.000000
     -0.000367       0.001187       0.000000
     -0.000362       0.000393       0.000000
     -0.000365       0.000580       0.000000
     -0.000571       0.000593       0.000000
     -0.000536       0.000405       0.000000
     -0.000365       0.000580       0.000000
     -0.000363       0.000837       0.000000
     -0.000597       0.000859       0.000000
     -0.000571       0.000593       0.000000
     -0.000536       0.000405       0.000000
     -0.000571       0.000593       0.000000
     -0.000801       0.000621       0.000000
     -0.000711       0.000430       0.000000
     -0.000571       0.000593       0.000000
     -0.000597       0.000859       0.000000
     -0.000908       0.000887       0.000000
     -0.000801       0.000621       0.000000
     -0.000363       0.000837       0.000000
     -0.000362       0.001000       0.000000
     -0.000467       0.001024       0.000000
     -0.000469       0.000851       0.000000
     -0.000362       0.001000       0.000000
     -0.000367       0.001187       0.000000
     -0.000467       0.001231       0.000000
     -0.000467       0.001024       0.000000
     -0.000469       0.000851       0.000000
     -0.000467       0.001024       0.000000
     -0.000602       0.001037       0.000000
     -0.000597       0.000859       0.000000
     -0.000467       0.001024       0.000000
     -0.000467       0.001231       0.000000
     -0.000600       0.001261       0.000000
     -0.000602       0.001037       0.000000
     -0.000367       0.001187       0.000000
     -0.000384       0.001393       0.000000
     -0.000478       0.001474       0.000000
     -0.000467       0.001231       0.000000
     -0.000384       0.001393       0.000000
     -0.000422       0.001607       0.000000
     -0.000515       0.001734       0.000000
     -0.000478       0.001474       0.000000
     -0.000467       0.001231       0.000000
     -0.000478       0.001474       0.000000
     -0.000600       0.001548       0.000000
     -0.000600       0.001261       0.000000
     -0.000478       0.001474       0.000000
     -0.000515       0.001734       0.000000
     -0.000632       0.001885       0.000000
     -0.000600       0.001548       0.000000
     -0.000597       0.000859       0.000000
     -0.000602       0.001037       0.000000
     -0.000773       0.001046       0.000000
     -0.000748       0.000869       0.000000
     -0.000602       0.001037       0.000000
     -0.000600       0.001261       0.000000
     -0.000788       0.001275       0.000000
     -0.000773       0.001046       0.000000
     -0.000748       0.000869       0.000000
     -0.000773       0.001046       0.000000
     -0.000969       0.001065       0.000000
     -0.000908       0.000887       0.000000
     -0.000773       0.001046       0.000000
     -0.000788       0.001275       0.000000
     -0.001039       0.001292       0.000000
     -0.000969       0.001065       0.000000
     -0.000600       0.001261       0.000000
     -0.000598       0.001396       0.000000
     -0.000683       0.001411       0.000000
     -0.000686       0.001270       0.000000
     -0.000598       0.001396       0.000000
     -0.000600       0.001548       0.000000
     -0.000679       0.001578       0.000000
     -0.000683       0.001411       0.000000
     -0.000686       0.001270       0.000000
     -0.000683       0.001411       0.000000
     -0.000789       0.001419       0.000000
     -0.000788       0.001275       0.000000
     -0.000683       0.001411       0.000000
     -0.000679       0.001578       0.000000
     -0.000782       0.001598       0.000000
     -0.000789       0.001419       0.000000
     -0.000600       0.001548       0.000000
     -0.000609       0.001714       0.000000
     -0.000683       0.001771       0.000000
     -0.000679       0.001578       0.000000
     -0.000609       0.001714       0.000000
     -0.000632       0.001885       0.000000
     -0.000706       0.001978       0.000000
     -0.000683       0.001771       0.000000
     -0.000679       0.001578       0.000000
     -0.000683       0.001771       0.000000
     -0.000776       0.001826       0.000000
     -0.000782       0.001598       0.000000
     -0.000683       0.001771       0.000000
     -0.000706       0.001978       0.000000
     -0.000797       0.002095       0.000000
     -0.000776       0.001826       0.000000
     -0.000788       0.001275       0.000000
     -0.000789       0.001419       0.000000
     -0.000923       0.001424       0.000000
     -0.000908       0.001280       0.000000
     -0.000789       0.001419       0.000000
     -0.000782       0.001598       0.000000
     -0.000929       0.001606       0.000000
     -0.000923       0.001424       0.000000
     -0.000908       0.001280       0.000000
     -0.000923       0.001424       0.000000
     -0.001079       0.001436       0.000000
     -0.001039       0.001292       0.000000
     -0.000923       0.001424       0.000000
     -0.000929       0.001606       0.000000
     -0.001128       0.001618       0.000000
     -0.001079       0.001436       0.000000
     -0.000782       0.001598       0.000000
     -0.000776       0.001826       0.000000
     -0.000915       0.001866       0.000000
     -0.000929       0.001606       0.000000
     -0.000776       0.001826       0.000000
     -0.000797       0.002095       0.000000
     -0.000926       0.002277       0.000000
     -0.000915       0.001866       0.000000
     -0.000929       0.001606       0.000000
     -0.000915       0.001866       0.000000
     -0.001196       0.001892       0.000000
     -0.001128       0.001618       0.000000
     -0.000915       0.001866       0.000000
     -0.000926       0.002277       0.000000
     -0.001306       0.002849       0.000000
     -0.001196       0.001892       0.000000
      0.000000       0.000000       0.000000
      0.000000       0.000000       0.000000
      0.000018       0.000303       0.000000
      0.000080       0.000242       0.000000
      0.000000       0.000000       0.000000
      0.000000       0.000000       0.000000
     -0.000063       0.000351       0.000000
      0.000018       0.000303       0.000000
      0.000080       0.000242       0.000000
      0.000018       0.000303       0.000000
     -0.000047       0.000662       0.000000
      0.000065       0.000519       0.000000
      0.000018       0.000303       0.000000
     -0.000063       0.000351       0.000000
     -0.000196       0.000769       0.000000
     -0.000047       0.000662       0.000000
      0.000000       0.000000       0.000000
      0.000000       0.000000       0.000000
     -0.000156       0.000388       0.000000
     -0.000063       0.000351       0.000000
      0.000000       0.000000       0.000000
      0.000000       0.000000       0.000000
     -0.000264       0.000431       0.000000
     -0.000156       0.000388       0.000000
     -0.000063       0.000351       0.000000
     -0.000156       0.000388       0.000000
     -0.000365       0.000848       0.000000
     -0.000196       0.000769       0.000000
     -0.000156       0.000388       0.000000
     -0.000264       0.000431       0.000000
     -0.000551       0.000931       0.000000
     -0.000365       0.000848       0.000000
      0.000000       0.000000       0.000000
      0.000000       0.000000       0.000000
     -0.000413       0.000520       0.000000
     -0.000264       0.000431       0.000000
      0.000000       0.000000       0.000000
      0.000000       0.000000       0.000000
     -0.000641       0.000785       0.000000
     -0.000413       0.000520       0.000000
     -0.000264       0.000431       0.000000
     -0.000413       0.000520       0.000000
     -0.000759       0.001067       0.000000
     -0.000551       0.000931       0.000000
     -0.000413       0.000520       0.000000
     -0.000641       0.000785       0.000000
     -0.000977       0.001304       0.000000
     -0.000759       0.001067       0.000000
      0.000065       0.000519       0.000000
     -0.000047       0.000662       0.000000
     -0.000180       0.001081       0.000000
     -0.000020       0.000831       0.000000
     -0.000047       0.000662       0.000000
     -0.000196       0.000769       0.000000
     -0.000386       0.001251       0.000000
     -0.000180       0.001081       0.000000
     -0.000020       0.000831       0.000000
     -0.000180       0.001081       0.000000
     -0.000382       0.001579       0.000000
     -0.000172       0.001185       0.000000
     -0.000180       0.001081       0.000000
     -0.000386       0.001251       0.000000
     -0.000625       0.001789       0.000000
     -0.000382       0.001579       0.000000
     -0.000196       0.000769       0.000000
     -0.000365       0.000848       0.000000
     -0.000602       0.001358       0.000000
     -0.000386       0.001251       0.000000
     -0.000365       0.000848       0.000000
     -0.000551       0.000931       0.000000
     -0.000818       0.001452       0.000000
     -0.000602       0.001358       0.000000
     -0.000386       0.001251       0.000000
     -0.000602       0.001358       0.000000
     -0.000844       0.001888       0.000000
     -0.000625       0.001789       0.000000
     -0.000602       0.001358       0.000000
     -0.000818       0.001452       0.000000
     -0.001049       0.001961       0.000000
     -0.000844       0.001888       0.000000
     -0.000551       0.000931       0.000000
     -0.000759       0.001067       0.000000
     -0.001032       0.001579       0.000000
     -0.000818       0.001452       0.000000
     -0.000759       0.001067       0.000000
     -0.000977       0.001304       0.000000
     -0.001233       0.001771       0.000000
     -0.001032       0.001579       0.000000
     -0.000818       0.001452       0.000000
     -0.001032       0.001579       0.000000
     -0.001249       0.002056       0.000000
     -0.001049       0.001961       0.000000
     -0.001032       0.001579       0.000000
     -0.001233       0.001771       0.000000
     -0.001435       0.002197       0.000000
     -0.001249       0.002056       0.000000
     -0.000625       0.001789       0.000000
     -0.000844       0.001888       0.000000
     -0.001050       0.002400       0.000000
     -0.000889       0.002348       0.000000
     -0.000844       0.001888       0.000000
     -0.001049       0.001961       0.000000
     -0.001220       0.002444       0.000000
     -0.001050       0.002400       0.000000
     -0.000889       0.002348       0.000000
     -0.001050       0.002400       0.000000
     -0.001144       0.002874       0.000000
     -0.001037       0.002854       0.000000
     -0.001050       0.002400       0.000000
     -0.001220       0.002444       0.000000
     -0.001293       0.002903       0.000000
     -0.001144       0.002874       0.000000
     -0.001049       0.001961       0.000000
     -0.001249       0.002056       0.000000
     -0.001399       0.002504       0.000000
     -0.001220       0.002444       0.000000
     -0.001249       0.002056       0.000000
     -0.001435       0.002197       0.000000
     -0.001573       0.002589       0.000000
     -0.001399       0.002504       0.000000
     -0.001220       0.002444       0.000000
     -0.001399       0.002504       0.000000
     -0.001464       0.002936       0.000000
     -0.001293       0.002903       0.000000
     -0.001399       0.002504       0.000000
     -0.001573       0.002589       0.000000
     -0.001635       0.002963       0.000000
     -0.001464       0.002936       0.000000
     -0.000172       0.001185       0.000000
     -0.000266       0.001403       0.000000
     -0.000388       0.001663       0.000000
     -0.000280       0.001383       0.000000
     -0.000266       0.001403       0.000000
     -0.000382       0.001579       0.000000
     -0.000520       0.001868       0.000000
     -0.000388       0.001663       0.000000
     -0.000280       0.001383       0.000000
     -0.000388       0.001663       0.000000
     -0.000552       0.001974       0.000000
     -0.000422       0.001607       0.000000
     -0.000388       0.001663       0.000000
     -0.000520       0.001868       0.000000
     -0.000692       0.002192       0.000000
     -0.000552       0.001974       0.000000
     -0.000382       0.001579       0.000000
     -0.000505       0.001704       0.000000
     -0.000646       0.001996       0.000000
     -0.000520       0.001868       0.000000
     -0.000505       0.001704       0.000000
     -0.000625       0.001789       0.000000
     -0.000759       0.002071       0.000000
     -0.000646       0.001996       0.000000
     -0.000520       0.001868       0.000000
     -0.000646       0.001996       0.000000
     -0.000801       0.002297       0.000000