# vtk DataFile Version 2.0
time_10.vtk
ASCII
DATASET UNSTRUCTURED_GRID
POINTS  1152 float
      0.000000       0.000000       0.000000
      0.083333       0.000000       0.000000
      0.083333       0.083333       0.000000
      0.000000       0.083333       0.000000
      0.083333       0.000000       0.000000
      0.166667       0.000000       0.000000
      0.166667       0.083333       0.000000
      0.083333       0.083333       0.000000
      0.000000       0.083333       0.000000
      0.083333       0.083333       0.000000
      0.083333       0.166667       0.000000
      0.000000       0.166667       0.000000
      0.083333       0.083333       0.000000
      0.166667       0.083333       0.000000
      0.166667       0.166667       0.000000
      0.083333       0.166667       0.000000
      0.166667       0.000000       0.000000
      0.250000       0.000000       0.000000
      0.250000       0.083333       0.000000
      0.166667       0.083333       0.000000
      0.250000       0.000000       0.000000
      0.333333       0.000000       0.000000
      0.333333       0.083333       0.000000
      0.250000       0.083333       0.000000
      0.166667       0.083333       0.000000
      0.250000       0.083333       0.000000
      0.250000       0.166667       0.000000
      0.166667       0.166667       0.000000
      0.250000       0.083333       0.000000
      0.333333       0.083333       0.000000
      0.333333       0.166667       0.000000
      0.250000       0.166667       0.000000
      0.333333       0.000000       0.000000
      0.416667      -0.000000       0.000000
      0.416667       0.083333       0.000000
      0.333333       0.083333       0.000000
      0.416667      -0.000000       0.000000
      0.500000       0.000000       0.000000
      0.500000       0.083333       0.000000
      0.416667       0.083333       0.000000
      0.333333       0.083333       0.000000
      0.416667       0.083333       0.000000
      0.416667       0.166667       0.000000
      0.333333       0.166667       0.000000
      0.416667       0.083333       0.000000
      0.500000       0.083333       0.000000
      0.500000       0.166667       0.000000
      0.416667       0.166667       0.000000
      0.000000       0.166667       0.000000
      0.083333       0.166667       0.000000
      0.083333       0.250000       0.000000
      0.000000       0.250000       0.000000
      0.083333       0.166667       0.000000
      0.166667       0.166667       0.000000
      0.166667       0.250000       0.000000
      0.083333       0.250000       0.000000
      0.000000       0.250000       0.000000
      0.083333       0.250000       0.000000
      0.083333       0.333333       0.000000
      0.000000       0.333333       0.000000
      0.083333       0.250000       0.000000
      0.166667       0.250000       0.000000
      0.166667       0.333333       0.000000
      0.083333       0.333333       0.000000
      0.166667       0.166667       0.000000
      0.250000       0.166667       0.000000
      0.250000       0.250000       0.000000
      0.166667       0.250000       0.000000
      0.250000       0.166667       0.000000
      0.333333       0.166667       0.000000
      0.333333       0.250000       0.000000
      0.250000       0.250000       0.000000
      0.166667       0.250000       0.000000
      0.250000       0.250000       0.000000
      0.250000       0.333333       0.000000
      0.166667       0.333333       0.000000
      0.250000       0.250000       0.000000
      0.333333       0.250000       0.000000
      0.333333       0.333333       0.000000
      0.250000       0.333333       0.000000
      0.333333       0.166667       0.000000
      0.416667       0.166667       0.000000
      0.416667       0.250000       0.000000
      0.333333       0.250000       0.000000
      0.416667       0.166667       0.000000
      0.500000       0.166667       0.000000
      0.500000       0.250000       0.000000
      0.416667       0.250000       0.000000
      0.333333       0.250000       0.000000
      0.416667       0.250000       0.000000
      0.416667       0.333333       0.000000
      0.333333       0.333333       0.000000
      0.416667       0.250000       0.000000
      0.500000       0.250000       0.000000
      0.500000       0.333333       0.000000
      0.416667       0.333333       0.000000
      0.000000       0.333333       0.000000
      0.083333       0.333333       0.000000
      0.083333       0.416667       0.000000
     -0.000000       0.416667       0.000000
      0.083333       0.333333       0.000000
      0.166667       0.333333       0.000000
      0.166667       0.416667       0.000000
      0.083333       0.416667       0.000000
     -0.000000       0.416667       0.000000
      0.083333       0.416667       0.000000
      0.083333       0.500000       0.000000
      0.000000       0.500000       0.000000
      0.083333       0.416667       0.000000
      0.166667       0.416667       0.000000
      0.166667       0.500000       0.000000
      0.083333       0.500000       0.000000
      0.166667       0.333333       0.000000
      0.250000       0.333333       0.000000
      0.250000       0.416667       0.000000
      0.166667       0.416667       0.000000
      0.250000       0.333333       0.000000
      0.333333       0.333333       0.000000
      0.333333       0.416667       0.000000
      0.250000       0.416667       0.000000
      0.166667       0.416667       0.000000
      0.250000       0.416667       0.000000
      0.250000       0.500000       0.000000
      0.166667       0.500000       0.000000
      0.250000       0.416667       0.000000
      0.333333       0.416667       0.000000
      0.333333       0.500000       0.000000
      0.250000       0.500000       0.000000
      0.333333       0.333333       0.000000
      0.375000       0.333333       0.000000
      0.375000       0.375000       0.000000
      0.333333       0.375000       0.000000
      0.375000       0.333333       0.000000
      0.416667       0.333333       0.000000
      0.416667       0.375000       0.000000
      0.375000       0.375000       0.000000
      0.333333       0.375000       0.000000
      0.375000       0.375000       0.000000
      0.375000       0.416667       0.000000
      0.333333       0.416667       0.000000
      0.375000       0.375000       0.000000
      0.416667       0.375000       0.000000
      0.416667       0.416667       0.000000
      0.375000       0.416667       0.000000
      0.416667       0.333333       0.000000
      0.458333       0.333333       0.000000
      0.458333       0.375000       0.000000
      0.416667       0.375000       0.000000
      0.458333       0.333333       0.000000
      0.500000       0.333333       0.000000
      0.500000       0.375000       0.000000
      0.458333       0.375000       0.000000
      0.416667       0.375000       0.000000
      0.458333       0.375000       0.000000
      0.458333       0.416667       0.000000
      0.416667       0.416667       0.000000
      0.458333       0.375000       0.000000
      0.500000       0.375000       0.000000
      0.500000       0.416667       0.000000
      0.458333       0.416667       0.000000
      0.333333       0.416667       0.000000
      0.375000       0.416667       0.000000
      0.375000       0.458333       0.000000
      0.333333       0.458333       0.000000
      0.375000       0.416667       0.000000
      0.416667       0.416667       0.000000
      0.416667       0.458333       0.000000
      0.375000       0.458333       0.000000
      0.333333       0.458333       0.000000
      0.375000       0.458333       0.000000
      0.375000       0.500000       0.000000
      0.333333       0.500000       0.000000
      0.375000       0.458333       0.000000
      0.416667       0.458333       0.000000
      0.416667       0.500000       0.000000
      0.375000       0.500000       0.000000
      0.416667       0.416667       0.000000
      0.437500       0.416667       0.000000
      0.437500       0.437500       0.000000
      0.416667       0.437500       0.000000
      0.437500       0.416667       0.000000
      0.458333       0.416667       0.000000
      0.458333       0.437500       0.000000
      0.437500       0.437500       0.000000
      0.416667       0.437500       0.000000
      0.437500       0.437500       0.000000
      0.437500       0.458333       0.000000
      0.416667       0.458333       0.000000
      0.437500       0.437500       0.000000
      0.458333       0.437500       0.000000
      0.458333       0.458333       0.000000
      0.437500       0.458333       0.000000
      0.458333       0.416667       0.000000
      0.479167       0.416667       0.000000
      0.479167       0.437500       0.000000
      0.458333       0.437500       0.000000
      0.479167       0.416667       0.000000
      0.500000       0.416667       0.000000
      0.500000       0.437500       0.000000
      0.479167       0.437500       0.000000
      0.458333       0.437500       0.000000
      0.479167       0.437500       0.000000
      0.479167       0.458333       0.000000
      0.458333       0.458333       0.000000
      0.479167       0.437500       0.000000
      0.500000       0.437500       0.000000
      0.500000       0.458333       0.000000
      0.479167       0.458333       0.000000
      0.416667       0.458333       0.000000
      0.437500       0.458333       0.000000
      0.437500       0.479167       0.000000
      0.416667       0.479167       0.000000
      0.437500       0.458333       0.000000
      0.458333       0.458333       0.000000
      0.458333       0.479167       0.000000
      0.437500       0.479167       0.000000
      0.416667       0.479167       0.000000
      0.437500       0.479167       0.000000
      0.437500       0.500000       0.000000
      0.416667       0.500000       0.000000
[...]
POINT_DATA  1152
VECTORS U float 
      0.000000       0.000000       0.000000
      0.000000       0.000000       0.000000
      0.000053      -0.000007       0.000000
      0.000042      -0.000005       0.000000
      0.000000       0.000000       0.000000
      0.000000       0.000000       0.000000
      0.000066       0.000012       0.000000
      0.000053      -0.000007       0.000000
      0.000042      -0.000005       0.000000
      0.000053      -0.000007       0.000000
      0.000064      -0.000021       0.000000
      0.000049      -0.000047       0.000000
      0.000053      -0.000007       0.000000
      0.000066       0.000012       0.000000
      0.000078       0.000017       0.000000
      0.000064      -0.000021       0.000000
      0.000000       0.000000       0.000000
      0.000000       0.000000       0.000000
      0.000077       0.000038       0.000000
      0.000066       0.000012       0.000000
      0.000000       0.000000       0.000000
      0.000000       0.000000       0.000000
      0.000082       0.000073       0.000000
      0.000077       0.000038       0.000000
      0.000066       0.000012       0.000000
      0.000077       0.000038       0.000000
      0.000092       0.000070       0.000000
      0.000078       0.000017       0.000000
      0.000077       0.000038       0.000000
      0.000082       0.000073       0.000000
      0.000100       0.000143       0.000000
      0.000092       0.000070       0.000000
      0.000000       0.000000       0.000000
      0.000000       0.000000       0.000000
      0.000076       0.000114       0.000000
      0.000082       0.000073       0.000000
      0.000000       0.000000       0.000000
      0.000000       0.000000       0.000000
      0.000052       0.000156       0.000000
      0.000076       0.000114       0.000000
      0.000082       0.000073       0.000000
      0.000076       0.000114       0.000000
      0.000088       0.000237       0.000000
      0.000100       0.000143       0.000000
      0.000076       0.000114       0.000000
      0.000052       0.000156       0.000000
      0.000046       0.000336       0.000000
      0.000088       0.000237       0.000000
      0.000049      -0.000047       0.000000
      0.000064      -0.000021       0.000000
      0.000022      -0.000039       0.000000
      0.000007      -0.000096       0.000000
      0.000064      -0.000021       0.000000
      0.000078       0.000017       0.000000
      0.000035       0.000017       0.000000
      0.000022      -0.000039       0.000000
      0.000007      -0.000096       0.000000
      0.000022      -0.000039       0.000000
     -0.000066      -0.000055       0.000000
     -0.000075      -0.000134       0.000000
      0.000022      -0.000039       0.000000
      0.000035       0.000017       0.000000
     -0.000058       0.000013       0.000000
     -0.000066      -0.000055       0.000000
      0.000078       0.000017       0.000000
      0.000092       0.000070       0.000000
      0.000051       0.000093       0.000000
      0.000035       0.000017       0.000000
      0.000092       0.000070       0.000000
      0.000100       0.000143       0.000000
      0.000063       0.000206       0.000000
      0.000051       0.000093       0.000000
      0.000035       0.000017       0.000000
      0.000051       0.000093       0.000000
     -0.000047       0.000104       0.000000
     -0.000058       0.000013       0.000000
      0.000051       0.000093       0.000000
      0.000063       0.000206       0.000000
     -0.000033       0.000251       0.000000
     -0.000047       0.000104       0.000000
      0.000100       0.000143       0.000000
      0.000088       0.000237       0.000000
      0.000052       0.000364       0.000000
      0.000063       0.000206       0.000000
      0.000088       0.000237       0.000000
      0.000046       0.000336       0.000000
     -0.000004       0.000540       0.000000
      0.000052       0.000364       0.000000
      0.000063       0.000206       0.000000
      0.000052       0.000364       0.000000
     -0.000032       0.000483       0.000000
     -0.000033       0.000251       0.000000
      0.000052       0.000364       0.000000
     -0.000004       0.000540       0.000000
     -0.000093       0.000772       0.000000
     -0.000032       0.000483       0.000000
     -0.000075      -0.000134       0.000000
     -0.000066      -0.000055       0.000000
     -0.000176      -0.000064       0.000000
     -0.000177      -0.000152       0.000000
     -0.000066      -0.000055       0.000000
     -0.000058       0.000013       0.000000
     -0.000181       0.000012       0.000000
     -0.000176      -0.000064       0.000000
     -0.000177      -0.000152       0.000000
     -0.000176      -0.000064       0.000000
     -0.000276      -0.000063       0.000000
     -0.000275      -0.000153       0.000000
     -0.000176      -0.000064       0.000000
     -0.000181       0.000012       0.000000
     -0.000295       0.000021       0.000000
     -0.000276      -0.000063       0.000000
     -0.000058       0.000013       0.000000
     -0.000047       0.000104       0.000000
     -0.000192       0.000109       0.000000
     -0.000181       0.000012       0.000000
     -0.000047       0.000104       0.000000
     -0.000033       0.000251       0.000000
     -0.000202       0.000269       0.000000
     -0.000192       0.000109       0.000000
     -0.000181       0.000012       0.000000
     -0.000192       0.000109       0.000000
     -0.000344       0.000125       0.000000
     -0.000295       0.000021       0.000000
     -0.000192       0.000109       0.000000
     -0.000202       0.000269       0.000000
     -0.000428       0.000292       0.000000
     -0.000344       0.000125       0.000000
     -0.000033       0.000251       0.000000
     -0.000029       0.000356       0.000000
     -0.000102       0.000380       0.000000
     -0.000108       0.000263       0.000000
     -0.000029       0.000356       0.000000
     -0.000032       0.000483       0.000000
     -0.000100       0.000532       0.000000
     -0.000102       0.000380       0.000000
     -0.000108       0.000263       0.000000
     -0.000102       0.000380       0.000000
     -0.000201       0.000394       0.000000
     -0.000202       0.000269       0.000000
     -0.000102       0.000380       0.000000
     -0.000100       0.000532       0.000000
     -0.000197       0.000566       0.000000
     -0.000201       0.000394       0.000000
     -0.000032       0.000483       0.000000
     -0.000052       0.000628       0.000000
     -0.000114       0.000715       0.000000
     -0.000100       0.000532       0.000000
     -0.000052       0.000628       0.000000
     -0.000093       0.000772       0.000000
     -0.000157       0.000904       0.000000
     -0.000114       0.000715       0.000000
     -0.000100       0.000532       0.000000
     -0.000114       0.000715       0.000000
     -0.000200       0.000796       0.000000
     -0.000197       0.000566       0.000000
     -0.000114       0.000715       0.000000
     -0.000157       0.000904       0.000000
     -0.000241       0.001056       0.000000
     -0.000200       0.000796       0.000000
     -0.000202       0.000269       0.000000
     -0.000201       0.000394       0.000000
     -0.000333       0.000402       0.000000
     -0.000314       0.000276       0.000000
     -0.000201       0.000394       0.000000
     -0.000197       0.000566       0.000000
     -0.000346       0.000580       0.000000
     -0.000333       0.000402       0.000000
     -0.000314       0.000276       0.000000
     -0.000333       0.000402       0.000000
     -0.000485       0.000419       0.000000
     -0.000428       0.000292       0.000000
     -0.000333       0.000402       0.000000
     -0.000346       0.000580       0.000000
     -0.000551       0.000596       0.000000
     -0.000485       0.000419       0.000000
     -0.000197       0.000566       0.000000
     -0.000196       0.000673       0.000000
     -0.000261       0.000691       0.000000
     -0.000264       0.000575       0.000000
     -0.000196       0.000673       0.000000
     -0.000200       0.000796       0.000000
     -0.000260       0.000829       0.000000
     -0.000261       0.000691       0.000000
     -0.000264       0.000575       0.000000
     -0.000261       0.000691       0.000000
     -0.000346       0.000700       0.000000
     -0.000346       0.000580       0.000000
     -0.000261       0.000691       0.000000
     -0.000260       0.000829       0.000000
     -0.000342       0.000851       0.000000
     -0.000346       0.000700       0.000000
     -0.000200       0.000796       0.000000
     -0.000213       0.000928       0.000000
     -0.000268       0.000986       0.000000
     -0.000260       0.000829       0.000000
     -0.000213       0.000928       0.000000
     -0.000241       0.001056       0.000000
     -0.000295       0.001144       0.000000
     -0.000268       0.000986       0.000000
     -0.000260       0.000829       0.000000
     -0.000268       0.000986       0.000000
     -0.000340       0.001041       0.000000
     -0.000342       0.000851       0.000000
     -0.000268       0.000986       0.000000
     -0.000295       0.001144       0.000000
     -0.000365       0.001246       0.000000
     -0.000340       0.001041       0.000000
     -0.000346       0.000580       0.000000
     -0.000346       0.000700       0.000000
     -0.000457       0.000705       0.000000
     -0.000444       0.000585       0.000000
     -0.000346       0.000700       0.000000
     -0.000342       0.000851       0.000000
     -0.000462       0.000860       0.000000
     -0.000457       0.000705       0.000000
     -0.000444       0.000585       0.000000
     -0.000457       0.000705       0.000000
     -0.000589       0.000715       0.000000
     -0.000551       0.000596       0.000000
     -0.000457       0.000705       0.000000
     -0.000462       0.000860       0.000000
     -0.000630       0.000869       0.000000
     -0.000589       0.000715       0.000000
     -0.000342       0.000851       0.000000
     -0.000339       0.000941       0.000000
     -0.000392       0.000952       0.000000
     -0.000396       0.000857       0.000000
     -0.000339       0.000941       0.000000
     -0.000340       0.001041       0.000000
     -0.000389       0.001063       0.000000
     -0.000392       0.000952       0.000000
     -0.000396       0.000857       0.000000
     -0.000392       0.000952       0.000000
     -0.000460       0.000958       0.000000
     -0.000462       0.000860       0.000000
     -0.000392       0.000952       0.000000
     -0.000389       0.001063       0.000000
     -0.000453       0.001078       0.000000
     -0.000460       0.000958       0.000000
     -0.000340       0.001041       0.000000
     -0.000348       0.001146       0.000000
     -0.000392       0.001186       0.000000
     -0.000389       0.001063       0.000000
     -0.000348       0.001146       0.000000
     -0.000365       0.001246       0.000000
     -0.000409       0.001307       0.000000
     -0.000392       0.001186       0.000000
     -0.000389       0.001063       0.000000
     -0.000392       0.001186       0.000000
     -0.000449       0.001224       0.000000
     -0.000453       0.001078       0.000000
     -0.000392       0.001186       0.000000
     -0.000409       0.001307       0.000000
     -0.000463       0.001379       0.000000
     -0.000449       0.001224       0.000000
     -0.000462       0.000860       0.000000
     -0.000460       0.000958       0.000000
     -0.000548       0.000960       0.000000
     -0.000542       0.000862       0.000000
     -0.000460       0.000958       0.000000
     -0.000453       0.001078       0.000000
     -0.000547       0.001082       0.000000
     -0.000548       0.000960       0.000000
     -0.000542       0.000862       0.000000
     -0.000548       0.000960       0.000000
     -0.000652       0.000966       0.000000
     -0.000630       0.000869       0.000000
     -0.000548       0.000960       0.000000
     -0.000547       0.001082       0.000000
     -0.000677       0.001087       0.000000
     -0.000652       0.000966       0.000000
     -0.000453       0.001078       0.000000
     -0.000449       0.001224       0.000000
     -0.000535       0.001250       0.000000
     -0.000547       0.001082       0.000000
     -0.000449       0.001224       0.000000
     -0.000463       0.001379       0.000000
     -0.000539       0.001474       0.000000
     -0.000535       0.001250       0.000000
     -0.000547       0.001082       0.000000
     -0.000535       0.001250       0.000000
     -0.000704       0.001258       0.000000
     -0.000677       0.001087       0.000000
     -0.000535       0.001250       0.000000
     -0.000539       0.001474       0.000000
     -0.000714       0.001685       0.000000
     -0.000704       0.001258       0.000000
      0.000000       0.000000       0.000000
      0.000000       0.000000       0.000000
      0.000011       0.000193       0.000000
      0.000052       0.000156       0.000000
      0.000000       0.000000       0.000000
      0.000000       0.000000       0.000000
     -0.000040       0.000219       0.000000
      0.000011       0.000193       0.000000
      0.000052       0.000156       0.000000
      0.000011       0.000193       0.000000
     -0.000027       0.000419       0.000000
      0.000046       0.000336       0.000000
      0.000011       0.000193       0.000000
     -0.000040       0.000219       0.000000
     -0.000119       0.000476       0.000000
     -0.000027       0.000419       0.000000
      0.000000       0.000000       0.000000
      0.000000       0.000000       0.000000
     -0.000096       0.000237       0.000000
     -0.000040       0.000219       0.000000
      0.000000       0.000000       0.000000
      0.000000       0.000000       0.000000
     -0.000159       0.000256       0.000000
     -0.000096       0.000237       0.000000
     -0.000040       0.000219       0.000000
     -0.000096       0.000237       0.000000
     -0.000219       0.000513       0.000000
     -0.000119       0.000476       0.000000
     -0.000096       0.000237       0.000000
     -0.000159       0.000256       0.000000
     -0.000325       0.000551       0.000000
     -0.000219       0.000513       0.000000
      0.000000       0.000000       0.000000
      0.000000       0.000000       0.000000
     -0.000244       0.000299       0.000000
     -0.000159       0.000256       0.000000
      0.000000       0.000000       0.000000
      0.000000       0.000000       0.000000
     -0.000375       0.000447       0.000000
     -0.000244       0.000299       0.000000
     -0.000159       0.000256       0.000000
     -0.000244       0.000299       0.000000
     -0.000445       0.000620       0.000000
     -0.000325       0.000551       0.000000
     -0.000244       0.000299       0.000000
     -0.000375       0.000447       0.000000
     -0.000573       0.000753       0.000000
     -0.000445       0.000620       0.000000
      0.000046       0.000336       0.000000
     -0.000027       0.000419       0.000000
     -0.000106       0.000681       0.000000
     -0.000004       0.000540       0.000000
     -0.000027       0.000419       0.000000
     -0.000119       0.000476       0.000000
     -0.000229       0.000766       0.000000
     -0.000106       0.000681       0.000000
     -0.000004       0.000540       0.000000
     -0.000106       0.000681       0.000000
     -0.000225       0.000986       0.000000
     -0.000093       0.000772       0.000000
     -0.000106       0.000681       0.000000
     -0.000229       0.000766       0.000000
     -0.000363       0.001081       0.000000
     -0.000225       0.000986       0.000000
     -0.000119       0.000476       0.000000
     -0.000219       0.000513       0.000000
     -0.000352       0.000814       0.000000
     -0.000229       0.000766       0.000000
     -0.000219       0.000513       0.000000
     -0.000325       0.000551       0.000000
     -0.000476       0.000856       0.000000
     -0.000352       0.000814       0.000000
     -0.000229       0.000766       0.000000
     -0.000352       0.000814       0.000000
     -0.000486       0.001122       0.000000
     -0.000363       0.001081       0.000000
     -0.000352       0.000814       0.000000
     -0.000476       0.000856       0.000000
     -0.000604       0.001156       0.000000
     -0.000486       0.001122       0.000000
     -0.000325       0.000551       0.000000
     -0.000445       0.000620       0.000000
     -0.000601       0.000922       0.000000
     -0.000476       0.000856       0.000000
     -0.000445       0.000620       0.000000
     -0.000573       0.000753       0.000000
     -0.000720       0.001030       0.000000
     -0.000601       0.000922       0.000000
     -0.000476       0.000856       0.000000
     -0.000601       0.000922       0.000000
     -0.000722       0.001207       0.000000
     -0.000604       0.001156       0.000000
     -0.000601       0.000922       0.000000
     -0.000720       0.001030       0.000000
     -0.000834       0.001286       0.000000
     -0.000722       0.001207       0.000000
     -0.000363       0.001081       0.000000
     -0.000486       0.001122       0.000000
     -0.000596       0.001420       0.000000
     -0.000504       0.001399       0.000000
     -0.000486       0.001122       0.000000
     -0.000604       0.001156       0.000000
     -0.000698       0.001443       0.000000
     -0.000596       0.001420       0.000000
     -0.000504       0.001399       0.000000
     -0.000596       0.001420       0.000000
     -0.000648       0.001701       0.000000
     -0.000581       0.001689       0.000000
     -0.000596       0.001420       0.000000
     -0.000698       0.001443       0.000000
     -0.000739       0.001719       0.000000
     -0.000648       0.001701       0.000000
     -0.000604       0.001156       0.000000
     -0.000722       0.001207       0.000000
     -0.000806       0.001477       0.000000
     -0.000698       0.001443       0.000000
     -0.000722       0.001207       0.000000
     -0.000834       0.001286       0.000000
     -0.000912       0.001526       0.000000
     -0.000806       0.001477       0.000000
     -0.000698       0.001443       0.000000
     -0.000806       0.001477       0.000000
     -0.000843       0.001739       0.000000
     -0.000739       0.001719       0.000000
     -0.000806       0.001477       0.000000
     -0.000912       0.001526       0.000000
     -0.000948       0.001756       0.000000
     -0.000843       0.001739       0.000000
     -0.000093       0.000772       0.000000
     -0.000154       0.000895       0.000000
     -0.000227       0.001058       0.000000
     -0.000157       0.000904       0.000000
     -0.000154       0.000895       0.000000
     -0.000225       0.000986       0.000000
     -0.000304       0.001157       0.000000
     -0.000227       0.001058       0.000000
     -0.000157       0.000904       0.000000
     -0.000227       0.001058       0.000000
     -0.000324       0.001248       0.000000
     -0.000241       0.001056       0.000000
     -0.000227       0.001058       0.000000
     -0.000304       0.001157       0.000000
     -0.000399       0.001340       0.000000
     -0.000324       0.001248       0.000000
     -0.000225       0.000986       0.000000
     -0.000296       0.001044       0.000000
     -0.000374       0.001212       0.000000
     -0.000304       0.001157       0.000000
     -0.000296       0.001044       0.000000
     -0.000363       0.001081       0.000000
     -0.000435       0.001242       0.000000
     -0.000374       0.001212       0.000000
     -0.000304       0.001157       0.000000
     -0.000374       0.001212       0.000000
     -0.000456       0.001380       0.000000