# vtk DataFile Version 2.0
time_10.vtk
ASCII
DATASET UNSTRUCTURED_GRID
POINTS  1152 float
      0.000000       0.000000       0.000000
      0.083333       0.000000       0.000000
      0.083333       0.083333       0.000000
      0.000000       0.083333       0.000000
      0.083333       0.000000       0.000000
      0.166667       0.000000       0.000000
      0.166667       0.083333       0.000000
      0.083333       0.083333       0.000000
      0.000000       0.083333       0.000000
      0.083333       0.083333       0.000000
      0.083333       0.166667       0.000000
      0.000000       0.166667       0.000000
      0.083333       0.083333       0.000000
      0.166667       0.083333       0.000000
      0.166667       0.166667       0.000000
      0.083333       0.166667       0.000000
      0.166667       0.000000       0.000000
      0.250000       0.000000       0.000000
      0.250000       0.083333       0.000000
      0.166667       0.083333       0.000000
      0.250000       0.000000       0.000000
      0.333333       0.000000       0.000000
      0.333333       0.083333       0.000000
      0.250000       0.083333       0.000000
      0.166667       0.083333       0.000000
      0.250000       0.083333       0.000000
      0.250000       0.166667       0.000000
      0.166667       0.166667       0.000000
      0.250000       0.083333       0.000000
      0.333333       0.083333       0.000000
      0.333333       0.166667       0.000000
      0.250000       0.166667       0.000000
      0.333333       0.000000       0.000000
      0.416667      -0.000000       0.000000
      0.416667       0.083333       0.000000
      0.333333       0.083333       0.000000
      0.416667      -0.000000       0.000000
      0.500000       0.000000       0.000000
      0.500000       0.083333       0.000000
      0.416667       0.083333       0.000000
      0.333333       0.083333       0.000000
      0.416667       0.083333       0.000000
      0.416667       0.166667       0.000000
      0.333333       0.166667       0.000000
      0.416667       0.083333       0.000000
      0.500000       0.083333       0.000000
      0.500000       0.166667       0.000000
      0.416667       0.166667       0.000000
      0.000000       0.166667       0.000000
      0.083333       0.166667       0.000000
      0.083333       0.250000       0.000000
      0.000000       0.250000       0.000000
      0.083333       0.166667       0.000000
      0.166667       0.166667       0.000000
      0.166667       0.250000       0.000000
      0.083333       0.250000       0.000000
      0.000000       0.250000       0.000000
      0.083333       0.250000       0.000000
      0.083333       0.333333       0.000000
      0.000000       0.333333       0.000000
      0.083333       0.250000       0.000000
      0.166667       0.250000       0.000000
      0.166667       0.333333       0.000000
      0.083333       0.333333       0.000000
      0.166667       0.166667       0.000000
      0.250000       0.166667       0.000000
      0.250000       0.250000       0.000000
      0.166667       0.250000       0.000000
      0.250000       0.166667       0.000000
      0.333333       0.166667       0.000000
      0.333333       0.250000       0.000000
      0.250000       0.250000       0.000000
      0.166667       0.250000       0.000000
      0.250000       0.250000       0.000000
      0.250000       0.333333       0.000000
      0.166667       0.333333       0.000000
      0.250000       0.250000       0.000000
      0.333333       0.250000       0.000000
      0.333333       0.333333       0.000000
      0.250000       0.333333       0.000000
      0.333333       0.166667       0.000000
      0.416667       0.166667       0.000000
      0.416667       0.250000       0.000000
      0.333333       0.250000       0.000000
      0.416667       0.166667       0.000000
      0.500000       0.166667       0.000000
      0.500000       0.250000       0.000000
      0.416667       0.250000       0.000000
      0.333333       0.250000       0.000000
      0.416667       0.250000       0.000000
      0.416667       0.333333       0.000000
      0.333333       0.333333       0.000000
      0.416667       0.250000       0.000000
      0.500000       0.250000       0.000000
      0.500000       0.333333       0.000000
      0.416667       0.333333       0.000000
      0.000000       0.333333       0.000000
      0.083333       0.333333       0.000000
      0.083333       0.416667       0.000000
     -0.000000       0.416667       0.000000
      0.083333       0.333333       0.000000
      0.166667       0.333333       0.000000
      0.166667       0.416667       0.000000
      0.083333       0.416667       0.000000
     -0.000000       0.416667       0.000000
      0.083333       0.416667       0.000000
      0.083333       0.500000       0.000000
      0.000000       0.500000       0.000000
      0.083333       0.416667       0.000000
      0.166667       0.416667       0.000000
      0.166667       0.500000       0.000000
      0.083333       0.500000       0.000000
      0.166667       0.333333       0.000000
      0.250000       0.333333       0.000000
      0.250000       0.416667       0.000000
      0.166667       0.416667       0.000000
      0.250000       0.333333       0.000000
      0.333333       0.333333       0.000000
      0.333333       0.416667       0.000000
      0.250000       0.416667       0.000000
      0.166667       0.416667       0.000000
      0.250000       0.416667       0.000000
      0.250000       0.500000       0.000000
      0.166667       0.500000       0.000000
      0.250000       0.416667       0.000000
      0.333333       0.416667       0.000000
      0.333333       0.500000       0.000000
      0.250000       0.500000       0.000000
      0.333333       0.333333       0.000000
      0.375000       0.333333       0.000000
      0.375000       0.375000       0.000000
      0.333333       0.375000       0.000000
      0.375000       0.333333       0.000000
      0.416667       0.333333       0.000000
      0.416667       0.375000       0.000000
      0.375000       0.375000       0.000000
      0.333333       0.375000       0.000000
      0.375000       0.375000       0.000000
      0.375000       0.416667       0.000000
      0.333333       0.416667       0.000000
      0.375000       0.375000       0.000000
      0.416667       0.375000       0.000000
      0.416667       0.416667       0.000000
      0.375000       0.416667       0.000000
      0.416667       0.333333       0.000000
      0.458333       0.333333       0.000000
      0.458333       0.375000       0.000000
      0.416667       0.375000       0.000000
      0.458333       0.333333       0.000000
      0.500000       0.333333       0.000000
      0.500000       0.375000       0.000000
      0.458333       0.375000       0.000000
      0.416667       0.375000       0.000000
      0.458333       0.375000       0.000000
      0.458333       0.416667       0.000000
      0.416667       0.416667       0.000000
      0.458333       0.375000       0.000000
      0.500000       0.375000       0.000000
      0.500000       0.416667       0.000000
      0.458333       0.416667       0.000000
      0.333333       0.416667       0.000000
      0.375000       0.416667       0.000000
      0.375000       0.458333       0.000000
      0.333333       0.458333       0.000000
      0.375000       0.416667       0.000000
      0.416667       0.416667       0.000000
      0.416667       0.458333       0.000000
      0.375000       0.458333       0.000000
      0.333333       0.458333       0.000000
      0.375000       0.458333       0.000000
      0.375000       0.500000       0.000000
      0.333333       0.500000       0.000000
      0.375000       0.458333       0.000000
      0.416667       0.458333       0.000000
      0.416667       0.500000       0.000000
      0.375000       0.500000       0.000000
      0.416667       0.416667       0.000000
      0.437500       0.416667       0.000000
      0.437500       0.437500       0.000000
      0.416667       0.437500       0.000000
      0.437500       0.416667       0.000000
      0.458333       0.416667       0.000000
      0.458333       0.437500       0.000000
      0.437500       0.437500       0.000000
      0.416667       0.437500       0.000000
      0.437500       0.437500       0.000000
      0.437500       0.458333       0.000000
      0.416667       0.458333       0.000000
      0.437500       0.437500       0.000000
      0.458333       0.437500       0.000000
      0.458333       0.458333       0.000000
      0.437500       0.458333       0.000000
      0.458333       0.416667       0.000000
      0.479167       0.416667       0.000000
      0.479167       0.437500       0.000000
      0.458333       0.437500       0.000000
      0.479167       0.416667       0.000000
      0.500000       0.416667       0.000000
      0.500000       0.437500       0.000000
      0.479167       0.437500       0.000000
      0.458333       0.437500       0.000000
      0.479167       0.437500       0.000000
      0.479167       0.458333       0.000000
      0.458333       0.458333       0.000000
      0.479167       0.437500       0.000000
      0.500000       0.437500       0.000000
      0.500000       0.458333       0.000000
      0.479167       0.458333       0.000000
      0.416667       0.458333       0.000000
      0.437500       0.458333       0.000000
      0.437500       0.479167       0.000000
      0.416667       0.479167       0.000000
      0.437500       0.458333       0.000000
      0.458333       0.458333       0.000000
      0.458333       0.479167       0.000000
      0.437500       0.479167       0.000000
      0.416667       0.479167       0.000000
      0.437500       0.479167       0.000000
      0.437500       0.500000       0.000000
      0.416667       0.500000       0.000000
[...]
POINT_DATA  1152
VECTORS U float 
      0.000000       0.000000       0.000000
      0.000000       0.000000       0.000000
      0.000073      -0.000015       0.000000
      0.000054      -0.000015       0.000000
      0.000000       0.000000       0.000000
      0.000000       0.000000       0.000000
      0.000092       0.000015       0.000000
      0.000073      -0.000015       0.000000
      0.000054      -0.000015       0.000000
      0.000073      -0.000015       0.000000
      0.000081      -0.000039       0.000000
      0.000057      -0.000082       0.000000
      0.000073      -0.000015       0.000000
      0.000092       0.000015       0.000000
      0.000103       0.000019       0.000000
      0.000081      -0.000039       0.000000
      0.000000       0.000000       0.000000
      0.000000       0.000000       0.000000
      0.000109       0.000054       0.000000
      0.000092       0.000015       0.000000
      0.000000       0.000000       0.000000
      0.000000       0.000000       0.000000
      0.000118       0.000106       0.000000
      0.000109       0.000054       0.000000
      0.000092       0.000015       0.000000
      0.000109       0.000054       0.000000
      0.000126       0.000098       0.000000
      0.000103       0.000019       0.000000
      0.000109       0.000054       0.000000
      0.000118       0.000106       0.000000
      0.000139       0.000208       0.000000
      0.000126       0.000098       0.000000
      0.000000       0.000000       0.000000
      0.000000       0.000000       0.000000
      0.000110       0.000168       0.000000
      0.000118       0.000106       0.000000
      0.000000       0.000000       0.000000
      0.000000       0.000000       0.000000
      0.000076       0.000233       0.000000
      0.000110       0.000168       0.000000
      0.000118       0.000106       0.000000
      0.000110       0.000168       0.000000
      0.000124       0.000349       0.000000
      0.000139       0.000208       0.000000
      0.000110       0.000168       0.000000
      0.000076       0.000233       0.000000
      0.000063       0.000501       0.000000
      0.000124       0.000349       0.000000
      0.000057      -0.000082       0.000000
      0.000081      -0.000039       0.000000
      0.000011      -0.000069       0.000000
     -0.000012      -0.000157       0.000000
      0.000081      -0.000039       0.000000
      0.000103       0.000019       0.000000
      0.000031       0.000017       0.000000
      0.000011      -0.000069       0.000000
     -0.000012      -0.000157       0.000000
      0.000011      -0.000069       0.000000
     -0.000125      -0.000094       0.000000
     -0.000139      -0.000215       0.000000
      0.000011      -0.000069       0.000000
      0.000031       0.000017       0.000000
     -0.000114       0.000010       0.000000
     -0.000125      -0.000094       0.000000
      0.000103       0.000019       0.000000
      0.000126       0.000098       0.000000
      0.000055       0.000130       0.000000
      0.000031       0.000017       0.000000
      0.000126       0.000098       0.000000
      0.000139       0.000208       0.000000
      0.000075       0.000298       0.000000
      0.000055       0.000130       0.000000
      0.000031       0.000017       0.000000
      0.000055       0.000130       0.000000
     -0.000098       0.000144       0.000000
     -0.000114       0.000010       0.000000
      0.000055       0.000130       0.000000
      0.000075       0.000298       0.000000
     -0.000078       0.000360       0.000000
     -0.000098       0.000144       0.000000
      0.000139       0.000208       0.000000
      0.000124       0.000349       0.000000
      0.000062       0.000534       0.000000
      0.000075       0.000298       0.000000
      0.000124       0.000349       0.000000
      0.000063       0.000501       0.000000
     -0.000017       0.000804       0.000000
      0.000062       0.000534       0.000000
      0.000075       0.000298       0.000000
      0.000062       0.000534       0.000000
     -0.000075       0.000705       0.000000
     -0.000078       0.000360       0.000000
      0.000062       0.000534       0.000000
     -0.000017       0.000804       0.000000
     -0.000161       0.001148       0.000000
     -0.000075       0.000705       0.000000
     -0.000139      -0.000215       0.000000
     -0.000125      -0.000094       0.000000
     -0.000293      -0.000108       0.000000
     -0.000295      -0.000241       0.000000
     -0.000125      -0.000094       0.000000
     -0.000114       0.000010       0.000000
     -0.000302       0.000007       0.000000
     -0.000293      -0.000108       0.000000
     -0.000295      -0.000241       0.000000
     -0.000293      -0.000108       0.000000
     -0.000446      -0.000107       0.000000
     -0.000444      -0.000243       0.000000
     -0.000293      -0.000108       0.000000
     -0.000302       0.000007       0.000000
     -0.000474       0.000020       0.000000
     -0.000446      -0.000107       0.000000
     -0.000114       0.000010       0.000000
     -0.000098       0.000144       0.000000
     -0.000320       0.000151       0.000000
     -0.000302       0.000007       0.000000
     -0.000098       0.000144       0.000000
     -0.000078       0.000360       0.000000
     -0.000337       0.000387       0.000000
     -0.000320       0.000151       0.000000
     -0.000302       0.000007       0.000000
     -0.000320       0.000151       0.000000
     -0.000548       0.000176       0.000000
     -0.000474       0.000020       0.000000
     -0.000320       0.000151       0.000000
     -0.000337       0.000387       0.000000
     -0.000676       0.000422       0.000000
     -0.000548       0.000176       0.000000
     -0.000078       0.000360       0.000000
     -0.000071       0.000516       0.000000
     -0.000185       0.000550       0.000000
     -0.000193       0.000377       0.000000
     -0.000071       0.000516       0.000000
     -0.000075       0.000705       0.000000
     -0.000183       0.000775       0.000000
     -0.000185       0.000550       0.000000
     -0.000193       0.000377       0.000000
     -0.000185       0.000550       0.000000
     -0.000339       0.000570       0.000000
     -0.000337       0.000387       0.000000
     -0.000185       0.000550       0.000000
     -0.000183       0.000775       0.000000
     -0.000335       0.000822       0.000000
     -0.000339       0.000570       0.000000
     -0.000075       0.000705       0.000000
     -0.000102       0.000924       0.000000
     -0.000201       0.001049       0.000000
     -0.000183       0.000775       0.000000
     -0.000102       0.000924       0.000000
     -0.000161       0.001148       0.000000
     -0.000262       0.001343       0.000000
     -0.000201       0.001049       0.000000
     -0.000183       0.000775       0.000000
     -0.000201       0.001049       0.000000
     -0.000339       0.001163       0.000000
     -0.000335       0.000822       0.000000
     -0.000201       0.001049       0.000000
     -0.000262       0.001343       0.000000
     -0.000396       0.001565       0.000000
     -0.000339       0.001163       0.000000
     -0.000337       0.000387       0.000000
     -0.000339       0.000570       0.000000
     -0.000538       0.000582       0.000000
     -0.000506       0.000398       0.000000
     -0.000339       0.000570       0.000000
     -0.000335       0.000822       0.000000
     -0.000561       0.000843       0.000000
     -0.000538       0.000582       0.000000
     -0.000506       0.000398       0.000000
     -0.000538       0.000582       0.000000
     -0.000762       0.000609       0.000000
     -0.000676       0.000422       0.000000
     -0.000538       0.000582       0.000000
     -0.000561       0.000843       0.000000
     -0.000866       0.000869       0.000000
     -0.000762       0.000609       0.000000
     -0.000335       0.000822       0.000000
     -0.000334       0.000981       0.000000
     -0.000435       0.001005       0.000000
     -0.000437       0.000835       0.000000
     -0.000334       0.000981       0.000000
     -0.000339       0.001163       0.000000
     -0.000434       0.001209       0.000000
     -0.000435       0.001005       0.000000
     -0.000437       0.000835       0.000000
     -0.000435       0.001005       0.000000
     -0.000564       0.001018       0.000000
     -0.000561       0.000843       0.000000
     -0.000435       0.001005       0.000000
     -0.000434       0.001209       0.000000
     -0.000561       0.001240       0.000000
     -0.000564       0.001018       0.000000
     -0.000339       0.001163       0.000000
     -0.000358       0.001363       0.000000
     -0.000445       0.001445       0.000000
     -0.000434       0.001209       0.000000
     -0.000358       0.001363       0.000000
     -0.000396       0.001565       0.000000
     -0.000484       0.001694       0.000000
     -0.000445       0.001445       0.000000
     -0.000434       0.001209       0.000000
     -0.000445       0.001445       0.000000
     -0.000559       0.001522       0.000000
     -0.000561       0.001240       0.000000
     -0.000445       0.001445       0.000000
     -0.000484       0.001694       0.000000
     -0.000594       0.001847       0.000000
     -0.000559       0.001522       0.000000
     -0.000561       0.000843       0.000000
     -0.000564       0.001018       0.000000
     -0.000731       0.001027       0.000000
     -0.000708       0.000852       0.000000
     -0.000564       0.001018       0.000000
     -0.000561       0.001240       0.000000
     -0.000744       0.001252       0.000000
     -0.000731       0.001027       0.000000
     -0.000708       0.000852       0.000000
     -0.000731       0.001027       0.000000
     -0.000925       0.001044       0.000000
     -0.000866       0.000869       0.000000
     -0.000731       0.001027       0.000000
     -0.000744       0.001252       0.000000
     -0.000992       0.001268       0.000000
     -0.000925       0.001044       0.000000
     -0.000561       0.001240       0.000000
     -0.000558       0.001373       0.000000
     -0.000639       0.001389       0.000000
     -0.000644       0.001248       0.000000
     -0.000558       0.001373       0.000000
     -0.000559       0.001522       0.000000
     -0.000635       0.001554       0.000000
     -0.000639       0.001389       0.000000
     -0.000644       0.001248       0.000000
     -0.000639       0.001389       0.000000
     -0.000743       0.001397       0.000000
     -0.000744       0.001252       0.000000
     -0.000639       0.001389       0.000000
     -0.000635       0.001554       0.000000
     -0.000735       0.001575       0.000000
     -0.000743       0.001397       0.000000
     -0.000559       0.001522       0.000000
     -0.000570       0.001684       0.000000
     -0.000640       0.001743       0.000000
     -0.000635       0.001554       0.000000
     -0.000570       0.001684       0.000000
     -0.000594       0.001847       0.000000
     -0.000663       0.001941       0.000000
     -0.000640       0.001743       0.000000
     -0.000635       0.001554       0.000000
     -0.000640       0.001743       0.000000
     -0.000729       0.001800       0.000000
     -0.000735       0.001575       0.000000
     -0.000640       0.001743       0.000000
     -0.000663       0.001941       0.000000
     -0.000750       0.002058       0.000000
     -0.000729       0.001800       0.000000
     -0.000744       0.001252       0.000000
     -0.000743       0.001397       0.000000
     -0.000876       0.001401       0.000000
     -0.000863       0.001257       0.000000
     -0.000743       0.001397       0.000000
     -0.000735       0.001575       0.000000
     -0.000879       0.001582       0.000000
     -0.000876       0.001401       0.000000
     -0.000863       0.001257       0.000000
     -0.000876       0.001401       0.000000
     -0.001031       0.001412       0.000000
     -0.000992       0.001268       0.000000
     -0.000876       0.001401       0.000000
     -0.000879       0.001582       0.000000
     -0.001077       0.001593       0.000000
     -0.001031       0.001412       0.000000
     -0.000735       0.001575       0.000000
     -0.000729       0.001800       0.000000
     -0.000864       0.001841       0.000000
     -0.000879       0.001582       0.000000
     -0.000729       0.001800       0.000000
     -0.000750       0.002058       0.000000
     -0.000873       0.002228       0.000000
     -0.000864       0.001841       0.000000
     -0.000879       0.001582       0.000000
     -0.000864       0.001841       0.000000
     -0.001137       0.001861       0.000000
     -0.001077       0.001593       0.000000
     -0.000864       0.001841       0.000000
     -0.000873       0.002228       0.000000
     -0.001205       0.002683       0.000000
     -0.001137       0.001861       0.000000
      0.000000       0.000000       0.000000
      0.000000       0.000000       0.000000
      0.000017       0.000291       0.000000
      0.000076       0.000233       0.000000
      0.000000       0.000000       0.000000
      0.000000       0.000000       0.000000
     -0.000061       0.000335       0.000000
      0.000017       0.000291       0.000000
      0.000076       0.000233       0.000000
      0.000017       0.000291       0.000000
     -0.000046       0.000635       0.000000
      0.000063       0.000501       0.000000
      0.000017       0.000291       0.000000
     -0.000061       0.000335       0.000000
     -0.000188       0.000733       0.000000
     -0.000046       0.000635       0.000000
      0.000000       0.000000       0.000000
      0.000000       0.000000       0.000000
     -0.000150       0.000369       0.000000
     -0.000061       0.000335       0.000000
      0.000000       0.000000       0.000000
      0.000000       0.000000       0.000000
     -0.000251       0.000406       0.000000
     -0.000150       0.000369       0.000000
     -0.000061       0.000335       0.000000
     -0.000150       0.000369       0.000000
     -0.000347       0.000804       0.000000
     -0.000188       0.000733       0.000000
     -0.000150       0.000369       0.000000
     -0.000251       0.000406       0.000000
     -0.000521       0.000878       0.000000
     -0.000347       0.000804       0.000000
      0.000000       0.000000       0.000000
      0.000000       0.000000       0.000000
     -0.000390       0.000487       0.000000
     -0.000251       0.000406       0.000000
      0.000000       0.000000       0.000000
      0.000000       0.000000       0.000000
     -0.000604       0.000735       0.000000
     -0.000390       0.000487       0.000000
     -0.000251       0.000406       0.000000
     -0.000390       0.000487       0.000000
     -0.000716       0.001002       0.000000
     -0.000521       0.000878       0.000000
     -0.000390       0.000487       0.000000
     -0.000604       0.000735       0.000000
     -0.000920       0.001223       0.000000
     -0.000716       0.001002       0.000000
      0.000063       0.000501       0.000000
     -0.000046       0.000635       0.000000
     -0.000172       0.001036       0.000000
     -0.000017       0.000804       0.000000
     -0.000046       0.000635       0.000000
     -0.000188       0.000733       0.000000
     -0.000366       0.001189       0.000000
     -0.000172       0.001036       0.000000
     -0.000017       0.000804       0.000000
     -0.000172       0.001036       0.000000
     -0.000363       0.001510       0.000000
     -0.000161       0.001148       0.000000
     -0.000172       0.001036       0.000000
     -0.000366       0.001189       0.000000
     -0.000589       0.001696       0.000000
     -0.000363       0.001510       0.000000
     -0.000188       0.000733       0.000000
     -0.000347       0.000804       0.000000
     -0.000568       0.001284       0.000000
     -0.000366       0.001189       0.000000
     -0.000347       0.000804       0.000000
     -0.000521       0.000878       0.000000
     -0.000770       0.001367       0.000000
     -0.000568       0.001284       0.000000
     -0.000366       0.001189       0.000000
     -0.000568       0.001284       0.000000
     -0.000793       0.001781       0.000000
     -0.000589       0.001696       0.000000
     -0.000568       0.001284       0.000000
     -0.000770       0.001367       0.000000
     -0.000985       0.001847       0.000000
     -0.000793       0.001781       0.000000
     -0.000521       0.000878       0.000000
     -0.000716       0.001002       0.000000
     -0.000971       0.001484       0.000000
     -0.000770       0.001367       0.000000
     -0.000716       0.001002       0.000000
     -0.000920       0.001223       0.000000
     -0.001161       0.001663       0.000000
     -0.000971       0.001484       0.000000
     -0.000770       0.001367       0.000000
     -0.000971       0.001484       0.000000
     -0.001173       0.001934       0.000000
     -0.000985       0.001847       0.000000
     -0.000971       0.001484       0.000000
     -0.001161       0.001663       0.000000
     -0.001348       0.002066       0.000000
     -0.001173       0.001934       0.000000
     -0.000589       0.001696       0.000000
     -0.000793       0.001781       0.000000
     -0.000982       0.002261       0.000000
     -0.000832       0.002217       0.000000
     -0.000793       0.001781       0.000000
     -0.000985       0.001847       0.000000
     -0.001142       0.002302       0.000000
     -0.000982       0.002261       0.000000
     -0.000832       0.002217       0.000000
     -0.000982       0.002261       0.000000
     -0.001069       0.002708       0.000000
     -0.000965       0.002689       0.000000
     -0.000982       0.002261       0.000000
     -0.001142       0.002302       0.000000
     -0.001210       0.002735       0.000000
     -0.001069       0.002708       0.000000
     -0.000985       0.001847       0.000000
     -0.001173       0.001934       0.000000
     -0.001312       0.002358       0.000000
     -0.001142       0.002302       0.000000
     -0.001173       0.001934       0.000000
     -0.001348       0.002066       0.000000
     -0.001477       0.002438       0.000000
     -0.001312       0.002358       0.000000
     -0.001142       0.002302       0.000000
     -0.001312       0.002358       0.000000
     -0.001373       0.002767       0.000000
     -0.001210       0.002735       0.000000
     -0.001312       0.002358       0.000000
     -0.001477       0.002438       0.000000
     -0.001535       0.002793       0.000000
     -0.001373       0.002767       0.000000
     -0.000161       0.001148       0.000000
     -0.000252       0.001351       0.000000
     -0.000368       0.001602       0.000000
     -0.000262       0.001343       0.000000
     -0.000252       0.001351       0.000000
     -0.000363       0.001510       0.000000
     -0.000493       0.001785       0.000000
     -0.000368       0.001602       0.000000
     -0.000262       0.001343       0.000000
     -0.000368       0.001602       0.000000
     -0.000524       0.001900       0.000000
     -0.000396       0.001565       0.000000
     -0.000368       0.001602       0.000000
     -0.000493       0.001785       0.000000
     -0.000652       0.002087       0.000000
     -0.000524       0.001900       0.000000
     -0.000363       0.001510       0.000000
     -0.000479       0.001622       0.000000
     -0.000610       0.001895       0.000000
     -0.000493       0.001785       0.000000
     -0.000479       0.001622       0.000000
     -0.000589       0.001696       0.000000
     -0.000713       0.001959       0.000000
     -0.000610       0.001895       0.000000
     -0.000493       0.001785       0.000000
     -0.000610       0.001895       0.000000
     -0.000751       0.002174       0.000000