# vtk DataFile Version 2.0
time_10.vtk
ASCII
DATASET UNSTRUCTURED_GRID
POINTS  1152 float
      0.000000       0.000000       0.000000
      0.083333       0.000000       0.000000
      0.083333       0.083333       0.000000
      0.000000       0.083333       0.000000
      0.083333       0.000000       0.000000
      0.166667       0.000000       0.000000
      0.166667       0.083333       0.000000
      0.083333       0.083333       0.000000
      0.000000       0.083333       0.000000
      0.083333       0.083333       0.000000
      0.083333       0.166667       0.000000
      0.000000       0.166667       0.000000
      0.083333       0.083333       0.000000
      0.166667       0.083333       0.000000
      0.166667       0.166667       0.000000
      0.083333       0.166667       0.000000
      0.166667       0.000000       0.000000
      0.250000       0.000000       0.000000
      0.250000       0.083333       0.000000
      0.166667       0.083333       0.000000
      0.250000       0.000000       0.000000
      0.333333       0.000000       0.000000
      0.333333       0.083333       0.000000
      0.250000       0.083333       0.000000
      0.166667       0.083333       0.000000
      0.250000       0.083333       0.000000
      0.250000       0.166667       0.000000
      0.166667       0.166667       0.000000
      0.250000       0.083333       0.000000
      0.333333       0.083333       0.000000
      0.333333       0.166667       0.000000
      0.250000       0.166667       0.000000
      0.333333       0.000000       0.000000
      0.416667      -0.000000       0.000000
      0.416667       0.083333       0.000000
      0.333333       0.083333       0.000000
      0.416667      -0.000000       0.000000
      0.500000       0.000000       0.000000
      0.500000       0.083333       0.000000
      0.416667       0.083333       0.000000
      0.333333       0.083333       0.000000
      0.416667       0.083333       0.000000
      0.416667       0.166667       0.000000
      0.333333       0.166667       0.000000
      0.416667       0.083333       0.000000
      0.500000       0.083333       0.000000
      0.500000       0.166667       0.000000
      0.416667       0.166667       0.000000
      0.000000       0.166667       0.000000
      0.083333       0.166667       0.000000
      0.083333       0.250000       0.000000
      0.000000       0.250000       0.000000
      0.083333       0.166667       0.000000
      0.166667       0.166667       0.000000
      0.166667       0.250000       0.000000
      0.083333       0.250000       0.000000
      0.000000       0.250000       0.000000
      0.083333       0.250000       0.000000
      0.083333       0.333333       0.000000
      0.000000       0.333333       0.000000
      0.083333       0.250000       0.000000
      0.166667       0.250000       0.000000
      0.166667       0.333333       0.000000
      0.083333       0.333333       0.000000
      0.166667       0.166667       0.000000
      0.250000       0.166667       0.000000
      0.250000       0.250000       0.000000
      0.166667       0.250000       0.000000
      0.250000       0.166667       0.000000
      0.333333       0.166667       0.000000
      0.333333       0.250000       0.000000
      0.250000       0.250000       0.000000
      0.166667       0.250000       0.000000
      0.250000       0.250000       0.000000
      0.250000       0.333333       0.000000
      0.166667       0.333333       0.000000
      0.250000       0.250000       0.000000
      0.333333       0.250000       0.000000
      0.333333       0.333333       0.000000
      0.250000       0.333333       0.000000
      0.333333       0.166667       0.000000
      0.416667       0.166667       0.000000
      0.416667       0.250000       0.000000
      0.333333       0.250000       0.000000
      0.416667       0.166667       0.000000
      0.500000       0.166667       0.000000
      0.500000       0.250000       0.000000
      0.416667       0.250000       0.000000
      0.333333       0.250000       0.000000
      0.416667       0.250000       0.000000
      0.416667       0.333333       0.000000
      0.333333       0.333333       0.000000
      0.416667       0.250000       0.000000
      0.500000       0.250000       0.000000
      0.500000       0.333333       0.000000
      0.416667       0.333333       0.000000
      0.000000       0.333333       0.000000
      0.083333       0.333333       0.000000
      0.083333       0.416667       0.000000
     -0.000000       0.416667       0.000000
      0.083333       0.333333       0.000000
      0.166667       0.333333       0.000000
      0.166667       0.416667       0.000000
      0.083333       0.416667       0.000000
     -0.000000       0.416667       0.000000
      0.083333       0.416667       0.000000
      0.083333       0.500000       0.000000
      0.000000       0.500000       0.000000
      0.083333       0.416667       0.000000
      0.166667       0.416667       0.000000
      0.166667       0.500000       0.000000
      0.083333       0.500000       0.000000
      0.166667       0.333333       0.000000
      0.250000       0.333333       0.000000
      0.250000       0.416667       0.000000
      0.166667       0.416667       0.000000
      0.250000       0.333333       0.000000
      0.333333       0.333333       0.000000
      0.333333       0.416667       0.000000
      0.250000       0.416667       0.000000
      0.166667       0.416667       0.000000
      0.250000       0.416667       0.000000
      0.250000       0.500000       0.000000
      0.166667       0.500000       0.000000
      0.250000       0.416667       0.000000
      0.333333       0.416667       0.000000
      0.333333       0.500000       0.000000
      0.250000       0.500000       0.000000
      0.333333       0.333333       0.000000
      0.375000       0.333333       0.000000
      0.375000       0.375000       0.000000
      0.333333       0.375000       0.000000
      0.375000       0.333333       0.000000
      0.416667       0.333333       0.000000
      0.416667       0.375000       0.000000
      0.375000       0.375000       0.000000
      0.333333       0.375000       0.000000
      0.375000       0.375000       0.000000
      0.375000       0.416667       0.000000
      0.333333       0.416667       0.000000
      0.375000       0.375000       0.000000
      0.416667       0.375000       0.000000
      0.416667       0.416667       0.000000
      0.375000       0.416667       0.000000
      0.416667       0.333333       0.000000
      0.458333       0.333333       0.000000
      0.458333       0.375000       0.000000
      0.416667       0.375000       0.000000
      0.458333       0.333333       0.000000
      0.500000       0.333333       0.000000
      0.500000       0.375000       0.000000
      0.458333       0.375000       0.000000
      0.416667       0.375000       0.000000
      0.458333       0.375000       0.000000
      0.458333       0.416667       0.000000
      0.416667       0.416667       0.000000
      0.458333       0.375000       0.000000
      0.500000       0.375000       0.000000
      0.500000       0.416667       0.000000
      0.458333       0.416667       0.000000
      0.333333       0.416667       0.000000
      0.375000       0.416667       0.000000
      0.375000       0.458333       0.000000
      0.333333       0.458333       0.000000
      0.375000       0.416667       0.000000
      0.416667       0.416667       0.000000
      0.416667       0.458333       0.000000
      0.375000       0.458333       0.000000
      0.333333       0.458333       0.000000
      0.375000       0.458333       0.000000
      0.375000       0.500000       0.000000
      0.333333       0.500000       0.000000
      0.375000       0.458333       0.000000
      0.416667       0.458333       0.000000
      0.416667       0.500000       0.000000
      0.375000       0.500000       0.000000
      0.416667       0.416667       0.000000
      0.437500       0.416667       0.000000
      0.437500       0.437500       0.000000
      0.416667       0.437500       0.000000
      0.437500       0.416667       0.000000
      0.458333       0.416667       0.000000
      0.458333       0.437500       0.000000
      0.437500       0.437500       0.000000
      0.416667       0.437500       0.000000
      0.437500       0.437500       0.000000
      0.437500       0.458333       0.000000
      0.416667       0.458333       0.000000
      0.437500       0.437500       0.000000
      0.458333       0.437500       0.000000
      0.458333       0.458333       0.000000
      0.437500       0.458333       0.000000
      0.458333       0.416667       0.000000
      0.479167       0.416667       0.000000
      0.479167       0.437500       0.000000
      0.458333       0.437500       0.000000
      0.479167       0.416667       0.000000
      0.500000       0.416667       0.000000
      0.500000       0.437500       0.000000
      0.479167       0.437500       0.000000
      0.458333       0.437500       0.000000
      0.479167       0.437500       0.000000
      0.479167       0.458333       0.000000
      0.458333       0.458333       0.000000
      0.479167       0.437500       0.000000
      0.500000       0.437500       0.000000
      0.500000       0.458333       0.000000
      0.479167       0.458333       0.000000
      0.416667       0.458333       0.000000
      0.437500       0.458333       0.000000
      0.437500       0.479167       0.000000
      0.416667       0.479167       0.000000
      0.437500       0.458333       0.000000
      0.458333       0.458333       0.000000
      0.458333       0.479167       0.000000
      0.437500       0.479167       0.000000
      0.416667       0.479167       0.000000
      0.437500       0.479167       0.000000
      0.437500       0.500000       0.000000
      0.416667       0.500000       0.000000
[...]
POINT_DATA  1152
VECTORS U float 
      0.000000       0.000000       0.000000
      0.000000       0.000000       0.000000
      0.000073      -0.000015       0.000000
      0.000054      -0.000015       0.000000
      0.000000       0.000000       0.000000
      0.000000       0.000000       0.000000
      0.000092       0.000015       0.000000
      0.000073      -0.000015       0.000000
      0.000054      -0.000015       0.000000
      0.000073      -0.000015       0.000000
      0.000081      -0.000040       0.000000
      0.000057      -0.000082       0.000000
      0.000073      -0.000015       0.000000
      0.000092       0.000015       0.000000
      0.000103       0.000019       0.000000
      0.000081      -0.000040       0.000000
      0.000000       0.000000       0.000000
      0.000000       0.000000       0.000000
      0.000109       0.000054       0.000000
      0.000092       0.000015       0.000000
      0.000000       0.000000       0.000000
      0.000000       0.000000       0.000000
      0.000119       0.000106       0.000000
      0.000109       0.000054       0.000000
      0.000092       0.000015       0.000000
      0.000109       0.000054       0.000000
      0.000126       0.000098       0.000000
      0.000103       0.000019       0.000000
      0.000109       0.000054       0.000000
      0.000119       0.000106       0.000000
      0.000139       0.000208       0.000000
      0.000126       0.000098       0.000000
      0.000000       0.000000       0.000000
      0.000000       0.000000       0.000000
      0.000110       0.000168       0.000000
      0.000119       0.000106       0.000000
      0.000000       0.000000       0.000000
      0.000000       0.000000       0.000000
      0.000076       0.000233       0.000000
      0.000110       0.000168       0.000000
      0.000119       0.000106       0.000000
      0.000110       0.000168       0.000000
      0.000124       0.000349       0.000000
      0.000139       0.000208       0.000000
      0.000110       0.000168       0.000000
      0.000076       0.000233       0.000000
      0.000063       0.000502       0.000000
      0.000124       0.000349       0.000000
      0.000057      -0.000082       0.000000
      0.000081      -0.000040       0.000000
      0.000011      -0.000069       0.000000
     -0.000012      -0.000157       0.000000
      0.000081      -0.000040       0.000000
      0.000103       0.000019       0.000000
      0.000031       0.000017       0.000000
      0.000011      -0.000069       0.000000
     -0.000012      -0.000157       0.000000
      0.000011      -0.000069       0.000000
     -0.000126      -0.000095       0.000000
     -0.000140      -0.000215       0.000000
      0.000011      -0.000069       0.000000
      0.000031       0.000017       0.000000
     -0.000114       0.000010       0.000000
     -0.000126      -0.000095       0.000000
      0.000103       0.000019       0.000000
      0.000126       0.000098       0.000000
      0.000055       0.000130       0.000000
      0.000031       0.000017       0.000000
      0.000126       0.000098       0.000000
      0.000139       0.000208       0.000000
      0.000075       0.000298       0.000000
      0.000055       0.000130       0.000000
      0.000031       0.000017       0.000000
      0.000055       0.000130       0.000000
     -0.000099       0.000145       0.000000
     -0.000114       0.000010       0.000000
      0.000055       0.000130       0.000000
      0.000075       0.000298       0.000000
     -0.000078       0.000361       0.000000
     -0.000099       0.000145       0.000000
      0.000139       0.000208       0.000000
      0.000124       0.000349       0.000000
      0.000062       0.000534       0.000000
      0.000075       0.000298       0.000000
      0.000124       0.000349       0.000000
      0.000063       0.000502       0.000000
     -0.000017       0.000805       0.000000
      0.000062       0.000534       0.000000
      0.000075       0.000298       0.000000
      0.000062       0.000534       0.000000
     -0.000075       0.000706       0.000000
     -0.000078       0.000361       0.000000
      0.000062       0.000534       0.000000
     -0.000017       0.000805       0.000000
     -0.000161       0.001150       0.000000
     -0.000075       0.000706       0.000000
     -0.000140      -0.000215       0.000000
     -0.000126      -0.000095       0.000000
     -0.000294      -0.000108       0.000000
     -0.000296      -0.000241       0.000000
     -0.000126      -0.000095       0.000000
     -0.000114       0.000010       0.000000
     -0.000303       0.000007       0.000000
     -0.000294      -0.000108       0.000000
     -0.000296      -0.000241       0.000000
     -0.000294      -0.000108       0.000000
     -0.000446      -0.000107       0.000000
     -0.000445      -0.000243       0.000000
     -0.000294      -0.000108       0.000000
     -0.000303       0.000007       0.000000
     -0.000475       0.000020       0.000000
     -0.000446      -0.000107       0.000000
     -0.000114       0.000010       0.000000
     -0.000099       0.000145       0.000000
     -0.000321       0.000151       0.000000
     -0.000303       0.000007       0.000000
     -0.000099       0.000145       0.000000
     -0.000078       0.000361       0.000000
     -0.000338       0.000387       0.000000
     -0.000321       0.000151       0.000000
     -0.000303       0.000007       0.000000
     -0.000321       0.000151       0.000000
     -0.000549       0.000176       0.000000
     -0.000475       0.000020       0.000000
     -0.000321       0.000151       0.000000
     -0.000338       0.000387       0.000000
     -0.000677       0.000423       0.000000
     -0.000549       0.000176       0.000000
     -0.000078       0.000361       0.000000
     -0.000071       0.000516       0.000000
     -0.000186       0.000551       0.000000
     -0.000194       0.000378       0.000000
     -0.000071       0.000516       0.000000
     -0.000075       0.000706       0.000000
     -0.000183       0.000775       0.000000
     -0.000186       0.000551       0.000000
     -0.000194       0.000378       0.000000
     -0.000186       0.000551       0.000000
     -0.000340       0.000570       0.000000
     -0.000338       0.000387       0.000000
     -0.000186       0.000551       0.000000
     -0.000183       0.000775       0.000000
     -0.000336       0.000823       0.000000
     -0.000340       0.000570       0.000000
     -0.000075       0.000706       0.000000
     -0.000102       0.000925       0.000000
     -0.000202       0.001050       0.000000
     -0.000183       0.000775       0.000000
     -0.000102       0.000925       0.000000
     -0.000161       0.001150       0.000000
     -0.000263       0.001345       0.000000
     -0.000202       0.001050       0.000000
     -0.000183       0.000775       0.000000
     -0.000202       0.001050       0.000000
     -0.000340       0.001164       0.000000
     -0.000336       0.000823       0.000000
     -0.000202       0.001050       0.000000
     -0.000263       0.001345       0.000000
     -0.000397       0.001567       0.000000
     -0.000340       0.001164       0.000000
     -0.000338       0.000387       0.000000
     -0.000340       0.000570       0.000000
     -0.000539       0.000583       0.000000
     -0.000507       0.000398       0.000000
     -0.000340       0.000570       0.000000
     -0.000336       0.000823       0.000000
     -0.000562       0.000844       0.000000
     -0.000539       0.000583       0.000000
     -0.000507       0.000398       0.000000
     -0.000539       0.000583       0.000000
     -0.000764       0.000609       0.000000
     -0.000677       0.000423       0.000000
     -0.000539       0.000583       0.000000
     -0.000562       0.000844       0.000000
     -0.000867       0.000870       0.000000
     -0.000764       0.000609       0.000000
     -0.000336       0.000823       0.000000
     -0.000335       0.000982       0.000000
     -0.000435       0.001006       0.000000
     -0.000438       0.000836       0.000000
     -0.000335       0.000982       0.000000
     -0.000340       0.001164       0.000000
     -0.000434       0.001210       0.000000
     -0.000435       0.001006       0.000000
     -0.000438       0.000836       0.000000
     -0.000435       0.001006       0.000000
     -0.000566       0.001019       0.000000
     -0.000562       0.000844       0.000000
     -0.000435       0.001006       0.000000
     -0.000434       0.001210       0.000000
     -0.000562       0.001241       0.000000
     -0.000566       0.001019       0.000000
     -0.000340       0.001164       0.000000
     -0.000358       0.001364       0.000000
     -0.000446       0.001447       0.000000
     -0.000434       0.001210       0.000000
     -0.000358       0.001364       0.000000
     -0.000397       0.001567       0.000000
     -0.000484       0.001696       0.000000
     -0.000446       0.001447       0.000000
     -0.000434       0.001210       0.000000
     -0.000446       0.001447       0.000000
     -0.000561       0.001523       0.000000
     -0.000562       0.001241       0.000000
     -0.000446       0.001447       0.000000
     -0.000484       0.001696       0.000000
     -0.000595       0.001849       0.000000
     -0.000561       0.001523       0.000000
     -0.000562       0.000844       0.000000
     -0.000566       0.001019       0.000000
     -0.000733       0.001027       0.000000
     -0.000709       0.000853       0.000000
     -0.000566       0.001019       0.000000
     -0.000562       0.001241       0.000000
     -0.000745       0.001254       0.000000
     -0.000733       0.001027       0.000000
     -0.000709       0.000853       0.000000
     -0.000733       0.001027       0.000000
     -0.000926       0.001045       0.000000
     -0.000867       0.000870       0.000000
     -0.000733       0.001027       0.000000
     -0.000745       0.001254       0.000000
     -0.000994       0.001270       0.000000
     -0.000926       0.001045       0.000000
     -0.000562       0.001241       0.000000
     -0.000559       0.001374       0.000000
     -0.000641       0.001390       0.000000
     -0.000645       0.001249       0.000000
     -0.000559       0.001374       0.000000
     -0.000561       0.001523       0.000000
     -0.000637       0.001555       0.000000
     -0.000641       0.001390       0.000000
     -0.000645       0.001249       0.000000
     -0.000641       0.001390       0.000000
     -0.000744       0.001398       0.000000
     -0.000745       0.001254       0.000000
     -0.000641       0.001390       0.000000
     -0.000637       0.001555       0.000000
     -0.000737       0.001576       0.000000
     -0.000744       0.001398       0.000000
     -0.000561       0.001523       0.000000
     -0.000571       0.001686       0.000000
     -0.000641       0.001745       0.000000
     -0.000637       0.001555       0.000000
     -0.000571       0.001686       0.000000
     -0.000595       0.001849       0.000000
     -0.000665       0.001943       0.000000
     -0.000641       0.001745       0.000000
     -0.000637       0.001555       0.000000
     -0.000641       0.001745       0.000000
     -0.000730       0.001802       0.000000
     -0.000737       0.001576       0.000000
     -0.000641       0.001745       0.000000
     -0.000665       0.001943       0.000000
     -0.000751       0.002060       0.000000
     -0.000730       0.001802       0.000000
     -0.000745       0.001254       0.000000
     -0.000744       0.001398       0.000000
     -0.000877       0.001402       0.000000
     -0.000864       0.001258       0.000000
     -0.000744       0.001398       0.000000
     -0.000737       0.001576       0.000000
     -0.000881       0.001583       0.000000
     -0.000877       0.001402       0.000000
     -0.000864       0.001258       0.000000
     -0.000877       0.001402       0.000000
     -0.001033       0.001413       0.000000
     -0.000994       0.001270       0.000000
     -0.000877       0.001402       0.000000
     -0.000881       0.001583       0.000000
     -0.001079       0.001595       0.000000
     -0.001033       0.001413       0.000000
     -0.000737       0.001576       0.000000
     -0.000730       0.001802       0.000000
     -0.000866       0.001842       0.000000
     -0.000881       0.001583       0.000000
     -0.000730       0.001802       0.000000
     -0.000751       0.002060       0.000000
     -0.000875       0.002230       0.000000
     -0.000866       0.001842       0.000000
     -0.000881       0.001583       0.000000
     -0.000866       0.001842       0.000000
     -0.001139       0.001863       0.000000
     -0.001079       0.001595       0.000000
     -0.000866       0.001842       0.000000
     -0.000875       0.002230       0.000000
     -0.001207       0.002688       0.000000
     -0.001139       0.001863       0.000000
      0.000000       0.000000       0.000000
      0.000000       0.000000       0.000000
      0.000017       0.000291       0.000000
      0.000076       0.000233       0.000000
      0.000000       0.000000       0.000000
      0.000000       0.000000       0.000000
     -0.000061       0.000335       0.000000
      0.000017       0.000291       0.000000
      0.000076       0.000233       0.000000
      0.000017       0.000291       0.000000
     -0.000046       0.000636       0.000000
      0.000063       0.000502       0.000000
      0.000017       0.000291       0.000000
     -0.000061       0.000335       0.000000
     -0.000188       0.000734       0.000000
     -0.000046       0.000636       0.000000
      0.000000       0.000000       0.000000
      0.000000       0.000000       0.000000
     -0.000150       0.000369       0.000000
     -0.000061       0.000335       0.000000
      0.000000       0.000000       0.000000
      0.000000       0.000000       0.000000
     -0.000251       0.000407       0.000000
     -0.000150       0.000369       0.000000
     -0.000061       0.000335       0.000000
     -0.000150       0.000369       0.000000
     -0.000348       0.000805       0.000000
     -0.000188       0.000734       0.000000
     -0.000150       0.000369       0.000000
     -0.000251       0.000407       0.000000
     -0.000522       0.000879       0.000000
     -0.000348       0.000805       0.000000
      0.000000       0.000000       0.000000
      0.000000       0.000000       0.000000
     -0.000391       0.000488       0.000000
     -0.000251       0.000407       0.000000
      0.000000       0.000000       0.000000
      0.000000       0.000000       0.000000
     -0.000605       0.000736       0.000000
     -0.000391       0.000488       0.000000
     -0.000251       0.000407       0.000000
     -0.000391       0.000488       0.000000
     -0.000717       0.001004       0.000000
     -0.000522       0.000879       0.000000
     -0.000391       0.000488       0.000000
     -0.000605       0.000736       0.000000
     -0.000922       0.001226       0.000000
     -0.000717       0.001004       0.000000
      0.000063       0.000502       0.000000
     -0.000046       0.000636       0.000000
     -0.000172       0.001037       0.000000
     -0.000017       0.000805       0.000000
     -0.000046       0.000636       0.000000
     -0.000188       0.000734       0.000000
     -0.000367       0.001191       0.000000
     -0.000172       0.001037       0.000000
     -0.000017       0.000805       0.000000
     -0.000172       0.001037       0.000000
     -0.000364       0.001513       0.000000
     -0.000161       0.001150       0.000000
     -0.000172       0.001037       0.000000
     -0.000367       0.001191       0.000000
     -0.000591       0.001699       0.000000
     -0.000364       0.001513       0.000000
     -0.000188       0.000734       0.000000
     -0.000348       0.000805       0.000000
     -0.000569       0.001286       0.000000
     -0.000367       0.001191       0.000000
     -0.000348       0.000805       0.000000
     -0.000522       0.000879       0.000000
     -0.000772       0.001370       0.000000
     -0.000569       0.001286       0.000000
     -0.000367       0.001191       0.000000
     -0.000569       0.001286       0.000000
     -0.000794       0.001784       0.000000
     -0.000591       0.001699       0.000000
     -0.000569       0.001286       0.000000
     -0.000772       0.001370       0.000000
     -0.000987       0.001850       0.000000
     -0.000794       0.001784       0.000000
     -0.000522       0.000879       0.000000
     -0.000717       0.001004       0.000000
     -0.000972       0.001487       0.000000
     -0.000772       0.001370       0.000000
     -0.000717       0.001004       0.000000
     -0.000922       0.001226       0.000000
     -0.001163       0.001666       0.000000
     -0.000972       0.001487       0.000000
     -0.000772       0.001370       0.000000
     -0.000972       0.001487       0.000000
     -0.001175       0.001938       0.000000
     -0.000987       0.001850       0.000000
     -0.000972       0.001487       0.000000
     -0.001163       0.001666       0.000000
     -0.001351       0.002070       0.000000
     -0.001175       0.001938       0.000000
     -0.000591       0.001699       0.000000
     -0.000794       0.001784       0.000000
     -0.000984       0.002265       0.000000
     -0.000833       0.002221       0.000000
     -0.000794       0.001784       0.000000
     -0.000987       0.001850       0.000000
     -0.001144       0.002306       0.000000
     -0.000984       0.002265       0.000000
     -0.000833       0.002221       0.000000
     -0.000984       0.002265       0.000000
     -0.001071       0.002713       0.000000
     -0.000967       0.002694       0.000000
     -0.000984       0.002265       0.000000
     -0.001144       0.002306       0.000000
     -0.001213       0.002740       0.000000
     -0.001071       0.002713       0.000000
     -0.000987       0.001850       0.000000
     -0.001175       0.001938       0.000000
     -0.001315       0.002362       0.000000
     -0.001144       0.002306       0.000000
     -0.001175       0.001938       0.000000
     -0.001351       0.002070       0.000000
     -0.001480       0.002442       0.000000
     -0.001315       0.002362       0.000000
     -0.001144       0.002306       0.000000
     -0.001315       0.002362       0.000000
     -0.001375       0.002772       0.000000
     -0.001213       0.002740       0.000000
     -0.001315       0.002362       0.000000
     -0.001480       0.002442       0.000000
     -0.001538       0.002798       0.000000
     -0.001375       0.002772       0.000000
     -0.000161       0.001150       0.000000
     -0.000252       0.001353       0.000000
     -0.000369       0.001604       0.000000
     -0.000263       0.001345       0.000000
     -0.000252       0.001353       0.000000
     -0.000364       0.001513       0.000000
     -0.000494       0.001787       0.000000
     -0.000369       0.001604       0.000000
     -0.000263       0.001345       0.000000
     -0.000369       0.001604       0.000000
     -0.000525       0.001903       0.000000
     -0.000397       0.001567       0.000000
     -0.000369       0.001604       0.000000
     -0.000494       0.001787       0.000000
     -0.000654       0.002090       0.000000
     -0.000525       0.001903       0.000000
     -0.000364       0.001513       0.000000
     -0.000480       0.001625       0.000000
     -0.000611       0.001898       0.000000
     -0.000494       0.001787       0.000000
     -0.000480       0.001625       0.000000
     -0.000591       0.001699       0.000000
     -0.000714       0.001962       0.000000
     -0.000611       0.001898       0.000000
     -0.000494       0.001787       0.000000
     -0.000611       0.001898       0.000000
     -0.000753       0.002178       0.000000