# vtk DataFile Version 2.0
time_10.vtk
ASCII
DATASET UNSTRUCTURED_GRID
POINTS  1152 float
      0.000000       0.000000       0.000000
      0.083333       0.000000       0.000000
      0.083333       0.083333       0.000000
      0.000000       0.083333       0.000000
      0.083333       0.000000       0.000000
      0.166667       0.000000       0.000000
      0.166667       0.083333       0.000000
      0.083333       0.083333       0.000000
      0.000000       0.083333       0.000000
      0.083333       0.083333       0.000000
      0.083333       0.166667       0.000000
      0.000000       0.166667       0.000000
      0.083333       0.083333       0.000000
      0.166667       0.083333       0.000000
      0.166667       0.166667       0.000000
      0.083333       0.166667       0.000000
      0.166667       0.000000       0.000000
      0.250000       0.000000       0.000000
      0.250000       0.083333       0.000000
      0.166667       0.083333       0.000000
      0.250000       0.000000       0.000000
      0.333333       0.000000       0.000000
      0.333333       0.083333       0.000000
      0.250000       0.083333       0.000000
      0.166667       0.083333       0.000000
      0.250000       0.083333       0.000000
      0.250000       0.166667       0.000000
      0.166667       0.166667       0.000000
      0.250000       0.083333       0.000000
      0.333333       0.083333       0.000000
      0.333333       0.166667       0.000000
      0.250000       0.166667       0.000000
      0.333333       0.000000       0.000000
      0.416667      -0.000000       0.000000
      0.416667       0.083333       0.000000
      0.333333       0.083333       0.000000
      0.416667      -0.000000       0.000000
      0.500000       0.000000       0.000000
      0.500000       0.083333       0.000000
      0.416667       0.083333       0.000000
      0.333333       0.083333       0.000000
      0.416667       0.083333       0.000000
      0.416667       0.166667       0.000000
      0.333333       0.166667       0.000000
      0.416667       0.083333       0.000000
      0.500000       0.083333       0.000000
      0.500000       0.166667       0.000000
      0.416667       0.166667       0.000000
      0.000000       0.166667       0.000000
      0.083333       0.166667       0.000000
      0.083333       0.250000       0.000000
      0.000000       0.250000       0.000000
      0.083333       0.166667       0.000000
      0.166667       0.166667       0.000000
      0.166667       0.250000       0.000000
      0.083333       0.250000       0.000000
      0.000000       0.250000       0.000000
      0.083333       0.250000       0.000000
      0.083333       0.333333       0.000000
      0.000000       0.333333       0.000000
      0.083333       0.250000       0.000000
      0.166667       0.250000       0.000000
      0.166667       0.333333       0.000000
      0.083333       0.333333       0.000000
      0.166667       0.166667       0.000000
      0.250000       0.166667       0.000000
      0.250000       0.250000       0.000000
      0.166667       0.250000       0.000000
      0.250000       0.166667       0.000000
      0.333333       0.166667       0.000000
      0.333333       0.250000       0.000000
      0.250000       0.250000       0.000000
      0.166667       0.250000       0.000000
      0.250000       0.250000       0.000000
      0.250000       0.333333       0.000000
      0.166667       0.333333       0.000000
      0.250000       0.250000       0.000000
      0.333333       0.250000       0.000000
      0.333333       0.333333       0.000000
      0.250000       0.333333       0.000000
      0.333333       0.166667       0.000000
      0.416667       0.166667       0.000000
      0.416667       0.250000       0.000000
      0.333333       0.250000       0.000000
      0.416667       0.166667       0.000000
      0.500000       0.166667       0.000000
      0.500000       0.250000       0.000000
      0.416667       0.250000       0.000000
      0.333333       0.250000       0.000000
      0.416667       0.250000       0.000000
      0.416667       0.333333       0.000000
      0.333333       0.333333       0.000000
      0.416667       0.250000       0.000000
      0.500000       0.250000       0.000000
      0.500000       0.333333       0.000000
      0.416667       0.333333       0.000000
      0.000000       0.333333       0.000000
      0.083333       0.333333       0.000000
      0.083333       0.416667       0.000000
     -0.000000       0.416667       0.000000
      0.083333       0.333333       0.000000
      0.166667       0.333333       0.000000
      0.166667       0.416667       0.000000
      0.083333       0.416667       0.000000
     -0.000000       0.416667       0.000000
      0.083333       0.416667       0.000000
      0.083333       0.500000       0.000000
      0.000000       0.500000       0.000000
      0.083333       0.416667       0.000000
      0.166667       0.416667       0.000000
      0.166667       0.500000       0.000000
      0.083333       0.500000       0.000000
      0.166667       0.333333       0.000000
      0.250000       0.333333       0.000000
      0.250000       0.416667       0.000000
      0.166667       0.416667       0.000000
      0.250000       0.333333       0.000000
      0.333333       0.333333       0.000000
      0.333333       0.416667       0.000000
      0.250000       0.416667       0.000000
      0.166667       0.416667       0.000000
      0.250000       0.416667       0.000000
      0.250000       0.500000       0.000000
      0.166667       0.500000       0.000000
      0.250000       0.416667       0.000000
      0.333333       0.416667       0.000000
      0.333333       0.500000       0.000000
      0.250000       0.500000       0.000000
      0.333333       0.333333       0.000000
      0.375000       0.333333       0.000000
      0.375000       0.375000       0.000000
      0.333333       0.375000       0.000000
      0.375000       0.333333       0.000000
      0.416667       0.333333       0.000000
      0.416667       0.375000       0.000000
      0.375000       0.375000       0.000000
      0.333333       0.375000       0.000000
      0.375000       0.375000       0.000000
      0.375000       0.416667       0.000000
      0.333333       0.416667       0.000000
      0.375000       0.375000       0.000000
      0.416667       0.375000       0.000000
      0.416667       0.416667       0.000000
      0.375000       0.416667       0.000000
      0.416667       0.333333       0.000000
      0.458333       0.333333       0.000000
      0.458333       0.375000       0.000000
      0.416667       0.375000       0.000000
      0.458333       0.333333       0.000000
      0.500000       0.333333       0.000000
      0.500000       0.375000       0.000000
      0.458333       0.375000       0.000000
      0.416667       0.375000       0.000000
      0.458333       0.375000       0.000000
      0.458333       0.416667       0.000000
      0.416667       0.416667       0.000000
      0.458333       0.375000       0.000000
      0.500000       0.375000       0.000000
      0.500000       0.416667       0.000000
      0.458333       0.416667       0.000000
      0.333333       0.416667       0.000000
      0.375000       0.416667       0.000000
      0.375000       0.458333       0.000000
      0.333333       0.458333       0.000000
      0.375000       0.416667       0.000000
      0.416667       0.416667       0.000000
      0.416667       0.458333       0.000000
      0.375000       0.458333       0.000000
      0.333333       0.458333       0.000000
      0.375000       0.458333       0.000000
      0.375000       0.500000       0.000000
      0.333333       0.500000       0.000000
      0.375000       0.458333       0.000000
      0.416667       0.458333       0.000000
      0.416667       0.500000       0.000000
      0.375000       0.500000       0.000000
      0.416667       0.416667       0.000000
      0.437500       0.416667       0.000000
      0.437500       0.437500       0.000000
      0.416667       0.437500       0.000000
      0.437500       0.416667       0.000000
      0.458333       0.416667       0.000000
      0.458333       0.437500       0.000000
      0.437500       0.437500       0.000000
      0.416667       0.437500       0.000000
      0.437500       0.437500       0.000000
      0.437500       0.458333       0.000000
      0.416667       0.458333       0.000000
      0.437500       0.437500       0.000000
      0.458333       0.437500       0.000000
      0.458333       0.458333       0.000000
      0.437500       0.458333       0.000000
      0.458333       0.416667       0.000000
      0.479167       0.416667       0.000000
      0.479167       0.437500       0.000000
      0.458333       0.437500       0.000000
      0.479167       0.416667       0.000000
      0.500000       0.416667       0.000000
      0.500000       0.437500       0.000000
      0.479167       0.437500       0.000000
      0.458333       0.437500       0.000000
      0.479167       0.437500       0.000000
      0.479167       0.458333       0.000000
      0.458333       0.458333       0.000000
      0.479167       0.437500       0.000000
      0.500000       0.437500       0.000000
      0.500000       0.458333       0.000000
      0.479167       0.458333       0.000000
      0.416667       0.458333       0.000000
      0.437500       0.458333       0.000000
      0.437500       0.479167       0.000000
      0.416667       0.479167       0.000000
      0.437500       0.458333       0.000000
      0.458333       0.458333       0.000000
      0.458333       0.479167       0.000000
      0.437500       0.479167       0.000000
      0.416667       0.479167       0.000000
      0.437500       0.479167       0.000000
      0.437500       0.500000       0.000000
      0.416667       0.500000       0.000000
[...]
POINT_DATA  1152
VECTORS U float 
      0.000000       0.000000       0.000000
      0.000000       0.000000       0.000000
      0.000040      -0.000005       0.000000
      0.000032      -0.000002       0.000000
      0.000000       0.000000       0.000000
      0.000000       0.000000       0.000000
      0.000049       0.000009       0.000000
      0.000040      -0.000005       0.000000
      0.000032      -0.000002       0.000000
      0.000040      -0.000005       0.000000
      0.000048      -0.000015       0.000000
      0.000037      -0.000032       0.000000
      0.000040      -0.000005       0.000000
      0.000049       0.000009       0.000000
      0.000058       0.000013       0.000000
      0.000048      -0.000015       0.000000
      0.000000       0.000000       0.000000
      0.000000       0.000000       0.000000
      0.000057       0.000028       0.000000
      0.000049       0.000009       0.000000
      0.000000       0.000000       0.000000
      0.000000       0.000000       0.000000
      0.000060       0.000053       0.000000
      0.000057       0.000028       0.000000
      0.000049       0.000009       0.000000
      0.000057       0.000028       0.000000
      0.000069       0.000051       0.000000
      0.000058       0.000013       0.000000
      0.000057       0.000028       0.000000
      0.000060       0.000053       0.000000
      0.000074       0.000105       0.000000
      0.000069       0.000051       0.000000
      0.000000       0.000000       0.000000
      0.000000       0.000000       0.000000
      0.000055       0.000083       0.000000
      0.000060       0.000053       0.000000
      0.000000       0.000000       0.000000
      0.000000       0.000000       0.000000
      0.000038       0.000114       0.000000
      0.000055       0.000083       0.000000
      0.000060       0.000053       0.000000
      0.000055       0.000083       0.000000
      0.000065       0.000173       0.000000
      0.000074       0.000105       0.000000
      0.000055       0.000083       0.000000
      0.000038       0.000114       0.000000
      0.000034       0.000244       0.000000
      0.000065       0.000173       0.000000
      0.000037      -0.000032       0.000000
      0.000048      -0.000015       0.000000
      0.000018      -0.000027       0.000000
      0.000008      -0.000068       0.000000
      0.000048      -0.000015       0.000000
      0.000058       0.000013       0.000000
      0.000028       0.000013       0.000000
      0.000018      -0.000027       0.000000
      0.000008      -0.000068       0.000000
      0.000018      -0.000027       0.000000
     -0.000044      -0.000039       0.000000
     -0.000051      -0.000095       0.000000
      0.000018      -0.000027       0.000000
      0.000028       0.000013       0.000000
     -0.000039       0.000011       0.000000
     -0.000044      -0.000039       0.000000
      0.000058       0.000013       0.000000
      0.000069       0.000051       0.000000
      0.000039       0.000068       0.000000
      0.000028       0.000013       0.000000
      0.000069       0.000051       0.000000
      0.000074       0.000105       0.000000
      0.000048       0.000151       0.000000
      0.000039       0.000068       0.000000
      0.000028       0.000013       0.000000
      0.000039       0.000068       0.000000
     -0.000031       0.000077       0.000000
     -0.000039       0.000011       0.000000
      0.000039       0.000068       0.000000
      0.000048       0.000151       0.000000
     -0.000021       0.000183       0.000000
     -0.000031       0.000077       0.000000
      0.000074       0.000105       0.000000
      0.000065       0.000173       0.000000
      0.000040       0.000265       0.000000
      0.000048       0.000151       0.000000
      0.000065       0.000173       0.000000
      0.000034       0.000244       0.000000
     -0.000001       0.000392       0.000000
      0.000040       0.000265       0.000000
      0.000048       0.000151       0.000000
      0.000040       0.000265       0.000000
     -0.000020       0.000352       0.000000
     -0.000021       0.000183       0.000000
      0.000040       0.000265       0.000000
     -0.000001       0.000392       0.000000
     -0.000065       0.000560       0.000000
     -0.000020       0.000352       0.000000
     -0.000051      -0.000095       0.000000
     -0.000044      -0.000039       0.000000
     -0.000124      -0.000045       0.000000
     -0.000125      -0.000108       0.000000
     -0.000044      -0.000039       0.000000
     -0.000039       0.000011       0.000000
     -0.000128       0.000010       0.000000
     -0.000124      -0.000045       0.000000
     -0.000125      -0.000108       0.000000
     -0.000124      -0.000045       0.000000
     -0.000196      -0.000044       0.000000
     -0.000195      -0.000109       0.000000
     -0.000124      -0.000045       0.000000
     -0.000128       0.000010       0.000000
     -0.000210       0.000016       0.000000
     -0.000196      -0.000044       0.000000
     -0.000039       0.000011       0.000000
     -0.000031       0.000077       0.000000
     -0.000135       0.000080       0.000000
     -0.000128       0.000010       0.000000
     -0.000031       0.000077       0.000000
     -0.000021       0.000183       0.000000
     -0.000142       0.000197       0.000000
     -0.000135       0.000080       0.000000
     -0.000128       0.000010       0.000000
     -0.000135       0.000080       0.000000
     -0.000245       0.000092       0.000000
     -0.000210       0.000016       0.000000
     -0.000135       0.000080       0.000000
     -0.000142       0.000197       0.000000
     -0.000306       0.000213       0.000000
     -0.000245       0.000092       0.000000
     -0.000021       0.000183       0.000000
     -0.000017       0.000259       0.000000
     -0.000070       0.000277       0.000000
     -0.000074       0.000192       0.000000
     -0.000017       0.000259       0.000000
     -0.000020       0.000352       0.000000
     -0.000068       0.000388       0.000000
     -0.000070       0.000277       0.000000
     -0.000074       0.000192       0.000000
     -0.000070       0.000277       0.000000
     -0.000141       0.000288       0.000000
     -0.000142       0.000197       0.000000
     -0.000070       0.000277       0.000000
     -0.000068       0.000388       0.000000
     -0.000138       0.000412       0.000000
     -0.000141       0.000288       0.000000
     -0.000020       0.000352       0.000000
     -0.000034       0.000456       0.000000
     -0.000078       0.000520       0.000000
     -0.000068       0.000388       0.000000
     -0.000034       0.000456       0.000000
     -0.000065       0.000560       0.000000
     -0.000110       0.000656       0.000000
     -0.000078       0.000520       0.000000
     -0.000068       0.000388       0.000000
     -0.000078       0.000520       0.000000
     -0.000140       0.000579       0.000000
     -0.000138       0.000412       0.000000
     -0.000078       0.000520       0.000000
     -0.000110       0.000656       0.000000
     -0.000170       0.000765       0.000000
     -0.000140       0.000579       0.000000
     -0.000142       0.000197       0.000000
     -0.000141       0.000288       0.000000
     -0.000237       0.000293       0.000000
     -0.000223       0.000202       0.000000
     -0.000141       0.000288       0.000000
     -0.000138       0.000412       0.000000
     -0.000245       0.000423       0.000000
     -0.000237       0.000293       0.000000
     -0.000223       0.000202       0.000000
     -0.000237       0.000293       0.000000
     -0.000346       0.000305       0.000000
     -0.000306       0.000213       0.000000
     -0.000237       0.000293       0.000000
     -0.000245       0.000423       0.000000
     -0.000394       0.000434       0.000000
     -0.000346       0.000305       0.000000
     -0.000138       0.000412       0.000000
     -0.000137       0.000490       0.000000
     -0.000184       0.000503       0.000000
     -0.000186       0.000419       0.000000
     -0.000137       0.000490       0.000000
     -0.000140       0.000579       0.000000
     -0.000183       0.000603       0.000000
     -0.000184       0.000503       0.000000
     -0.000186       0.000419       0.000000
     -0.000184       0.000503       0.000000
     -0.000245       0.000510       0.000000
     -0.000245       0.000423       0.000000
     -0.000184       0.000503       0.000000
     -0.000183       0.000603       0.000000
     -0.000241       0.000619       0.000000
     -0.000245       0.000510       0.000000
     -0.000140       0.000579       0.000000
     -0.000150       0.000674       0.000000
     -0.000189       0.000716       0.000000
     -0.000183       0.000603       0.000000
     -0.000150       0.000674       0.000000
     -0.000170       0.000765       0.000000
     -0.000209       0.000828       0.000000
     -0.000189       0.000716       0.000000
     -0.000183       0.000603       0.000000
     -0.000189       0.000716       0.000000
     -0.000240       0.000756       0.000000
     -0.000241       0.000619       0.000000
     -0.000189       0.000716       0.000000
     -0.000209       0.000828       0.000000
     -0.000258       0.000902       0.000000
     -0.000240       0.000756       0.000000
     -0.000245       0.000423       0.000000
     -0.000245       0.000510       0.000000
     -0.000325       0.000513       0.000000
     -0.000316       0.000426       0.000000
     -0.000245       0.000510       0.000000
     -0.000241       0.000619       0.000000
     -0.000328       0.000625       0.000000
     -0.000325       0.000513       0.000000
     -0.000316       0.000426       0.000000
     -0.000325       0.000513       0.000000
     -0.000420       0.000521       0.000000
     -0.000394       0.000434       0.000000
     -0.000325       0.000513       0.000000
     -0.000328       0.000625       0.000000
     -0.000449       0.000631       0.000000
     -0.000420       0.000521       0.000000
     -0.000241       0.000619       0.000000
     -0.000240       0.000684       0.000000
     -0.000278       0.000692       0.000000
     -0.000280       0.000623       0.000000
     -0.000240       0.000684       0.000000
     -0.000240       0.000756       0.000000
     -0.000275       0.000772       0.000000
     -0.000278       0.000692       0.000000
     -0.000280       0.000623       0.000000
     -0.000278       0.000692       0.000000
     -0.000326       0.000696       0.000000
     -0.000328       0.000625       0.000000
     -0.000278       0.000692       0.000000
     -0.000275       0.000772       0.000000
     -0.000321       0.000782       0.000000
     -0.000326       0.000696       0.000000
     -0.000240       0.000756       0.000000
     -0.000246       0.000831       0.000000
     -0.000277       0.000860       0.000000
     -0.000275       0.000772       0.000000
     -0.000246       0.000831       0.000000
     -0.000258       0.000902       0.000000
     -0.000289       0.000945       0.000000
     -0.000277       0.000860       0.000000
     -0.000275       0.000772       0.000000
     -0.000277       0.000860       0.000000
     -0.000318       0.000887       0.000000
     -0.000321       0.000782       0.000000
     -0.000277       0.000860       0.000000
     -0.000289       0.000945       0.000000
     -0.000328       0.000995       0.000000
     -0.000318       0.000887       0.000000
     -0.000328       0.000625       0.000000
     -0.000326       0.000696       0.000000
     -0.000389       0.000698       0.000000
     -0.000386       0.000627       0.000000
     -0.000326       0.000696       0.000000
     -0.000321       0.000782       0.000000
     -0.000388       0.000786       0.000000
     -0.000389       0.000698       0.000000
     -0.000386       0.000627       0.000000
     -0.000389       0.000698       0.000000
     -0.000464       0.000702       0.000000
     -0.000449       0.000631       0.000000
     -0.000389       0.000698       0.000000
     -0.000388       0.000786       0.000000
     -0.000481       0.000789       0.000000
     -0.000464       0.000702       0.000000
     -0.000321       0.000782       0.000000
     -0.000318       0.000887       0.000000
     -0.000379       0.000905       0.000000
     -0.000388       0.000786       0.000000
     -0.000318       0.000887       0.000000
     -0.000328       0.000995       0.000000
     -0.000382       0.001061       0.000000
     -0.000379       0.000905       0.000000
     -0.000388       0.000786       0.000000
     -0.000379       0.000905       0.000000
     -0.000498       0.000910       0.000000
     -0.000481       0.000789       0.000000
     -0.000379       0.000905       0.000000
     -0.000382       0.001061       0.000000
     -0.000502       0.001203       0.000000
     -0.000498       0.000910       0.000000
      0.000000       0.000000       0.000000
      0.000000       0.000000       0.000000
      0.000009       0.000139       0.000000
      0.000038       0.000114       0.000000
      0.000000       0.000000       0.000000
      0.000000       0.000000       0.000000
     -0.000028       0.000158       0.000000
      0.000009       0.000139       0.000000
      0.000038       0.000114       0.000000
      0.000009       0.000139       0.000000
     -0.000019       0.000303       0.000000
      0.000034       0.000244       0.000000
      0.000009       0.000139       0.000000
     -0.000028       0.000158       0.000000
     -0.000085       0.000343       0.000000
     -0.000019       0.000303       0.000000
      0.000000       0.000000       0.000000
      0.000000       0.000000       0.000000
     -0.000069       0.000170       0.000000
     -0.000028       0.000158       0.000000
      0.000000       0.000000       0.000000
      0.000000       0.000000       0.000000
     -0.000114       0.000183       0.000000
     -0.000069       0.000170       0.000000
     -0.000028       0.000158       0.000000
     -0.000069       0.000170       0.000000
     -0.000156       0.000368       0.000000
     -0.000085       0.000343       0.000000
     -0.000069       0.000170       0.000000
     -0.000114       0.000183       0.000000
     -0.000232       0.000393       0.000000
     -0.000156       0.000368       0.000000
      0.000000       0.000000       0.000000
      0.000000       0.000000       0.000000
     -0.000173       0.000213       0.000000
     -0.000114       0.000183       0.000000
      0.000000       0.000000       0.000000
      0.000000       0.000000       0.000000
     -0.000267       0.000316       0.000000
     -0.000173       0.000213       0.000000
     -0.000114       0.000183       0.000000
     -0.000173       0.000213       0.000000
     -0.000317       0.000441       0.000000
     -0.000232       0.000393       0.000000
     -0.000173       0.000213       0.000000
     -0.000267       0.000316       0.000000
     -0.000408       0.000534       0.000000
     -0.000317       0.000441       0.000000
      0.000034       0.000244       0.000000
     -0.000019       0.000303       0.000000
     -0.000075       0.000492       0.000000
     -0.000001       0.000392       0.000000
     -0.000019       0.000303       0.000000
     -0.000085       0.000343       0.000000
     -0.000162       0.000550       0.000000
     -0.000075       0.000492       0.000000
     -0.000001       0.000392       0.000000
     -0.000075       0.000492       0.000000
     -0.000160       0.000710       0.000000
     -0.000065       0.000560       0.000000
     -0.000075       0.000492       0.000000
     -0.000162       0.000550       0.000000
     -0.000257       0.000775       0.000000
     -0.000160       0.000710       0.000000
     -0.000085       0.000343       0.000000
     -0.000156       0.000368       0.000000
     -0.000250       0.000582       0.000000
     -0.000162       0.000550       0.000000
     -0.000156       0.000368       0.000000
     -0.000232       0.000393       0.000000
     -0.000338       0.000611       0.000000
     -0.000250       0.000582       0.000000
     -0.000162       0.000550       0.000000
     -0.000250       0.000582       0.000000
     -0.000344       0.000802       0.000000
     -0.000257       0.000775       0.000000
     -0.000250       0.000582       0.000000
     -0.000338       0.000611       0.000000
     -0.000428       0.000825       0.000000
     -0.000344       0.000802       0.000000
     -0.000232       0.000393       0.000000
     -0.000317       0.000441       0.000000
     -0.000427       0.000657       0.000000
     -0.000338       0.000611       0.000000
     -0.000317       0.000441       0.000000
     -0.000408       0.000534       0.000000
     -0.000512       0.000732       0.000000
     -0.000427       0.000657       0.000000
     -0.000338       0.000611       0.000000
     -0.000427       0.000657       0.000000
     -0.000513       0.000860       0.000000
     -0.000428       0.000825       0.000000
     -0.000427       0.000657       0.000000
     -0.000512       0.000732       0.000000
     -0.000593       0.000916       0.000000
     -0.000513       0.000860       0.000000
     -0.000257       0.000775       0.000000
     -0.000344       0.000802       0.000000
     -0.000421       0.001015       0.000000
     -0.000356       0.001000       0.000000
     -0.000344       0.000802       0.000000
     -0.000428       0.000825       0.000000
     -0.000494       0.001030       0.000000
     -0.000421       0.001015       0.000000
     -0.000356       0.001000       0.000000
     -0.000421       0.001015       0.000000
     -0.000458       0.001215       0.000000
     -0.000409       0.001207       0.000000
     -0.000421       0.001015       0.000000
     -0.000494       0.001030       0.000000
     -0.000523       0.001228       0.000000
     -0.000458       0.001215       0.000000
     -0.000428       0.000825       0.000000
     -0.000513       0.000860       0.000000
     -0.000572       0.001054       0.000000
     -0.000494       0.001030       0.000000
     -0.000513       0.000860       0.000000
     -0.000593       0.000916       0.000000
     -0.000648       0.001089       0.000000
     -0.000572       0.001054       0.000000
     -0.000494       0.001030       0.000000
     -0.000572       0.001054       0.000000
     -0.000598       0.001243       0.000000
     -0.000523       0.001228       0.000000
     -0.000572       0.001054       0.000000
     -0.000648       0.001089       0.000000
     -0.000674       0.001255       0.000000
     -0.000598       0.001243       0.000000
     -0.000065       0.000560       0.000000
     -0.000109       0.000647       0.000000
     -0.000161       0.000764       0.000000
     -0.000110       0.000656       0.000000
     -0.000109       0.000647       0.000000
     -0.000160       0.000710       0.000000
     -0.000215       0.000832       0.000000
     -0.000161       0.000764       0.000000
     -0.000110       0.000656       0.000000
     -0.000161       0.000764       0.000000
     -0.000229       0.000899       0.000000
     -0.000170       0.000765       0.000000
     -0.000161       0.000764       0.000000
     -0.000215       0.000832       0.000000
     -0.000282       0.000962       0.000000
     -0.000229       0.000899       0.000000
     -0.000160       0.000710       0.000000
     -0.000210       0.000750       0.000000
     -0.000264       0.000869       0.000000
     -0.000215       0.000832       0.000000
     -0.000210       0.000750       0.000000
     -0.000257       0.000775       0.000000
     -0.000307       0.000889       0.000000
     -0.000264       0.000869       0.000000
     -0.000215       0.000832       0.000000
     -0.000264       0.000869       0.000000
     -0.000322       0.000988       0.000000