# vtk DataFile Version 2.0
time_10.vtk
ASCII
DATASET UNSTRUCTURED_GRID
POINTS  1152 float
      0.000000       0.000000       0.000000
      0.083333       0.000000       0.000000
      0.083333       0.083333       0.000000
      0.000000       0.083333       0.000000
      0.083333       0.000000       0.000000
      0.166667       0.000000       0.000000
      0.166667       0.083333       0.000000
      0.083333       0.083333       0.000000
      0.000000       0.083333       0.000000
      0.083333       0.083333       0.000000
      0.083333       0.166667       0.000000
      0.000000       0.166667       0.000000
      0.083333       0.083333       0.000000
      0.166667       0.083333       0.000000
      0.166667       0.166667       0.000000
      0.083333       0.166667       0.000000
      0.166667       0.000000       0.000000
      0.250000       0.000000       0.000000
      0.250000       0.083333       0.000000
      0.166667       0.083333       0.000000
      0.250000       0.000000       0.000000
      0.333333       0.000000       0.000000
      0.333333       0.083333       0.000000
      0.250000       0.083333       0.000000
      0.166667       0.083333       0.000000
      0.250000       0.083333       0.000000
      0.250000       0.166667       0.000000
      0.166667       0.166667       0.000000
      0.250000       0.083333       0.000000
      0.333333       0.083333       0.000000
      0.333333       0.166667       0.000000
      0.250000       0.166667       0.000000
      0.333333       0.000000       0.000000
      0.416667      -0.000000       0.000000
      0.416667       0.083333       0.000000
      0.333333       0.083333       0.000000
      0.416667      -0.000000       0.000000
      0.500000       0.000000       0.000000
      0.500000       0.083333       0.000000
      0.416667       0.083333       0.000000
      0.333333       0.083333       0.000000
      0.416667       0.083333       0.000000
      0.416667       0.166667       0.000000
      0.333333       0.166667       0.000000
      0.416667       0.083333       0.000000
      0.500000       0.083333       0.000000
      0.500000       0.166667       0.000000
      0.416667       0.166667       0.000000
      0.000000       0.166667       0.000000
      0.083333       0.166667       0.000000
      0.083333       0.250000       0.000000
      0.000000       0.250000       0.000000
      0.083333       0.166667       0.000000
      0.166667       0.166667       0.000000
      0.166667       0.250000       0.000000
      0.083333       0.250000       0.000000
      0.000000       0.250000       0.000000
      0.083333       0.250000       0.000000
      0.083333       0.333333       0.000000
      0.000000       0.333333       0.000000
      0.083333       0.250000       0.000000
      0.166667       0.250000       0.000000
      0.166667       0.333333       0.000000
      0.083333       0.333333       0.000000
      0.166667       0.166667       0.000000
      0.250000       0.166667       0.000000
      0.250000       0.250000       0.000000
      0.166667       0.250000       0.000000
      0.250000       0.166667       0.000000
      0.333333       0.166667       0.000000
      0.333333       0.250000       0.000000
      0.250000       0.250000       0.000000
      0.166667       0.250000       0.000000
      0.250000       0.250000       0.000000
      0.250000       0.333333       0.000000
      0.166667       0.333333       0.000000
      0.250000       0.250000       0.000000
      0.333333       0.250000       0.000000
      0.333333       0.333333       0.000000
      0.250000       0.333333       0.000000
      0.333333       0.166667       0.000000
      0.416667       0.166667       0.000000
      0.416667       0.250000       0.000000
      0.333333       0.250000       0.000000
      0.416667       0.166667       0.000000
      0.500000       0.166667       0.000000
      0.500000       0.250000       0.000000
      0.416667       0.250000       0.000000
      0.333333       0.250000       0.000000
      0.416667       0.250000       0.000000
      0.416667       0.333333       0.000000
      0.333333       0.333333       0.000000
      0.416667       0.250000       0.000000
      0.500000       0.250000       0.000000
      0.500000       0.333333       0.000000
      0.416667       0.333333       0.000000
      0.000000       0.333333       0.000000
      0.083333       0.333333       0.000000
      0.083333       0.416667       0.000000
     -0.000000       0.416667       0.000000
      0.083333       0.333333       0.000000
      0.166667       0.333333       0.000000
      0.166667       0.416667       0.000000
      0.083333       0.416667       0.000000
     -0.000000       0.416667       0.000000
      0.083333       0.416667       0.000000
      0.083333       0.500000       0.000000
      0.000000       0.500000       0.000000
      0.083333       0.416667       0.000000
      0.166667       0.416667       0.000000
      0.166667       0.500000       0.000000
      0.083333       0.500000       0.000000
      0.166667       0.333333       0.000000
      0.250000       0.333333       0.000000
      0.250000       0.416667       0.000000
      0.166667       0.416667       0.000000
      0.250000       0.333333       0.000000
      0.333333       0.333333       0.000000
      0.333333       0.416667       0.000000
      0.250000       0.416667       0.000000
      0.166667       0.416667       0.000000
      0.250000       0.416667       0.000000
      0.250000       0.500000       0.000000
      0.166667       0.500000       0.000000
      0.250000       0.416667       0.000000
      0.333333       0.416667       0.000000
      0.333333       0.500000       0.000000
      0.250000       0.500000       0.000000
      0.333333       0.333333       0.000000
      0.375000       0.333333       0.000000
      0.375000       0.375000       0.000000
      0.333333       0.375000       0.000000
      0.375000       0.333333       0.000000
      0.416667       0.333333       0.000000
      0.416667       0.375000       0.000000
      0.375000       0.375000       0.000000
      0.333333       0.375000       0.000000
      0.375000       0.375000       0.000000
      0.375000       0.416667       0.000000
      0.333333       0.416667       0.000000
      0.375000       0.375000       0.000000
      0.416667       0.375000       0.000000
      0.416667       0.416667       0.000000
      0.375000       0.416667       0.000000
      0.416667       0.333333       0.000000
      0.458333       0.333333       0.000000
      0.458333       0.375000       0.000000
      0.416667       0.375000       0.000000
      0.458333       0.333333       0.000000
      0.500000       0.333333       0.000000
      0.500000       0.375000       0.000000
      0.458333       0.375000       0.000000
      0.416667       0.375000       0.000000
      0.458333       0.375000       0.000000
      0.458333       0.416667       0.000000
      0.416667       0.416667       0.000000
      0.458333       0.375000       0.000000
      0.500000       0.375000       0.000000
      0.500000       0.416667       0.000000
      0.458333       0.416667       0.000000
      0.333333       0.416667       0.000000
      0.375000       0.416667       0.000000
      0.375000       0.458333       0.000000
      0.333333       0.458333       0.000000
      0.375000       0.416667       0.000000
      0.416667       0.416667       0.000000
      0.416667       0.458333       0.000000
      0.375000       0.458333       0.000000
      0.333333       0.458333       0.000000
      0.375000       0.458333       0.000000
      0.375000       0.500000       0.000000
      0.333333       0.500000       0.000000
      0.375000       0.458333       0.000000
      0.416667       0.458333       0.000000
      0.416667       0.500000       0.000000
      0.375000       0.500000       0.000000
      0.416667       0.416667       0.000000
      0.437500       0.416667       0.000000
      0.437500       0.437500       0.000000
      0.416667       0.437500       0.000000
      0.437500       0.416667       0.000000
      0.458333       0.416667       0.000000
      0.458333       0.437500       0.000000
      0.437500       0.437500       0.000000
      0.416667       0.437500       0.000000
      0.437500       0.437500       0.000000
      0.437500       0.458333       0.000000
      0.416667       0.458333       0.000000
      0.437500       0.437500       0.000000
      0.458333       0.437500       0.000000
      0.458333       0.458333       0.000000
      0.437500       0.458333       0.000000
      0.458333       0.416667       0.000000
      0.479167       0.416667       0.000000
      0.479167       0.437500       0.000000
      0.458333       0.437500       0.000000
      0.479167       0.416667       0.000000
      0.500000       0.416667       0.000000
      0.500000       0.437500       0.000000
      0.479167       0.437500       0.000000
      0.458333       0.437500       0.000000
      0.479167       0.437500       0.000000
      0.479167       0.458333       0.000000
      0.458333       0.458333       0.000000
      0.479167       0.437500       0.000000
      0.500000       0.437500       0.000000
      0.500000       0.458333       0.000000
      0.479167       0.458333       0.000000
      0.416667       0.458333       0.000000
      0.437500       0.458333       0.000000
      0.437500       0.479167       0.000000
      0.416667       0.479167       0.000000
      0.437500       0.458333       0.000000
      0.458333       0.458333       0.000000
      0.458333       0.479167       0.000000
      0.437500       0.479167       0.000000
      0.416667       0.479167       0.000000
      0.437500       0.479167       0.000000
      0.437500       0.500000       0.000000
      0.416667       0.500000       0.000000
[...]
POINT_DATA  1152
VECTORS U float 
      0.000000       0.000000       0.000000
      0.000000       0.000000       0.000000
      0.000073      -0.000015       0.000000
      0.000054      -0.000015       0.000000
      0.000000       0.000000       0.000000
      0.000000       0.000000       0.000000
      0.000092       0.000015       0.000000
      0.000073      -0.000015       0.000000
      0.000054      -0.000015       0.000000
      0.000073      -0.000015       0.000000
      0.000081      -0.000040       0.000000
      0.000057      -0.000083       0.000000
      0.000073      -0.000015       0.000000
      0.000092       0.000015       0.000000
      0.000103       0.000019       0.000000
      0.000081      -0.000040       0.000000
      0.000000       0.000000       0.000000
      0.000000       0.000000       0.000000
      0.000110       0.000055       0.000000
      0.000092       0.000015       0.000000
      0.000000       0.000000       0.000000
      0.000000       0.000000       0.000000
      0.000119       0.000106       0.000000
      0.000110       0.000055       0.000000
      0.000092       0.000015       0.000000
      0.000110       0.000055       0.000000
      0.000126       0.000099       0.000000
      0.000103       0.000019       0.000000
      0.000110       0.000055       0.000000
      0.000119       0.000106       0.000000
      0.000140       0.000209       0.000000
      0.000126       0.000099       0.000000
      0.000000       0.000000       0.000000
      0.000000       0.000000       0.000000
      0.000111       0.000169       0.000000
      0.000119       0.000106       0.000000
      0.000000       0.000000       0.000000
      0.000000       0.000000       0.000000
      0.000077       0.000235       0.000000
      0.000111       0.000169       0.000000
      0.000119       0.000106       0.000000
      0.000111       0.000169       0.000000
      0.000125       0.000351       0.000000
      0.000140       0.000209       0.000000
      0.000111       0.000169       0.000000
      0.000077       0.000235       0.000000
      0.000063       0.000505       0.000000
      0.000125       0.000351       0.000000
      0.000057      -0.000083       0.000000
      0.000081      -0.000040       0.000000
      0.000010      -0.000070       0.000000
     -0.000013      -0.000159       0.000000
      0.000081      -0.000040       0.000000
      0.000103       0.000019       0.000000
      0.000030       0.000016       0.000000
      0.000010      -0.000070       0.000000
     -0.000013      -0.000159       0.000000
      0.000010      -0.000070       0.000000
     -0.000127      -0.000096       0.000000
     -0.000142      -0.000217       0.000000
      0.000010      -0.000070       0.000000
      0.000030       0.000016       0.000000
     -0.000116       0.000009       0.000000
     -0.000127      -0.000096       0.000000
      0.000103       0.000019       0.000000
      0.000126       0.000099       0.000000
      0.000055       0.000130       0.000000
      0.000030       0.000016       0.000000
      0.000126       0.000099       0.000000
      0.000140       0.000209       0.000000
      0.000074       0.000300       0.000000
      0.000055       0.000130       0.000000
      0.000030       0.000016       0.000000
      0.000055       0.000130       0.000000
     -0.000100       0.000145       0.000000
     -0.000116       0.000009       0.000000
      0.000055       0.000130       0.000000
      0.000074       0.000300       0.000000
     -0.000080       0.000362       0.000000
     -0.000100       0.000145       0.000000
      0.000140       0.000209       0.000000
      0.000125       0.000351       0.000000
      0.000062       0.000537       0.000000
      0.000074       0.000300       0.000000
      0.000125       0.000351       0.000000
      0.000063       0.000505       0.000000
     -0.000018       0.000810       0.000000
      0.000062       0.000537       0.000000
      0.000074       0.000300       0.000000
      0.000062       0.000537       0.000000
     -0.000077       0.000710       0.000000
     -0.000080       0.000362       0.000000
      0.000062       0.000537       0.000000
     -0.000018       0.000810       0.000000
     -0.000163       0.001156       0.000000
     -0.000077       0.000710       0.000000
     -0.000142      -0.000217       0.000000
     -0.000127      -0.000096       0.000000
     -0.000297      -0.000109       0.000000
     -0.000299      -0.000244       0.000000
     -0.000127      -0.000096       0.000000
     -0.000116       0.000009       0.000000
     -0.000306       0.000007       0.000000
     -0.000297      -0.000109       0.000000
     -0.000299      -0.000244       0.000000
     -0.000297      -0.000109       0.000000
     -0.000451      -0.000108       0.000000
     -0.000449      -0.000245       0.000000
     -0.000297      -0.000109       0.000000
     -0.000306       0.000007       0.000000
     -0.000479       0.000020       0.000000
     -0.000451      -0.000108       0.000000
     -0.000116       0.000009       0.000000
     -0.000100       0.000145       0.000000
     -0.000324       0.000151       0.000000
     -0.000306       0.000007       0.000000
     -0.000100       0.000145       0.000000
     -0.000080       0.000362       0.000000
     -0.000341       0.000389       0.000000
     -0.000324       0.000151       0.000000
     -0.000306       0.000007       0.000000
     -0.000324       0.000151       0.000000
     -0.000553       0.000177       0.000000
     -0.000479       0.000020       0.000000
     -0.000324       0.000151       0.000000
     -0.000341       0.000389       0.000000
     -0.000683       0.000424       0.000000
     -0.000553       0.000177       0.000000
     -0.000080       0.000362       0.000000
     -0.000073       0.000518       0.000000
     -0.000188       0.000553       0.000000
     -0.000196       0.000379       0.000000
     -0.000073       0.000518       0.000000
     -0.000077       0.000710       0.000000
     -0.000186       0.000779       0.000000
     -0.000188       0.000553       0.000000
     -0.000196       0.000379       0.000000
     -0.000188       0.000553       0.000000
     -0.000344       0.000573       0.000000
     -0.000341       0.000389       0.000000
     -0.000188       0.000553       0.000000
     -0.000186       0.000779       0.000000
     -0.000340       0.000826       0.000000
     -0.000344       0.000573       0.000000
     -0.000077       0.000710       0.000000
     -0.000103       0.000930       0.000000
     -0.000204       0.001055       0.000000
     -0.000186       0.000779       0.000000
     -0.000103       0.000930       0.000000
     -0.000163       0.001156       0.000000
     -0.000265       0.001353       0.000000
     -0.000204       0.001055       0.000000
     -0.000186       0.000779       0.000000
     -0.000204       0.001055       0.000000
     -0.000343       0.001169       0.000000
     -0.000340       0.000826       0.000000
     -0.000204       0.001055       0.000000
     -0.000265       0.001353       0.000000
     -0.000401       0.001575       0.000000
     -0.000343       0.001169       0.000000
     -0.000341       0.000389       0.000000
     -0.000344       0.000573       0.000000
     -0.000544       0.000585       0.000000
     -0.000511       0.000400       0.000000
     -0.000344       0.000573       0.000000
     -0.000340       0.000826       0.000000
     -0.000568       0.000848       0.000000
     -0.000544       0.000585       0.000000
     -0.000511       0.000400       0.000000
     -0.000544       0.000585       0.000000
     -0.000770       0.000612       0.000000
     -0.000683       0.000424       0.000000
     -0.000544       0.000585       0.000000
     -0.000568       0.000848       0.000000
     -0.000874       0.000874       0.000000
     -0.000770       0.000612       0.000000
     -0.000340       0.000826       0.000000
     -0.000339       0.000986       0.000000
     -0.000440       0.001010       0.000000
     -0.000443       0.000839       0.000000
     -0.000339       0.000986       0.000000
     -0.000343       0.001169       0.000000
     -0.000439       0.001215       0.000000
     -0.000440       0.001010       0.000000
     -0.000443       0.000839       0.000000
     -0.000440       0.001010       0.000000
     -0.000571       0.001024       0.000000
     -0.000568       0.000848       0.000000
     -0.000440       0.001010       0.000000
     -0.000439       0.001215       0.000000
     -0.000567       0.001246       0.000000
     -0.000571       0.001024       0.000000
     -0.000343       0.001169       0.000000
     -0.000362       0.001371       0.000000
     -0.000451       0.001454       0.000000
     -0.000439       0.001215       0.000000
     -0.000362       0.001371       0.000000
     -0.000401       0.001575       0.000000
     -0.000489       0.001705       0.000000
     -0.000451       0.001454       0.000000
     -0.000439       0.001215       0.000000
     -0.000451       0.001454       0.000000
     -0.000566       0.001530       0.000000
     -0.000567       0.001246       0.000000
     -0.000451       0.001454       0.000000
     -0.000489       0.001705       0.000000
     -0.000601       0.001858       0.000000
     -0.000566       0.001530       0.000000
     -0.000568       0.000848       0.000000
     -0.000571       0.001024       0.000000
     -0.000739       0.001032       0.000000
     -0.000715       0.000856       0.000000
     -0.000571       0.001024       0.000000
     -0.000567       0.001246       0.000000
     -0.000752       0.001259       0.000000
     -0.000739       0.001032       0.000000
     -0.000715       0.000856       0.000000
     -0.000739       0.001032       0.000000
     -0.000934       0.001050       0.000000
     -0.000874       0.000874       0.000000
     -0.000739       0.001032       0.000000
     -0.000752       0.001259       0.000000
     -0.001002       0.001275       0.000000
     -0.000934       0.001050       0.000000
     -0.000567       0.001246       0.000000
     -0.000565       0.001380       0.000000
     -0.000647       0.001396       0.000000
     -0.000651       0.001255       0.000000
     -0.000565       0.001380       0.000000
     -0.000566       0.001530       0.000000
     -0.000643       0.001562       0.000000
     -0.000647       0.001396       0.000000
     -0.000651       0.001255       0.000000
     -0.000647       0.001396       0.000000
     -0.000751       0.001404       0.000000
     -0.000752       0.001259       0.000000
     -0.000647       0.001396       0.000000
     -0.000643       0.001562       0.000000
     -0.000744       0.001583       0.000000
     -0.000751       0.001404       0.000000
     -0.000566       0.001530       0.000000
     -0.000577       0.001693       0.000000
     -0.000647       0.001752       0.000000
     -0.000643       0.001562       0.000000
     -0.000577       0.001693       0.000000
     -0.000601       0.001858       0.000000
     -0.000671       0.001952       0.000000
     -0.000647       0.001752       0.000000
     -0.000643       0.001562       0.000000
     -0.000647       0.001752       0.000000
     -0.000737       0.001810       0.000000
     -0.000744       0.001583       0.000000
     -0.000647       0.001752       0.000000
     -0.000671       0.001952       0.000000
     -0.000758       0.002070       0.000000
     -0.000737       0.001810       0.000000
     -0.000752       0.001259       0.000000
     -0.000751       0.001404       0.000000
     -0.000884       0.001408       0.000000
     -0.000871       0.001264       0.000000
     -0.000751       0.001404       0.000000
     -0.000744       0.001583       0.000000
     -0.000888       0.001590       0.000000
     -0.000884       0.001408       0.000000
     -0.000871       0.001264       0.000000
     -0.000884       0.001408       0.000000
     -0.001041       0.001419       0.000000
     -0.001002       0.001275       0.000000
     -0.000884       0.001408       0.000000
     -0.000888       0.001590       0.000000
     -0.001087       0.001601       0.000000
     -0.001041       0.001419       0.000000
     -0.000744       0.001583       0.000000
     -0.000737       0.001810       0.000000
     -0.000873       0.001850       0.000000
     -0.000888       0.001590       0.000000
     -0.000737       0.001810       0.000000
     -0.000758       0.002070       0.000000
     -0.000883       0.002242       0.000000
     -0.000873       0.001850       0.000000
     -0.000888       0.001590       0.000000
     -0.000873       0.001850       0.000000
     -0.001149       0.001872       0.000000
     -0.001087       0.001601       0.000000
     -0.000873       0.001850       0.000000
     -0.000883       0.002242       0.000000
     -0.001221       0.002712       0.000000
     -0.001149       0.001872       0.000000
      0.000000       0.000000       0.000000
      0.000000       0.000000       0.000000
      0.000017       0.000293       0.000000
      0.000077       0.000235       0.000000
      0.000000       0.000000       0.000000
      0.000000       0.000000       0.000000
     -0.000062       0.000338       0.000000
      0.000017       0.000293       0.000000
      0.000077       0.000235       0.000000
      0.000017       0.000293       0.000000
     -0.000046       0.000640       0.000000
      0.000063       0.000505       0.000000
      0.000017       0.000293       0.000000
     -0.000062       0.000338       0.000000
     -0.000190       0.000739       0.000000
     -0.000046       0.000640       0.000000
      0.000000       0.000000       0.000000
      0.000000       0.000000       0.000000
     -0.000151       0.000372       0.000000
     -0.000062       0.000338       0.000000
      0.000000       0.000000       0.000000
      0.000000       0.000000       0.000000
     -0.000254       0.000411       0.000000
     -0.000151       0.000372       0.000000
     -0.000062       0.000338       0.000000
     -0.000151       0.000372       0.000000
     -0.000351       0.000812       0.000000
     -0.000190       0.000739       0.000000
     -0.000151       0.000372       0.000000
     -0.000254       0.000411       0.000000
     -0.000527       0.000887       0.000000
     -0.000351       0.000812       0.000000
      0.000000       0.000000       0.000000
      0.000000       0.000000       0.000000
     -0.000395       0.000493       0.000000
     -0.000254       0.000411       0.000000
      0.000000       0.000000       0.000000
      0.000000       0.000000       0.000000
     -0.000611       0.000744       0.000000
     -0.000395       0.000493       0.000000
     -0.000254       0.000411       0.000000
     -0.000395       0.000493       0.000000
     -0.000724       0.001014       0.000000
     -0.000527       0.000887       0.000000
     -0.000395       0.000493       0.000000
     -0.000611       0.000744       0.000000
     -0.000930       0.001238       0.000000
     -0.000724       0.001014       0.000000
      0.000063       0.000505       0.000000
     -0.000046       0.000640       0.000000
     -0.000173       0.001045       0.000000
     -0.000018       0.000810       0.000000
     -0.000046       0.000640       0.000000
     -0.000190       0.000739       0.000000
     -0.000370       0.001201       0.000000
     -0.000173       0.001045       0.000000
     -0.000018       0.000810       0.000000
     -0.000173       0.001045       0.000000
     -0.000367       0.001524       0.000000
     -0.000163       0.001156       0.000000
     -0.000173       0.001045       0.000000
     -0.000370       0.001201       0.000000
     -0.000596       0.001713       0.000000
     -0.000367       0.001524       0.000000
     -0.000190       0.000739       0.000000
     -0.000351       0.000812       0.000000
     -0.000575       0.001297       0.000000
     -0.000370       0.001201       0.000000
     -0.000351       0.000812       0.000000
     -0.000527       0.000887       0.000000
     -0.000779       0.001382       0.000000
     -0.000575       0.001297       0.000000
     -0.000370       0.001201       0.000000
     -0.000575       0.001297       0.000000
     -0.000802       0.001800       0.000000
     -0.000596       0.001713       0.000000
     -0.000575       0.001297       0.000000
     -0.000779       0.001382       0.000000
     -0.000996       0.001867       0.000000
     -0.000802       0.001800       0.000000
     -0.000527       0.000887       0.000000
     -0.000724       0.001014       0.000000
     -0.000981       0.001501       0.000000
     -0.000779       0.001382       0.000000
     -0.000724       0.001014       0.000000
     -0.000930       0.001238       0.000000
     -0.001173       0.001682       0.000000
     -0.000981       0.001501       0.000000
     -0.000779       0.001382       0.000000
     -0.000981       0.001501       0.000000
     -0.001186       0.001955       0.000000
     -0.000996       0.001867       0.000000
     -0.000981       0.001501       0.000000
     -0.001173       0.001682       0.000000
     -0.001364       0.002089       0.000000
     -0.001186       0.001955       0.000000
     -0.000596       0.001713       0.000000
     -0.000802       0.001800       0.000000
     -0.000994       0.002286       0.000000
     -0.000842       0.002240       0.000000
     -0.000802       0.001800       0.000000
     -0.000996       0.001867       0.000000
     -0.001156       0.002327       0.000000
     -0.000994       0.002286       0.000000
     -0.000842       0.002240       0.000000
     -0.000994       0.002286       0.000000
     -0.001082       0.002737       0.000000
     -0.000978       0.002718       0.000000
     -0.000994       0.002286       0.000000
     -0.001156       0.002327       0.000000
     -0.001225       0.002765       0.000000
     -0.001082       0.002737       0.000000
     -0.000996       0.001867       0.000000
     -0.001186       0.001955       0.000000
     -0.001327       0.002384       0.000000
     -0.001156       0.002327       0.000000
     -0.001186       0.001955       0.000000
     -0.001364       0.002089       0.000000
     -0.001494       0.002464       0.000000
     -0.001327       0.002384       0.000000
     -0.001156       0.002327       0.000000
     -0.001327       0.002384       0.000000
     -0.001389       0.002797       0.000000
     -0.001225       0.002765       0.000000
     -0.001327       0.002384       0.000000
     -0.001494       0.002464       0.000000
     -0.001552       0.002823       0.000000
     -0.001389       0.002797       0.000000
     -0.000163       0.001156       0.000000
     -0.000255       0.001361       0.000000
     -0.000372       0.001614       0.000000
     -0.000265       0.001353       0.000000
     -0.000255       0.001361       0.000000
     -0.000367       0.001524       0.000000
     -0.000498       0.001801       0.000000
     -0.000372       0.001614       0.000000
     -0.000265       0.001353       0.000000
     -0.000372       0.001614       0.000000
     -0.000529       0.001915       0.000000
     -0.000401       0.001575       0.000000
     -0.000372       0.001614       0.000000
     -0.000498       0.001801       0.000000
     -0.000660       0.002106       0.000000
     -0.000529       0.001915       0.000000
     -0.000367       0.001524       0.000000
     -0.000484       0.001637       0.000000
     -0.000616       0.001914       0.000000
     -0.000498       0.001801       0.000000
     -0.000484       0.001637       0.000000
     -0.000596       0.001713       0.000000
     -0.000721       0.001979       0.000000
     -0.000616       0.001914       0.000000
     -0.000498       0.001801       0.000000
     -0.000616       0.001914       0.000000
     -0.000760       0.002196       0.000000