# vtk DataFile Version 2.0
time_10.vtk
ASCII
DATASET UNSTRUCTURED_GRID
POINTS  1176 float
      0.000000       0.000000       0.000000
      0.083333       0.000000       0.000000
      0.083333       0.083333       0.000000
      0.000000       0.083333       0.000000
      0.083333       0.000000       0.000000
      0.166667       0.000000       0.000000
      0.166667       0.083333       0.000000
      0.083333       0.083333       0.000000
      0.000000       0.083333       0.000000
      0.083333       0.083333       0.000000
      0.083333       0.166667       0.000000
      0.000000       0.166667       0.000000
      0.083333       0.083333       0.000000
      0.166667       0.083333       0.000000
      0.166667       0.166667       0.000000
      0.083333       0.166667       0.000000
      0.166667       0.000000       0.000000
      0.250000       0.000000       0.000000
      0.250000       0.083333       0.000000
      0.166667       0.083333       0.000000
      0.250000       0.000000       0.000000
      0.333333       0.000000       0.000000
      0.333333       0.083333       0.000000
      0.250000       0.083333       0.000000
      0.166667       0.083333       0.000000
      0.250000       0.083333       0.000000
      0.250000       0.166667       0.000000
      0.166667       0.166667       0.000000
      0.250000       0.083333       0.000000
      0.333333       0.083333       0.000000
      0.333333       0.166667       0.000000
      0.250000       0.166667       0.000000
      0.333333       0.000000       0.000000
      0.416667      -0.000000       0.000000
      0.416667       0.083333       0.000000
      0.333333       0.083333       0.000000
      0.416667      -0.000000       0.000000
      0.500000       0.000000       0.000000
      0.500000       0.083333       0.000000
      0.416667       0.083333       0.000000
      0.333333       0.083333       0.000000
      0.416667       0.083333       0.000000
      0.416667       0.166667       0.000000
      0.333333       0.166667       0.000000
      0.416667       0.083333       0.000000
      0.500000       0.083333       0.000000
      0.500000       0.166667       0.000000
      0.416667       0.166667       0.000000
      0.000000       0.166667       0.000000
      0.083333       0.166667       0.000000
      0.083333       0.250000       0.000000
      0.000000       0.250000       0.000000
      0.083333       0.166667       0.000000
      0.166667       0.166667       0.000000
      0.166667       0.250000       0.000000
      0.083333       0.250000       0.000000
      0.000000       0.250000       0.000000
      0.083333       0.250000       0.000000
      0.083333       0.333333       0.000000
      0.000000       0.333333       0.000000
      0.083333       0.250000       0.000000
      0.166667       0.250000       0.000000
      0.166667       0.333333       0.000000
      0.083333       0.333333       0.000000
      0.166667       0.166667       0.000000
      0.250000       0.166667       0.000000
      0.250000       0.250000       0.000000
      0.166667       0.250000       0.000000
      0.250000       0.166667       0.000000
      0.333333       0.166667       0.000000
      0.333333       0.250000       0.000000
      0.250000       0.250000       0.000000
      0.166667       0.250000       0.000000
      0.250000       0.250000       0.000000
      0.250000       0.333333       0.000000
      0.166667       0.333333       0.000000
      0.250000       0.250000       0.000000
      0.333333       0.250000       0.000000
      0.333333       0.333333       0.000000
      0.250000       0.333333       0.000000
      0.333333       0.166667       0.000000
      0.416667       0.166667       0.000000
      0.416667       0.250000       0.000000
      0.333333       0.250000       0.000000
      0.416667       0.166667       0.000000
      0.500000       0.166667       0.000000
      0.500000       0.250000       0.000000
      0.416667       0.250000       0.000000
      0.333333       0.250000       0.000000
      0.416667       0.250000       0.000000
      0.416667       0.333333       0.000000
      0.333333       0.333333       0.000000
      0.416667       0.250000       0.000000
      0.500000       0.250000       0.000000
      0.500000       0.333333       0.000000
      0.416667       0.333333       0.000000
      0.000000       0.333333       0.000000
      0.083333       0.333333       0.000000
      0.083333       0.416667       0.000000
     -0.000000       0.416667       0.000000
      0.083333       0.333333       0.000000
      0.166667       0.333333       0.000000
      0.166667       0.416667       0.000000
      0.083333       0.416667       0.000000
     -0.000000       0.416667       0.000000
      0.083333       0.416667       0.000000
      0.083333       0.500000       0.000000
      0.000000       0.500000       0.000000
      0.083333       0.416667       0.000000
      0.166667       0.416667       0.000000
      0.166667       0.500000       0.000000
      0.083333       0.500000       0.000000
      0.166667       0.333333       0.000000
      0.250000       0.333333       0.000000
      0.250000       0.416667       0.000000
      0.166667       0.416667       0.000000
      0.250000       0.333333       0.000000
      0.333333       0.333333       0.000000
      0.333333       0.416667       0.000000
      0.250000       0.416667       0.000000
      0.166667       0.416667       0.000000
      0.250000       0.416667       0.000000
      0.250000       0.500000       0.000000
      0.166667       0.500000       0.000000
      0.250000       0.416667       0.000000
      0.333333       0.416667       0.000000
      0.333333       0.500000       0.000000
      0.250000       0.500000       0.000000
      0.333333       0.333333       0.000000
      0.375000       0.333333       0.000000
      0.375000       0.375000       0.000000
      0.333333       0.375000       0.000000
      0.375000       0.333333       0.000000
      0.416667       0.333333       0.000000
      0.416667       0.375000       0.000000
      0.375000       0.375000       0.000000
      0.333333       0.375000       0.000000
      0.375000       0.375000       0.000000
      0.375000       0.416667       0.000000
      0.333333       0.416667       0.000000
      0.375000       0.375000       0.000000
      0.416667       0.375000       0.000000
      0.416667       0.416667       0.000000
      0.375000       0.416667       0.000000
      0.416667       0.333333       0.000000
      0.458333       0.333333       0.000000
      0.458333       0.375000       0.000000
      0.416667       0.375000       0.000000
      0.458333       0.333333       0.000000
      0.500000       0.333333       0.000000
      0.500000       0.375000       0.000000
      0.458333       0.375000       0.000000
      0.416667       0.375000       0.000000
      0.458333       0.375000       0.000000
      0.458333       0.416667       0.000000
      0.416667       0.416667       0.000000
      0.458333       0.375000       0.000000
      0.500000       0.375000       0.000000
      0.500000       0.416667       0.000000
      0.458333       0.416667       0.000000
      0.333333       0.416667       0.000000
      0.375000       0.416667       0.000000
      0.375000       0.458333       0.000000
      0.333333       0.458333       0.000000
      0.375000       0.416667       0.000000
      0.416667       0.416667       0.000000
      0.416667       0.458333       0.000000
      0.375000       0.458333       0.000000
      0.333333       0.458333       0.000000
      0.375000       0.458333       0.000000
      0.375000       0.500000       0.000000
      0.333333       0.500000       0.000000
      0.375000       0.458333       0.000000
      0.416667       0.458333       0.000000
      0.416667       0.500000       0.000000
      0.375000       0.500000       0.000000
      0.416667       0.416667       0.000000
      0.437500       0.416667       0.000000
      0.437500       0.437500       0.000000
      0.416667       0.437500       0.000000
      0.437500       0.416667       0.000000
      0.458333       0.416667       0.000000
      0.458333       0.437500       0.000000
      0.437500       0.437500       0.000000
      0.416667       0.437500       0.000000
      0.437500       0.437500       0.000000
      0.437500       0.458333       0.000000
      0.416667       0.458333       0.000000
      0.437500       0.437500       0.000000
      0.458333       0.437500       0.000000
      0.458333       0.458333       0.000000
      0.437500       0.458333       0.000000
      0.458333       0.416667       0.000000
      0.479167       0.416667       0.000000
      0.479167       0.437500       0.000000
      0.458333       0.437500       0.000000
      0.479167       0.416667       0.000000
      0.500000       0.416667       0.000000
      0.500000       0.437500       0.000000
      0.479167       0.437500       0.000000
      0.458333       0.437500       0.000000
      0.479167       0.437500       0.000000
      0.479167       0.458333       0.000000
      0.458333       0.458333       0.000000
      0.479167       0.437500       0.000000
      0.500000       0.437500       0.000000
      0.500000       0.458333       0.000000
      0.479167       0.458333       0.000000
      0.416667       0.458333       0.000000
      0.437500       0.458333       0.000000
      0.437500       0.479167       0.000000
      0.416667       0.479167       0.000000
      0.437500       0.458333       0.000000
      0.458333       0.458333       0.000000
      0.458333       0.479167       0.000000
      0.437500       0.479167       0.000000
      0.416667       0.479167       0.000000
      0.437500       0.479167       0.000000
      0.437500       0.500000       0.000000
      0.416667       0.500000       0.000000
[...]
POINT_DATA  1176
VECTORS U float 
      0.000000       0.000000       0.000000
      0.000000       0.000000       0.000000
      0.000058      -0.000021       0.000000
      0.000038      -0.000028       0.000000
      0.000000       0.000000       0.000000
      0.000000       0.000000       0.000000
      0.000079       0.000007       0.000000
      0.000058      -0.000021       0.000000
      0.000038      -0.000028       0.000000
      0.000058      -0.000021       0.000000
      0.000055      -0.000052       0.000000
      0.000029      -0.000099       0.000000
      0.000058      -0.000021       0.000000
      0.000079       0.000007       0.000000
      0.000078       0.000004       0.000000
      0.000055      -0.000052       0.000000
      0.000000       0.000000       0.000000
      0.000000       0.000000       0.000000
      0.000098       0.000045       0.000000
      0.000079       0.000007       0.000000
      0.000000       0.000000       0.000000
      0.000000       0.000000       0.000000
      0.000112       0.000095       0.000000
      0.000098       0.000045       0.000000
      0.000079       0.000007       0.000000
      0.000098       0.000045       0.000000
      0.000104       0.000078       0.000000
      0.000078       0.000004       0.000000
      0.000098       0.000045       0.000000
      0.000112       0.000095       0.000000
      0.000124       0.000182       0.000000
      0.000104       0.000078       0.000000
      0.000000       0.000000       0.000000
      0.000000       0.000000       0.000000
      0.000111       0.000157       0.000000
      0.000112       0.000095       0.000000
      0.000000       0.000000       0.000000
      0.000000       0.000000       0.000000
      0.000084       0.000226       0.000000
      0.000111       0.000157       0.000000
      0.000112       0.000095       0.000000
      0.000111       0.000157       0.000000
      0.000120       0.000321       0.000000
      0.000124       0.000182       0.000000
      0.000111       0.000157       0.000000
      0.000084       0.000226       0.000000
      0.000071       0.000483       0.000000
      0.000120       0.000321       0.000000
      0.000029      -0.000099       0.000000
      0.000055      -0.000052       0.000000
     -0.000023      -0.000086       0.000000
     -0.000046      -0.000175       0.000000
      0.000055      -0.000052       0.000000
      0.000078       0.000004       0.000000
     -0.000002      -0.000004       0.000000
     -0.000023      -0.000086       0.000000
     -0.000046      -0.000175       0.000000
     -0.000023      -0.000086       0.000000
     -0.000161      -0.000113       0.000000
     -0.000174      -0.000231       0.000000
     -0.000023      -0.000086       0.000000
     -0.000002      -0.000004       0.000000
     -0.000150      -0.000015       0.000000
     -0.000161      -0.000113       0.000000
      0.000078       0.000004       0.000000
      0.000104       0.000078       0.000000
      0.000023       0.000099       0.000000
     -0.000002      -0.000004       0.000000
      0.000104       0.000078       0.000000
      0.000124       0.000182       0.000000
      0.000047       0.000255       0.000000
      0.000023       0.000099       0.000000
     -0.000002      -0.000004       0.000000
      0.000023       0.000099       0.000000
     -0.000137       0.000108       0.000000
     -0.000150      -0.000015       0.000000
      0.000023       0.000099       0.000000
      0.000047       0.000255       0.000000
     -0.000119       0.000302       0.000000
     -0.000137       0.000108       0.000000
      0.000124       0.000182       0.000000
      0.000120       0.000321       0.000000
      0.000047       0.000483       0.000000
      0.000047       0.000255       0.000000
      0.000120       0.000321       0.000000
      0.000071       0.000483       0.000000
     -0.000014       0.000766       0.000000
      0.000047       0.000483       0.000000
      0.000047       0.000255       0.000000
      0.000047       0.000483       0.000000
     -0.000110       0.000621       0.000000
     -0.000119       0.000302       0.000000
      0.000047       0.000483       0.000000
     -0.000014       0.000766       0.000000
     -0.000167       0.001074       0.000000
     -0.000110       0.000621       0.000000
     -0.000174      -0.000231       0.000000
     -0.000161      -0.000113       0.000000
     -0.000325      -0.000127       0.000000
     -0.000327      -0.000256       0.000000
     -0.000161      -0.000113       0.000000
     -0.000150      -0.000015       0.000000
     -0.000335      -0.000018       0.000000
     -0.000325      -0.000127       0.000000
     -0.000327      -0.000256       0.000000
     -0.000325      -0.000127       0.000000
     -0.000472      -0.000126       0.000000
     -0.000470      -0.000257       0.000000
     -0.000325      -0.000127       0.000000
     -0.000335      -0.000018       0.000000
     -0.000498      -0.000005       0.000000
     -0.000472      -0.000126       0.000000
     -0.000150      -0.000015       0.000000
     -0.000137       0.000108       0.000000
     -0.000356       0.000114       0.000000
     -0.000335      -0.000018       0.000000
     -0.000137       0.000108       0.000000
     -0.000119       0.000302       0.000000
     -0.000380       0.000325       0.000000
     -0.000356       0.000114       0.000000
     -0.000335      -0.000018       0.000000
     -0.000356       0.000114       0.000000
     -0.000569       0.000139       0.000000
     -0.000498      -0.000005       0.000000
     -0.000356       0.000114       0.000000
     -0.000380       0.000325       0.000000
     -0.000692       0.000362       0.000000
     -0.000569       0.000139       0.000000
     -0.000119       0.000302       0.000000
     -0.000111       0.000444       0.000000
     -0.000234       0.000470       0.000000
     -0.000238       0.000315       0.000000
     -0.000111       0.000444       0.000000
     -0.000110       0.000621       0.000000
     -0.000231       0.000672       0.000000
     -0.000234       0.000470       0.000000
     -0.000238       0.000315       0.000000
     -0.000234       0.000470       0.000000
     -0.000389       0.000486       0.000000
     -0.000380       0.000325       0.000000
     -0.000234       0.000470       0.000000
     -0.000231       0.000672       0.000000
     -0.000394       0.000705       0.000000
     -0.000389       0.000486       0.000000
     -0.000110       0.000621       0.000000
     -0.000124       0.000835       0.000000
     -0.000238       0.000930       0.000000
     -0.000231       0.000672       0.000000
     -0.000124       0.000835       0.000000
     -0.000167       0.001074       0.000000
     -0.000276       0.001234       0.000000
     -0.000238       0.000930       0.000000
     -0.000231       0.000672       0.000000
     -0.000238       0.000930       0.000000
     -0.000397       0.001004       0.000000
     -0.000394       0.000705       0.000000
     -0.000238       0.000930       0.000000
     -0.000276       0.001234       0.000000
     -0.000424       0.001397       0.000000
     -0.000397       0.001004       0.000000
     -0.000380       0.000325       0.000000
     -0.000389       0.000486       0.000000
     -0.000576       0.000500       0.000000
     -0.000538       0.000337       0.000000
     -0.000389       0.000486       0.000000
     -0.000394       0.000705       0.000000
     -0.000610       0.000725       0.000000
     -0.000576       0.000500       0.000000
     -0.000538       0.000337       0.000000
     -0.000576       0.000500       0.000000
     -0.000775       0.000528       0.000000
     -0.000692       0.000362       0.000000
     -0.000576       0.000500       0.000000
     -0.000610       0.000725       0.000000
     -0.000871       0.000753       0.000000
     -0.000775       0.000528       0.000000
     -0.000394       0.000705       0.000000
     -0.000395       0.000843       0.000000
     -0.000499       0.000859       0.000000
     -0.000495       0.000716       0.000000
     -0.000395       0.000843       0.000000
     -0.000397       0.001004       0.000000
     -0.000502       0.001029       0.000000
     -0.000499       0.000859       0.000000
     -0.000495       0.000716       0.000000
     -0.000499       0.000859       0.000000
     -0.000623       0.000870       0.000000
     -0.000610       0.000725       0.000000
     -0.000499       0.000859       0.000000
     -0.000502       0.001029       0.000000
     -0.000632       0.001047       0.000000
     -0.000623       0.000870       0.000000
     -0.000397       0.001004       0.000000
     -0.000405       0.001189       0.000000
     -0.000507       0.001234       0.000000
     -0.000502       0.001029       0.000000
     -0.000405       0.001189       0.000000
     -0.000424       0.001397       0.000000
     -0.000522       0.001476       0.000000
     -0.000507       0.001234       0.000000
     -0.000502       0.001029       0.000000
     -0.000507       0.001234       0.000000
     -0.000638       0.001268       0.000000
     -0.000632       0.001047       0.000000
     -0.000507       0.001234       0.000000
     -0.000522       0.001476       0.000000
     -0.000648       0.001553       0.000000
     -0.000638       0.001268       0.000000
     -0.000610       0.000725       0.000000
     -0.000623       0.000870       0.000000
     -0.000766       0.000881       0.000000
     -0.000738       0.000736       0.000000
     -0.000623       0.000870       0.000000
     -0.000632       0.001047       0.000000
     -0.000791       0.001060       0.000000
     -0.000766       0.000881       0.000000
     -0.000738       0.000736       0.000000
     -0.000766       0.000881       0.000000
     -0.000923       0.000899       0.000000
     -0.000871       0.000753       0.000000
     -0.000766       0.000881       0.000000
     -0.000791       0.001060       0.000000
     -0.000979       0.001077       0.000000
     -0.000923       0.000899       0.000000
     -0.000632       0.001047       0.000000
     -0.000635       0.001151       0.000000
     -0.000713       0.001159       0.000000
     -0.000708       0.001054       0.000000
     -0.000635       0.001151       0.000000
     -0.000638       0.001268       0.000000
     -0.000717       0.001280       0.000000
     -0.000713       0.001159       0.000000
     -0.000708       0.001054       0.000000
     -0.000713       0.001159       0.000000
     -0.000800       0.001166       0.000000
     -0.000791       0.001060       0.000000
     -0.000713       0.001159       0.000000
     -0.000717       0.001280       0.000000
     -0.000808       0.001290       0.000000
     -0.000800       0.001166       0.000000
     -0.000638       0.001268       0.000000
     -0.000641       0.001401       0.000000
     -0.000720       0.001422       0.000000
     -0.000717       0.001280       0.000000
     -0.000641       0.001401       0.000000
     -0.000648       0.001553       0.000000
     -0.000726       0.001590       0.000000
     -0.000720       0.001422       0.000000
     -0.000717       0.001280       0.000000
     -0.000720       0.001422       0.000000
     -0.000813       0.001439       0.000000
     -0.000808       0.001290       0.000000
     -0.000720       0.001422       0.000000
     -0.000726       0.001590       0.000000
     -0.000822       0.001630       0.000000
     -0.000813       0.001439       0.000000
     -0.000791       0.001060       0.000000
     -0.000800       0.001166       0.000000
     -0.000899       0.001173       0.000000
     -0.000882       0.001067       0.000000
     -0.000800       0.001166       0.000000
     -0.000808       0.001290       0.000000
     -0.000913       0.001297       0.000000
     -0.000899       0.001173       0.000000
     -0.000882       0.001067       0.000000
     -0.000899       0.001173       0.000000
     -0.001008       0.001184       0.000000
     -0.000979       0.001077       0.000000
     -0.000899       0.001173       0.000000
     -0.000913       0.001297       0.000000
     -0.001041       0.001311       0.000000
     -0.001008       0.001184       0.000000
     -0.000808       0.001290       0.000000
     -0.000813       0.001439       0.000000
     -0.000922       0.001454       0.000000
     -0.000913       0.001297       0.000000
     -0.000813       0.001439       0.000000
     -0.000822       0.001630       0.000000
     -0.000953       0.001700       0.000000
     -0.000922       0.001454       0.000000
     -0.000913       0.001297       0.000000
     -0.000922       0.001454       0.000000
     -0.001085       0.001497       0.000000
     -0.001041       0.001311       0.000000
     -0.000922       0.001454       0.000000
     -0.000953       0.001700       0.000000
     -0.001516       0.002940       0.000000
     -0.001085       0.001497       0.000000
      0.000000       0.000000       0.000000
      0.000000       0.000000       0.000000
      0.000029       0.000292       0.000000
      0.000084       0.000226       0.000000
      0.000000       0.000000       0.000000
      0.000000       0.000000       0.000000
     -0.000050       0.000346       0.000000
      0.000029       0.000292       0.000000
      0.000084       0.000226       0.000000
      0.000029       0.000292       0.000000
     -0.000031       0.000637       0.000000
      0.000071       0.000483       0.000000
      0.000029       0.000292       0.000000
     -0.000050       0.000346       0.000000
     -0.000178       0.000760       0.000000
     -0.000031       0.000637       0.000000
      0.000000       0.000000       0.000000
      0.000000       0.000000       0.000000
     -0.000145       0.000389       0.000000
     -0.000050       0.000346       0.000000
      0.000000       0.000000       0.000000
      0.000000       0.000000       0.000000
     -0.000256       0.000436       0.000000
     -0.000145       0.000389       0.000000
     -0.000050       0.000346       0.000000
     -0.000145       0.000389       0.000000
     -0.000350       0.000852       0.000000
     -0.000178       0.000760       0.000000
     -0.000145       0.000389       0.000000
     -0.000256       0.000436       0.000000
     -0.000543       0.000945       0.000000
     -0.000350       0.000852       0.000000
      0.000000       0.000000       0.000000
      0.000000       0.000000       0.000000
     -0.000410       0.000529       0.000000
     -0.000256       0.000436       0.000000
      0.000000       0.000000       0.000000
      0.000000       0.000000       0.000000
     -0.000643       0.000798       0.000000
     -0.000410       0.000529       0.000000
     -0.000256       0.000436       0.000000
     -0.000410       0.000529       0.000000
     -0.000758       0.001089       0.000000
     -0.000543       0.000945       0.000000
     -0.000410       0.000529       0.000000
     -0.000643       0.000798       0.000000
     -0.000981       0.001331       0.000000
     -0.000758       0.001089       0.000000
      0.000071       0.000483       0.000000
     -0.000031       0.000637       0.000000
     -0.000159       0.001039       0.000000
     -0.000014       0.000766       0.000000
     -0.000031       0.000637       0.000000
     -0.000178       0.000760       0.000000
     -0.000365       0.001241       0.000000
     -0.000159       0.001039       0.000000
     -0.000014       0.000766       0.000000
     -0.000159       0.001039       0.000000
     -0.000356       0.001519       0.000000
     -0.000167       0.001074       0.000000
     -0.000159       0.001039       0.000000
     -0.000365       0.001241       0.000000
     -0.000611       0.001789       0.000000
     -0.000356       0.001519       0.000000
     -0.000178       0.000760       0.000000
     -0.000350       0.000852       0.000000
     -0.000591       0.001371       0.000000
     -0.000365       0.001241       0.000000
     -0.000350       0.000852       0.000000
     -0.000543       0.000945       0.000000
     -0.000817       0.001477       0.000000
     -0.000591       0.001371       0.000000
     -0.000365       0.001241       0.000000
     -0.000591       0.001371       0.000000
     -0.000847       0.001917       0.000000
     -0.000611       0.001789       0.000000
     -0.000591       0.001371       0.000000
     -0.000817       0.001477       0.000000
     -0.001062       0.002001       0.000000
     -0.000847       0.001917       0.000000
     -0.000543       0.000945       0.000000
     -0.000758       0.001089       0.000000
     -0.001038       0.001612       0.000000
     -0.000817       0.001477       0.000000
     -0.000758       0.001089       0.000000
     -0.000981       0.001331       0.000000
     -0.001245       0.001812       0.000000
     -0.001038       0.001612       0.000000
     -0.000817       0.001477       0.000000
     -0.001038       0.001612       0.000000
     -0.001268       0.002101       0.000000
     -0.001062       0.002001       0.000000
     -0.001038       0.001612       0.000000
     -0.001245       0.001812       0.000000
     -0.001458       0.002250       0.000000
     -0.001268       0.002101       0.000000
     -0.000611       0.001789       0.000000
     -0.000847       0.001917       0.000000
     -0.001075       0.002449       0.000000
     -0.000903       0.002380       0.000000
     -0.000847       0.001917       0.000000
     -0.001062       0.002001       0.000000
     -0.001248       0.002497       0.000000
     -0.001075       0.002449       0.000000
     -0.000903       0.002380       0.000000
     -0.001075       0.002449       0.000000
     -0.001183       0.002938       0.000000
     -0.001082       0.002920       0.000000
     -0.001075       0.002449       0.000000
     -0.001248       0.002497       0.000000
     -0.001329       0.002965       0.000000
     -0.001183       0.002938       0.000000
     -0.001062       0.002001       0.000000
     -0.001268       0.002101       0.000000
     -0.001430       0.002558       0.000000
     -0.001248       0.002497       0.000000
     -0.001268       0.002101       0.000000
     -0.001458       0.002250       0.000000
     -0.001606       0.002647       0.000000
     -0.001430       0.002558       0.000000
     -0.001248       0.002497       0.000000
     -0.001430       0.002558       0.000000
     -0.001500       0.002996       0.000000
     -0.001329       0.002965       0.000000
     -0.001430       0.002558       0.000000
     -0.001606       0.002647       0.000000
     -0.001672       0.003022       0.000000
     -0.001500       0.002996       0.000000
     -0.000167       0.001074       0.000000
     -0.000246       0.001311       0.000000
     -0.000363       0.001546       0.000000
     -0.000276       0.001234       0.000000
     -0.000246       0.001311       0.000000
     -0.000356       0.001519       0.000000
     -0.000492       0.001805       0.000000
     -0.000363       0.001546       0.000000
     -0.000276       0.001234       0.000000
     -0.000363       0.001546       0.000000
     -0.000522       0.001825       0.000000
     -0.000424       0.001397       0.000000
     -0.000363       0.001546       0.000000
     -0.000492       0.001805       0.000000
     -0.000671       0.002138       0.000000
     -0.000522       0.001825       0.000000
     -0.000356       0.001519       0.000000
     -0.000483       0.001678       0.000000
     -0.000630       0.001979       0.000000
     -0.000492       0.001805       0.000000
     -0.000483       0.001678       0.000000
     -0.000611       0.001789       0.000000
     -0.000755       0.002084       0.000000
     -0.000630       0.001979       0.000000
     -0.000492       0.001805       0.000000
     -0.000630       0.001979       0.000000
     -0.000801       0.002301       0.000000