# vtk DataFile Version 2.0
time_10.vtk
ASCII
DATASET UNSTRUCTURED_GRID
POINTS  1896 float
      0.000000       0.000000       0.000000
      0.083333       0.000000       0.000000
      0.083333       0.083333       0.000000
      0.000000       0.083333       0.000000
      0.083333       0.000000       0.000000
      0.166667       0.000000       0.000000
      0.166667       0.083333       0.000000
      0.083333       0.083333       0.000000
      0.000000       0.083333       0.000000
      0.083333       0.083333       0.000000
      0.083333       0.166667       0.000000
      0.000000       0.166667       0.000000
      0.083333       0.083333       0.000000
      0.166667       0.083333       0.000000
      0.166667       0.166667       0.000000
      0.083333       0.166667       0.000000
      0.166667       0.000000       0.000000
      0.250000       0.000000       0.000000
      0.250000       0.083333       0.000000
      0.166667       0.083333       0.000000
      0.250000       0.000000       0.000000
      0.333333       0.000000       0.000000
      0.333333       0.083333       0.000000
      0.250000       0.083333       0.000000
      0.166667       0.083333       0.000000
      0.250000       0.083333       0.000000
      0.250000       0.166667       0.000000
      0.166667       0.166667       0.000000
      0.250000       0.083333       0.000000
      0.333333       0.083333       0.000000
      0.333333       0.166667       0.000000
      0.250000       0.166667       0.000000
      0.333333       0.000000       0.000000
      0.416667      -0.000000       0.000000
      0.416667       0.083333       0.000000
      0.333333       0.083333       0.000000
      0.416667      -0.000000       0.000000
      0.500000       0.000000       0.000000
      0.500000       0.083333       0.000000
      0.416667       0.083333       0.000000
      0.333333       0.083333       0.000000
      0.416667       0.083333       0.000000
      0.416667       0.166667       0.000000
      0.333333       0.166667       0.000000
      0.416667       0.083333       0.000000
      0.500000       0.083333       0.000000
      0.500000       0.166667       0.000000
      0.416667       0.166667       0.000000
      0.000000       0.166667       0.000000
      0.083333       0.166667       0.000000
      0.083333       0.250000       0.000000
      0.000000       0.250000       0.000000
      0.083333       0.166667       0.000000
      0.166667       0.166667       0.000000
      0.166667       0.250000       0.000000
      0.083333       0.250000       0.000000
      0.000000       0.250000       0.000000
      0.083333       0.250000       0.000000
      0.083333       0.333333       0.000000
      0.000000       0.333333       0.000000
      0.083333       0.250000       0.000000
      0.166667       0.250000       0.000000
      0.166667       0.333333       0.000000
      0.083333       0.333333       0.000000
      0.166667       0.166667       0.000000
      0.250000       0.166667       0.000000
      0.250000       0.250000       0.000000
      0.166667       0.250000       0.000000
      0.250000       0.166667       0.000000
      0.333333       0.166667       0.000000
      0.333333       0.250000       0.000000
      0.250000       0.250000       0.000000
      0.166667       0.250000       0.000000
      0.250000       0.250000       0.000000
      0.250000       0.333333       0.000000
      0.166667       0.333333       0.000000
      0.250000       0.250000       0.000000
      0.333333       0.250000       0.000000
      0.333333       0.333333       0.000000
      0.250000       0.333333       0.000000
      0.333333       0.166667       0.000000
      0.416667       0.166667       0.000000
      0.416667       0.250000       0.000000
      0.333333       0.250000       0.000000
      0.416667       0.166667       0.000000
      0.500000       0.166667       0.000000
      0.500000       0.250000       0.000000
      0.416667       0.250000       0.000000
      0.333333       0.250000       0.000000
      0.416667       0.250000       0.000000
      0.416667       0.333333       0.000000
      0.333333       0.333333       0.000000
      0.416667       0.250000       0.000000
      0.500000       0.250000       0.000000
      0.500000       0.333333       0.000000
      0.416667       0.333333       0.000000
      0.000000       0.333333       0.000000
      0.083333       0.333333       0.000000
      0.083333       0.416667       0.000000
     -0.000000       0.416667       0.000000
      0.083333       0.333333       0.000000
      0.166667       0.333333       0.000000
      0.166667       0.416667       0.000000
      0.083333       0.416667       0.000000
     -0.000000       0.416667       0.000000
      0.083333       0.416667       0.000000
      0.083333       0.500000       0.000000
      0.000000       0.500000       0.000000
      0.083333       0.416667       0.000000
      0.166667       0.416667       0.000000
      0.166667       0.500000       0.000000
      0.083333       0.500000       0.000000
      0.166667       0.333333       0.000000
      0.250000       0.333333       0.000000
      0.250000       0.416667       0.000000
      0.166667       0.416667       0.000000
      0.250000       0.333333       0.000000
      0.333333       0.333333       0.000000
      0.333333       0.416667       0.000000
      0.250000       0.416667       0.000000
      0.166667       0.416667       0.000000
      0.250000       0.416667       0.000000
      0.250000       0.500000       0.000000
      0.166667       0.500000       0.000000
      0.250000       0.416667       0.000000
      0.333333       0.416667       0.000000
      0.333333       0.500000       0.000000
      0.250000       0.500000       0.000000
      0.333333       0.333333       0.000000
      0.375000       0.333333       0.000000
      0.375000       0.375000       0.000000
      0.333333       0.375000       0.000000
      0.375000       0.333333       0.000000
      0.416667       0.333333       0.000000
      0.416667       0.375000       0.000000
      0.375000       0.375000       0.000000
      0.333333       0.375000       0.000000
      0.375000       0.375000       0.000000
      0.375000       0.416667       0.000000
      0.333333       0.416667       0.000000
      0.375000       0.375000       0.000000
      0.416667       0.375000       0.000000
      0.416667       0.416667       0.000000
      0.375000       0.416667       0.000000
      0.416667       0.333333       0.000000
      0.458333       0.333333       0.000000
      0.458333       0.375000       0.000000
      0.416667       0.375000       0.000000
      0.458333       0.333333       0.000000
      0.500000       0.333333       0.000000
      0.500000       0.375000       0.000000
      0.458333       0.375000       0.000000
      0.416667       0.375000       0.000000
      0.458333       0.375000       0.000000
      0.458333       0.416667       0.000000
      0.416667       0.416667       0.000000
      0.458333       0.375000       0.000000
      0.500000       0.375000       0.000000
      0.500000       0.416667       0.000000
      0.458333       0.416667       0.000000
      0.333333       0.416667       0.000000
      0.375000       0.416667       0.000000
      0.375000       0.458333       0.000000
      0.333333       0.458333       0.000000
      0.375000       0.416667       0.000000
      0.416667       0.416667       0.000000
      0.416667       0.458333       0.000000
      0.375000       0.458333       0.000000
      0.333333       0.458333       0.000000
      0.375000       0.458333       0.000000
      0.375000       0.500000       0.000000
      0.333333       0.500000       0.000000
      0.375000       0.458333       0.000000
      0.416667       0.458333       0.000000
      0.416667       0.500000       0.000000
      0.375000       0.500000       0.000000
      0.416667       0.416667       0.000000
      0.437500       0.416667       0.000000
      0.437500       0.437500       0.000000
      0.416667       0.437500       0.000000
      0.437500       0.416667       0.000000
      0.458333       0.416667       0.000000
      0.458333       0.437500       0.000000
      0.437500       0.437500       0.000000
      0.416667       0.437500       0.000000
      0.437500       0.437500       0.000000
      0.437500       0.458333       0.000000
      0.416667       0.458333       0.000000
      0.437500       0.437500       0.000000
      0.458333       0.437500       0.000000
      0.458333       0.458333       0.000000
      0.437500       0.458333       0.000000
      0.458333       0.416667       0.000000
      0.479167       0.416667       0.000000
      0.479167       0.437500       0.000000
      0.458333       0.437500       0.000000
      0.479167       0.416667       0.000000
      0.500000       0.416667       0.000000
      0.500000       0.437500       0.000000
      0.479167       0.437500       0.000000
      0.458333       0.437500       0.000000
      0.479167       0.437500       0.000000
      0.479167       0.458333       0.000000
      0.458333       0.458333       0.000000
      0.479167       0.437500       0.000000
      0.500000       0.437500       0.000000
      0.500000       0.458333       0.000000
      0.479167       0.458333       0.000000
      0.416667       0.458333       0.000000
      0.437500       0.458333       0.000000
      0.437500       0.479167       0.000000
      0.416667       0.479167       0.000000
      0.437500       0.458333       0.000000
      0.458333       0.458333       0.000000
      0.458333       0.479167       0.000000
      0.437500       0.479167       0.000000
      0.416667       0.479167       0.000000
      0.437500       0.479167       0.000000
      0.437500       0.500000       0.000000
      0.416667       0.500000       0.000000
[...]
POINT_DATA  1896
VECTORS U float 
      0.000000       0.000000       0.000000
      0.000000       0.000000       0.000000
     -0.000026      -0.000035       0.000000
     -0.000046      -0.000066       0.000000
      0.000000       0.000000       0.000000
      0.000000       0.000000       0.000000
     -0.000013      -0.000018       0.000000
     -0.000026      -0.000035       0.000000
     -0.000046      -0.000066       0.000000
     -0.000026      -0.000035       0.000000
     -0.000078      -0.000072       0.000000
     -0.000097      -0.000120       0.000000
     -0.000026      -0.000035       0.000000
     -0.000013      -0.000018       0.000000
     -0.000062      -0.000041       0.000000
     -0.000078      -0.000072       0.000000
      0.000000       0.000000       0.000000
      0.000000       0.000000       0.000000
      0.000001      -0.000003       0.000000
     -0.000013      -0.000018       0.000000
      0.000000       0.000000       0.000000
      0.000000       0.000000       0.000000
      0.000019       0.000014       0.000000
      0.000001      -0.000003       0.000000
     -0.000013      -0.000018       0.000000
      0.000001      -0.000003       0.000000
     -0.000044      -0.000015       0.000000
     -0.000062      -0.000041       0.000000
      0.000001      -0.000003       0.000000
      0.000019       0.000014       0.000000
     -0.000022       0.000017       0.000000
     -0.000044      -0.000015       0.000000
      0.000000       0.000000       0.000000
      0.000000       0.000000       0.000000
      0.000039       0.000041       0.000000
      0.000019       0.000014       0.000000
      0.000000       0.000000       0.000000
      0.000000       0.000000       0.000000
      0.000056       0.000083       0.000000
      0.000039       0.000041       0.000000
      0.000019       0.000014       0.000000
      0.000039       0.000041       0.000000
      0.000003       0.000070       0.000000
     -0.000022       0.000017       0.000000
      0.000039       0.000041       0.000000
      0.000056       0.000083       0.000000
      0.000023       0.000157       0.000000
      0.000003       0.000070       0.000000
     -0.000097      -0.000120       0.000000
     -0.000078      -0.000072       0.000000
     -0.000154      -0.000101       0.000000
     -0.000167      -0.000163       0.000000
     -0.000078      -0.000072       0.000000
     -0.000062      -0.000041       0.000000
     -0.000142      -0.000062       0.000000
     -0.000154      -0.000101       0.000000
     -0.000167      -0.000163       0.000000
     -0.000154      -0.000101       0.000000
     -0.000244      -0.000121       0.000000
     -0.000250      -0.000189       0.000000
     -0.000154      -0.000101       0.000000
     -0.000142      -0.000062       0.000000
     -0.000241      -0.000075       0.000000
     -0.000244      -0.000121       0.000000
     -0.000062      -0.000041       0.000000
     -0.000044      -0.000015       0.000000
     -0.000130      -0.000028       0.000000
     -0.000142      -0.000062       0.000000
     -0.000044      -0.000015       0.000000
     -0.000022       0.000017       0.000000
     -0.000115       0.000016       0.000000
     -0.000130      -0.000028       0.000000
     -0.000142      -0.000062       0.000000
     -0.000130      -0.000028       0.000000
     -0.000242      -0.000035       0.000000
     -0.000241      -0.000075       0.000000
     -0.000130      -0.000028       0.000000
     -0.000115       0.000016       0.000000
     -0.000247       0.000018       0.000000
     -0.000242      -0.000035       0.000000
     -0.000022       0.000017       0.000000
      0.000003       0.000070       0.000000
     -0.000099       0.000090       0.000000
     -0.000115       0.000016       0.000000
      0.000003       0.000070       0.000000
      0.000023       0.000157       0.000000
     -0.000085       0.000219       0.000000
     -0.000099       0.000090       0.000000
     -0.000115       0.000016       0.000000
     -0.000099       0.000090       0.000000
     -0.000256       0.000106       0.000000
     -0.000247       0.000018       0.000000
     -0.000099       0.000090       0.000000
     -0.000085       0.000219       0.000000
     -0.000265       0.000264       0.000000
     -0.000256       0.000106       0.000000
     -0.000250      -0.000189       0.000000
     -0.000244      -0.000121       0.000000
     -0.000333      -0.000129       0.000000
     -0.000333      -0.000197       0.000000
     -0.000244      -0.000121       0.000000
     -0.000241      -0.000075       0.000000
     -0.000340      -0.000078       0.000000
     -0.000333      -0.000129       0.000000
     -0.000333      -0.000197       0.000000
     -0.000333      -0.000129       0.000000
     -0.000406      -0.000129       0.000000
     -0.000406      -0.000197       0.000000
     -0.000333      -0.000129       0.000000
     -0.000340      -0.000078       0.000000
     -0.000415      -0.000072       0.000000
     -0.000406      -0.000129       0.000000
     -0.000241      -0.000075       0.000000
     -0.000242      -0.000035       0.000000
     -0.000358      -0.000032       0.000000
     -0.000340      -0.000078       0.000000
     -0.000242      -0.000035       0.000000
     -0.000247       0.000018       0.000000
     -0.000389       0.000030       0.000000
     -0.000358      -0.000032       0.000000
     -0.000340      -0.000078       0.000000
     -0.000358      -0.000032       0.000000
     -0.000445      -0.000017       0.000000
     -0.000415      -0.000072       0.000000
     -0.000358      -0.000032       0.000000
     -0.000389       0.000030       0.000000
     -0.000504       0.000054       0.000000
     -0.000445      -0.000017       0.000000
     -0.000247       0.000018       0.000000
     -0.000251       0.000056       0.000000
     -0.000331       0.000063       0.000000
     -0.000319       0.000022       0.000000
     -0.000251       0.000056       0.000000
     -0.000256       0.000106       0.000000
     -0.000346       0.000116       0.000000
     -0.000331       0.000063       0.000000
     -0.000319       0.000022       0.000000
     -0.000331       0.000063       0.000000
     -0.000411       0.000073       0.000000
     -0.000389       0.000030       0.000000
     -0.000331       0.000063       0.000000
     -0.000346       0.000116       0.000000
     -0.000437       0.000130       0.000000
     -0.000411       0.000073       0.000000
     -0.000256       0.000106       0.000000
     -0.000260       0.000172       0.000000
     -0.000363       0.000185       0.000000
     -0.000346       0.000116       0.000000
     -0.000260       0.000172       0.000000
     -0.000265       0.000264       0.000000
     -0.000380       0.000280       0.000000
     -0.000363       0.000185       0.000000
     -0.000346       0.000116       0.000000
     -0.000363       0.000185       0.000000
     -0.000469       0.000202       0.000000
     -0.000437       0.000130       0.000000
     -0.000363       0.000185       0.000000
     -0.000380       0.000280       0.000000
     -0.000506       0.000296       0.000000
     -0.000469       0.000202       0.000000
     -0.000389       0.000030       0.000000
     -0.000411       0.000073       0.000000
     -0.000483       0.000087       0.000000
     -0.000452       0.000040       0.000000
     -0.000411       0.000073       0.000000
     -0.000437       0.000130       0.000000
     -0.000519       0.000149       0.000000
     -0.000483       0.000087       0.000000
     -0.000452       0.000040       0.000000
     -0.000483       0.000087       0.000000
     -0.000545       0.000104       0.000000
     -0.000504       0.000054       0.000000
     -0.000483       0.000087       0.000000
     -0.000519       0.000149       0.000000
     -0.000591       0.000168       0.000000
     -0.000545       0.000104       0.000000
     -0.000437       0.000130       0.000000
     -0.000452       0.000164       0.000000
     -0.000498       0.000174       0.000000
     -0.000479       0.000139       0.000000
     -0.000452       0.000164       0.000000
     -0.000469       0.000202       0.000000
     -0.000519       0.000213       0.000000
     -0.000498       0.000174       0.000000
     -0.000479       0.000139       0.000000
     -0.000498       0.000174       0.000000
     -0.000539       0.000185       0.000000
     -0.000519       0.000149       0.000000
     -0.000498       0.000174       0.000000
     -0.000519       0.000213       0.000000
     -0.000563       0.000226       0.000000
     -0.000539       0.000185       0.000000
     -0.000469       0.000202       0.000000
     -0.000487       0.000245       0.000000
     -0.000543       0.000256       0.000000
     -0.000519       0.000213       0.000000
     -0.000487       0.000245       0.000000
     -0.000506       0.000296       0.000000
     -0.000569       0.000306       0.000000
     -0.000543       0.000256       0.000000
     -0.000519       0.000213       0.000000
     -0.000543       0.000256       0.000000
     -0.000591       0.000270       0.000000
     -0.000563       0.000226       0.000000
     -0.000543       0.000256       0.000000
     -0.000569       0.000306       0.000000
     -0.000626       0.000319       0.000000
     -0.000591       0.000270       0.000000
     -0.000519       0.000149       0.000000
     -0.000539       0.000185       0.000000
     -0.000577       0.000196       0.000000
     -0.000555       0.000158       0.000000
     -0.000539       0.000185       0.000000
     -0.000563       0.000226       0.000000
     -0.000600       0.000239       0.000000
     -0.000577       0.000196       0.000000
     -0.000555       0.000158       0.000000
     -0.000577       0.000196       0.000000
     -0.000616       0.000206       0.000000
     -0.000591       0.000168       0.000000
     -0.000577       0.000196       0.000000
     -0.000600       0.000239       0.000000
     -0.000639       0.000250       0.000000
     -0.000616       0.000206       0.000000
     -0.000563       0.000226       0.000000
     -0.000576       0.000248       0.000000
     -0.000595       0.000255       0.000000
     -0.000582       0.000233       0.000000
     -0.000576       0.000248       0.000000
     -0.000591       0.000270       0.000000
     -0.000611       0.000278       0.000000
     -0.000595       0.000255       0.000000
     -0.000582       0.000233       0.000000
     -0.000595       0.000255       0.000000
     -0.000612       0.000262       0.000000
     -0.000600       0.000239       0.000000
     -0.000595       0.000255       0.000000
     -0.000611       0.000278       0.000000
     -0.000627       0.000286       0.000000
     -0.000612       0.000262       0.000000
     -0.000591       0.000270       0.000000
     -0.000608       0.000293       0.000000
     -0.000629       0.000302       0.000000
     -0.000611       0.000278       0.000000
     -0.000608       0.000293       0.000000
     -0.000626       0.000319       0.000000
     -0.000651       0.000328       0.000000
     -0.000629       0.000302       0.000000
     -0.000611       0.000278       0.000000
     -0.000629       0.000302       0.000000
     -0.000645       0.000311       0.000000
     -0.000627       0.000286       0.000000
     -0.000629       0.000302       0.000000
     -0.000651       0.000328       0.000000
     -0.000671       0.000341       0.000000
     -0.000645       0.000311       0.000000
     -0.000600       0.000239       0.000000
     -0.000612       0.000262       0.000000
     -0.000629       0.000269       0.000000
     -0.000618       0.000245       0.000000
     -0.000612       0.000262       0.000000
     -0.000627       0.000286       0.000000
     -0.000640       0.000294       0.000000
     -0.000629       0.000269       0.000000
     -0.000618       0.000245       0.000000
     -0.000629       0.000269       0.000000
     -0.000649       0.000274       0.000000
     -0.000639       0.000250       0.000000
     -0.000629       0.000269       0.000000
     -0.000640       0.000294       0.000000
     -0.000658       0.000306       0.000000
     -0.000649       0.000274       0.000000
     -0.000627       0.000286       0.000000
     -0.000645       0.000311       0.000000
     -0.000652       0.000321       0.000000
     -0.000640       0.000294       0.000000
     -0.000645       0.000311       0.000000
     -0.000671       0.000341       0.000000
     -0.000682       0.000392       0.000000
     -0.000652       0.000321       0.000000
     -0.000640       0.000294       0.000000
     -0.000652       0.000321       0.000000
     -0.000662       0.000393       0.000000
     -0.000658       0.000306       0.000000
     -0.000652       0.000321       0.000000
     -0.000682       0.000392       0.000000
     -0.000815       0.005520       0.000000
     -0.000662       0.000393       0.000000
      0.000000       0.000000       0.000000
      0.000000       0.000000       0.000000
      0.000059       0.000141       0.000000
      0.000056       0.000083       0.000000
      0.000000       0.000000       0.000000
      0.000000       0.000000       0.000000
      0.000036       0.000213       0.000000
      0.000059       0.000141       0.000000
      0.000056       0.000083       0.000000
      0.000059       0.000141       0.000000
      0.000020       0.000288       0.000000
      0.000023       0.000157       0.000000
      0.000059       0.000141       0.000000
      0.000036       0.000213       0.000000
     -0.000028       0.000454       0.000000
      0.000020       0.000288       0.000000
      0.000000       0.000000       0.000000
      0.000000       0.000000       0.000000
     -0.000020       0.000290       0.000000
      0.000036       0.000213       0.000000
      0.000000       0.000000       0.000000
      0.000000       0.000000       0.000000
     -0.000113       0.000370       0.000000
     -0.000020       0.000290       0.000000
      0.000036       0.000213       0.000000
     -0.000020       0.000290       0.000000
     -0.000137       0.000633       0.000000
     -0.000028       0.000454       0.000000
     -0.000020       0.000290       0.000000
     -0.000113       0.000370       0.000000
     -0.000304       0.000810       0.000000
     -0.000137       0.000633       0.000000
      0.000000       0.000000       0.000000
      0.000000       0.000000       0.000000
     -0.000259       0.000478       0.000000
     -0.000113       0.000370       0.000000
      0.000000       0.000000       0.000000
      0.000000       0.000000       0.000000
     -0.000483       0.000696       0.000000
     -0.000259       0.000478       0.000000
     -0.000113       0.000370       0.000000
     -0.000259       0.000478       0.000000
     -0.000515       0.001009       0.000000
     -0.000304       0.000810       0.000000
     -0.000259       0.000478       0.000000
     -0.000483       0.000696       0.000000
     -0.000748       0.001254       0.000000
     -0.000515       0.001009       0.000000
      0.000023       0.000157       0.000000
      0.000020       0.000288       0.000000
     -0.000093       0.000431       0.000000
     -0.000085       0.000219       0.000000
      0.000020       0.000288       0.000000
     -0.000028       0.000454       0.000000
     -0.000161       0.000720       0.000000
     -0.000093       0.000431       0.000000
     -0.000085       0.000219       0.000000
     -0.000093       0.000431       0.000000
     -0.000281       0.000553       0.000000
     -0.000265       0.000264       0.000000
     -0.000093       0.000431       0.000000
     -0.000161       0.000720       0.000000
     -0.000355       0.001005       0.000000
     -0.000281       0.000553       0.000000
     -0.000028       0.000454       0.000000
     -0.000137       0.000633       0.000000
     -0.000320       0.001028       0.000000
     -0.000161       0.000720       0.000000
     -0.000137       0.000633       0.000000
     -0.000304       0.000810       0.000000
     -0.000548       0.001299       0.000000
     -0.000320       0.001028       0.000000
     -0.000161       0.000720       0.000000
     -0.000320       0.001028       0.000000
     -0.000567       0.001499       0.000000
     -0.000355       0.001005       0.000000
     -0.000320       0.001028       0.000000
     -0.000548       0.001299       0.000000
     -0.000860       0.001845       0.000000
     -0.000567       0.001499       0.000000
     -0.000304       0.000810       0.000000
     -0.000515       0.001009       0.000000
     -0.000793       0.001539       0.000000
     -0.000548       0.001299       0.000000
     -0.000515       0.001009       0.000000
     -0.000748       0.001254       0.000000
     -0.001025       0.001803       0.000000
     -0.000793       0.001539       0.000000
     -0.000548       0.001299       0.000000
     -0.000793       0.001539       0.000000
     -0.001121       0.002064       0.000000
     -0.000860       0.001845       0.000000
     -0.000793       0.001539       0.000000
     -0.001025       0.001803       0.000000
     -0.001334       0.002306       0.000000
     -0.001121       0.002064       0.000000
     -0.000567       0.001499       0.000000
     -0.000860       0.001845       0.000000
     -0.001228       0.002445       0.000000
     -0.000932       0.002123       0.000000
     -0.000860       0.001845       0.000000
     -0.001121       0.002064       0.000000
     -0.001436       0.002562       0.000000
     -0.001228       0.002445       0.000000
     -0.001121       0.002064       0.000000
     -0.001334       0.002306       0.000000
     -0.001609       0.002710       0.000000
     -0.001436       0.002562       0.000000
     -0.001228       0.002445       0.000000
     -0.001436       0.002562       0.000000
     -0.001580       0.003011       0.000000
     -0.001448       0.003000       0.000000
     -0.001436       0.002562       0.000000
     -0.001609       0.002710       0.000000
     -0.001729       0.003022       0.000000
     -0.001580       0.003011       0.000000
     -0.000265       0.000264       0.000000
     -0.000270       0.000388       0.000000
     -0.000396       0.000413       0.000000
     -0.000380       0.000280       0.000000
     -0.000270       0.000388       0.000000
     -0.000281       0.000553       0.000000
     -0.000413       0.000598       0.000000
     -0.000396       0.000413       0.000000
     -0.000380       0.000280       0.000000
     -0.000396       0.000413       0.000000
     -0.000544       0.000434       0.000000
     -0.000506       0.000296       0.000000
     -0.000396       0.000413       0.000000
     -0.000413       0.000598       0.000000
     -0.000582       0.000633       0.000000
     -0.000544       0.000434       0.000000
     -0.000281       0.000553       0.000000
     -0.000305       0.000762       0.000000
     -0.000437       0.000845       0.000000
     -0.000413       0.000598       0.000000
     -0.000305       0.000762       0.000000
     -0.000355       0.001005       0.000000
     -0.000485       0.001151       0.000000
     -0.000437       0.000845       0.000000
     -0.000413       0.000598       0.000000
     -0.000437       0.000845       0.000000
     -0.000616       0.000909       0.000000
     -0.000582       0.000633       0.000000
     -0.000437       0.000845       0.000000
     -0.000485       0.001151       0.000000
     -0.000658       0.001289       0.000000
     -0.000616       0.000909       0.000000
     -0.000506       0.000296       0.000000
     -0.000525       0.000358       0.000000
     -0.000596       0.000369       0.000000
     -0.000569       0.000306       0.000000
     -0.000525       0.000358       0.000000
     -0.000544       0.000434       0.000000
     -0.000625       0.000447       0.000000