# vtk DataFile Version 2.0
time_10.vtk
ASCII
DATASET UNSTRUCTURED_GRID
POINTS  1152 float
      0.000000       0.000000       0.000000
      0.083333       0.000000       0.000000
      0.083333       0.083333       0.000000
      0.000000       0.083333       0.000000
      0.083333       0.000000       0.000000
      0.166667       0.000000       0.000000
      0.166667       0.083333       0.000000
      0.083333       0.083333       0.000000
      0.000000       0.083333       0.000000
      0.083333       0.083333       0.000000
      0.083333       0.166667       0.000000
      0.000000       0.166667       0.000000
      0.083333       0.083333       0.000000
      0.166667       0.083333       0.000000
      0.166667       0.166667       0.000000
      0.083333       0.166667       0.000000
      0.166667       0.000000       0.000000
      0.250000       0.000000       0.000000
      0.250000       0.083333       0.000000
      0.166667       0.083333       0.000000
      0.250000       0.000000       0.000000
      0.333333       0.000000       0.000000
      0.333333       0.083333       0.000000
      0.250000       0.083333       0.000000
      0.166667       0.083333       0.000000
      0.250000       0.083333       0.000000
      0.250000       0.166667       0.000000
      0.166667       0.166667       0.000000
      0.250000       0.083333       0.000000
      0.333333       0.083333       0.000000
      0.333333       0.166667       0.000000
      0.250000       0.166667       0.000000
      0.333333       0.000000       0.000000
      0.416667      -0.000000       0.000000
      0.416667       0.083333       0.000000
      0.333333       0.083333       0.000000
      0.416667      -0.000000       0.000000
      0.500000       0.000000       0.000000
      0.500000       0.083333       0.000000
      0.416667       0.083333       0.000000
      0.333333       0.083333       0.000000
      0.416667       0.083333       0.000000
      0.416667       0.166667       0.000000
      0.333333       0.166667       0.000000
      0.416667       0.083333       0.000000
      0.500000       0.083333       0.000000
      0.500000       0.166667       0.000000
      0.416667       0.166667       0.000000
      0.000000       0.166667       0.000000
      0.083333       0.166667       0.000000
      0.083333       0.250000       0.000000
      0.000000       0.250000       0.000000
      0.083333       0.166667       0.000000
      0.166667       0.166667       0.000000
      0.166667       0.250000       0.000000
      0.083333       0.250000       0.000000
      0.000000       0.250000       0.000000
      0.083333       0.250000       0.000000
      0.083333       0.333333       0.000000
      0.000000       0.333333       0.000000
      0.083333       0.250000       0.000000
      0.166667       0.250000       0.000000
      0.166667       0.333333       0.000000
      0.083333       0.333333       0.000000
      0.166667       0.166667       0.000000
      0.250000       0.166667       0.000000
      0.250000       0.250000       0.000000
      0.166667       0.250000       0.000000
      0.250000       0.166667       0.000000
      0.333333       0.166667       0.000000
      0.333333       0.250000       0.000000
      0.250000       0.250000       0.000000
      0.166667       0.250000       0.000000
      0.250000       0.250000       0.000000
      0.250000       0.333333       0.000000
      0.166667       0.333333       0.000000
      0.250000       0.250000       0.000000
      0.333333       0.250000       0.000000
      0.333333       0.333333       0.000000
      0.250000       0.333333       0.000000
      0.333333       0.166667       0.000000
      0.416667       0.166667       0.000000
      0.416667       0.250000       0.000000
      0.333333       0.250000       0.000000
      0.416667       0.166667       0.000000
      0.500000       0.166667       0.000000
      0.500000       0.250000       0.000000
      0.416667       0.250000       0.000000
      0.333333       0.250000       0.000000
      0.416667       0.250000       0.000000
      0.416667       0.333333       0.000000
      0.333333       0.333333       0.000000
      0.416667       0.250000       0.000000
      0.500000       0.250000       0.000000
      0.500000       0.333333       0.000000
      0.416667       0.333333       0.000000
      0.000000       0.333333       0.000000
      0.083333       0.333333       0.000000
      0.083333       0.416667       0.000000
     -0.000000       0.416667       0.000000
      0.083333       0.333333       0.000000
      0.166667       0.333333       0.000000
      0.166667       0.416667       0.000000
      0.083333       0.416667       0.000000
     -0.000000       0.416667       0.000000
      0.083333       0.416667       0.000000
      0.083333       0.500000       0.000000
      0.000000       0.500000       0.000000
      0.083333       0.416667       0.000000
      0.166667       0.416667       0.000000
      0.166667       0.500000       0.000000
      0.083333       0.500000       0.000000
      0.166667       0.333333       0.000000
      0.250000       0.333333       0.000000
      0.250000       0.416667       0.000000
      0.166667       0.416667       0.000000
      0.250000       0.333333       0.000000
      0.333333       0.333333       0.000000
      0.333333       0.416667       0.000000
      0.250000       0.416667       0.000000
      0.166667       0.416667       0.000000
      0.250000       0.416667       0.000000
      0.250000       0.500000       0.000000
      0.166667       0.500000       0.000000
      0.250000       0.416667       0.000000
      0.333333       0.416667       0.000000
      0.333333       0.500000       0.000000
      0.250000       0.500000       0.000000
      0.333333       0.333333       0.000000
      0.375000       0.333333       0.000000
      0.375000       0.375000       0.000000
      0.333333       0.375000       0.000000
      0.375000       0.333333       0.000000
      0.416667       0.333333       0.000000
      0.416667       0.375000       0.000000
      0.375000       0.375000       0.000000
      0.333333       0.375000       0.000000
      0.375000       0.375000       0.000000
      0.375000       0.416667       0.000000
      0.333333       0.416667       0.000000
      0.375000       0.375000       0.000000
      0.416667       0.375000       0.000000
      0.416667       0.416667       0.000000
      0.375000       0.416667       0.000000
      0.416667       0.333333       0.000000
      0.458333       0.333333       0.000000
      0.458333       0.375000       0.000000
      0.416667       0.375000       0.000000
      0.458333       0.333333       0.000000
      0.500000       0.333333       0.000000
      0.500000       0.375000       0.000000
      0.458333       0.375000       0.000000
      0.416667       0.375000       0.000000
      0.458333       0.375000       0.000000
      0.458333       0.416667       0.000000
      0.416667       0.416667       0.000000
      0.458333       0.375000       0.000000
      0.500000       0.375000       0.000000
      0.500000       0.416667       0.000000
      0.458333       0.416667       0.000000
      0.333333       0.416667       0.000000
      0.375000       0.416667       0.000000
      0.375000       0.458333       0.000000
      0.333333       0.458333       0.000000
      0.375000       0.416667       0.000000
      0.416667       0.416667       0.000000
      0.416667       0.458333       0.000000
      0.375000       0.458333       0.000000
      0.333333       0.458333       0.000000
      0.375000       0.458333       0.000000
      0.375000       0.500000       0.000000
      0.333333       0.500000       0.000000
      0.375000       0.458333       0.000000
      0.416667       0.458333       0.000000
      0.416667       0.500000       0.000000
      0.375000       0.500000       0.000000
      0.416667       0.416667       0.000000
      0.437500       0.416667       0.000000
      0.437500       0.437500       0.000000
      0.416667       0.437500       0.000000
      0.437500       0.416667       0.000000
      0.458333       0.416667       0.000000
      0.458333       0.437500       0.000000
      0.437500       0.437500       0.000000
      0.416667       0.437500       0.000000
      0.437500       0.437500       0.000000
      0.437500       0.458333       0.000000
      0.416667       0.458333       0.000000
      0.437500       0.437500       0.000000
      0.458333       0.437500       0.000000
      0.458333       0.458333       0.000000
      0.437500       0.458333       0.000000
      0.458333       0.416667       0.000000
      0.479167       0.416667       0.000000
      0.479167       0.437500       0.000000
      0.458333       0.437500       0.000000
      0.479167       0.416667       0.000000
      0.500000       0.416667       0.000000
      0.500000       0.437500       0.000000
      0.479167       0.437500       0.000000
      0.458333       0.437500       0.000000
      0.479167       0.437500       0.000000
      0.479167       0.458333       0.000000
      0.458333       0.458333       0.000000
      0.479167       0.437500       0.000000
      0.500000       0.437500       0.000000
      0.500000       0.458333       0.000000
      0.479167       0.458333       0.000000
      0.416667       0.458333       0.000000
      0.437500       0.458333       0.000000
      0.437500       0.479167       0.000000
      0.416667       0.479167       0.000000
      0.437500       0.458333       0.000000
      0.458333       0.458333       0.000000
      0.458333       0.479167       0.000000
      0.437500       0.479167       0.000000
      0.416667       0.479167       0.000000
      0.437500       0.479167       0.000000
      0.437500       0.500000       0.000000
      0.416667       0.500000       0.000000
[...]
POINT_DATA  1152
VECTORS U float 
      0.000000       0.000000       0.000000
      0.000000       0.000000       0.000000
      0.000073      -0.000015       0.000000
      0.000054      -0.000016       0.000000
      0.000000       0.000000       0.000000
      0.000000       0.000000       0.000000
      0.000093       0.000014       0.000000
      0.000073      -0.000015       0.000000
      0.000054      -0.000016       0.000000
      0.000073      -0.000015       0.000000
      0.000080      -0.000041       0.000000
      0.000056      -0.000085       0.000000
      0.000073      -0.000015       0.000000
      0.000093       0.000014       0.000000
      0.000103       0.000018       0.000000
      0.000080      -0.000041       0.000000
      0.000000       0.000000       0.000000
      0.000000       0.000000       0.000000
      0.000110       0.000055       0.000000
      0.000093       0.000014       0.000000
      0.000000       0.000000       0.000000
      0.000000       0.000000       0.000000
      0.000120       0.000107       0.000000
      0.000110       0.000055       0.000000
      0.000093       0.000014       0.000000
      0.000110       0.000055       0.000000
      0.000126       0.000099       0.000000
      0.000103       0.000018       0.000000
      0.000110       0.000055       0.000000
      0.000120       0.000107       0.000000
      0.000140       0.000211       0.000000
      0.000126       0.000099       0.000000
      0.000000       0.000000       0.000000
      0.000000       0.000000       0.000000
      0.000112       0.000171       0.000000
      0.000120       0.000107       0.000000
      0.000000       0.000000       0.000000
      0.000000       0.000000       0.000000
      0.000078       0.000238       0.000000
      0.000112       0.000171       0.000000
      0.000120       0.000107       0.000000
      0.000112       0.000171       0.000000
      0.000126       0.000354       0.000000
      0.000140       0.000211       0.000000
      0.000112       0.000171       0.000000
      0.000078       0.000238       0.000000
      0.000064       0.000511       0.000000
      0.000126       0.000354       0.000000
      0.000056      -0.000085       0.000000
      0.000080      -0.000041       0.000000
      0.000008      -0.000072       0.000000
     -0.000015      -0.000162       0.000000
      0.000080      -0.000041       0.000000
      0.000103       0.000018       0.000000
      0.000029       0.000015       0.000000
      0.000008      -0.000072       0.000000
     -0.000015      -0.000162       0.000000
      0.000008      -0.000072       0.000000
     -0.000131      -0.000098       0.000000
     -0.000146      -0.000221       0.000000
      0.000008      -0.000072       0.000000
      0.000029       0.000015       0.000000
     -0.000120       0.000008       0.000000
     -0.000131      -0.000098       0.000000
      0.000103       0.000018       0.000000
      0.000126       0.000099       0.000000
      0.000054       0.000130       0.000000
      0.000029       0.000015       0.000000
      0.000126       0.000099       0.000000
      0.000140       0.000211       0.000000
      0.000074       0.000302       0.000000
      0.000054       0.000130       0.000000
      0.000029       0.000015       0.000000
      0.000054       0.000130       0.000000
     -0.000104       0.000145       0.000000
     -0.000120       0.000008       0.000000
      0.000054       0.000130       0.000000
      0.000074       0.000302       0.000000
     -0.000083       0.000365       0.000000
     -0.000104       0.000145       0.000000
      0.000140       0.000211       0.000000
      0.000126       0.000354       0.000000
      0.000062       0.000542       0.000000
      0.000074       0.000302       0.000000
      0.000126       0.000354       0.000000
      0.000064       0.000511       0.000000
     -0.000019       0.000819       0.000000
      0.000062       0.000542       0.000000
      0.000074       0.000302       0.000000
      0.000062       0.000542       0.000000
     -0.000080       0.000716       0.000000
     -0.000083       0.000365       0.000000
      0.000062       0.000542       0.000000
     -0.000019       0.000819       0.000000
     -0.000166       0.001169       0.000000
     -0.000080       0.000716       0.000000
     -0.000146      -0.000221       0.000000
     -0.000131      -0.000098       0.000000
     -0.000303      -0.000112       0.000000
     -0.000305      -0.000248       0.000000
     -0.000131      -0.000098       0.000000
     -0.000120       0.000008       0.000000
     -0.000312       0.000006       0.000000
     -0.000303      -0.000112       0.000000
     -0.000305      -0.000248       0.000000
     -0.000303      -0.000112       0.000000
     -0.000459      -0.000111       0.000000
     -0.000457      -0.000250       0.000000
     -0.000303      -0.000112       0.000000
     -0.000312       0.000006       0.000000
     -0.000487       0.000019       0.000000
     -0.000459      -0.000111       0.000000
     -0.000120       0.000008       0.000000
     -0.000104       0.000145       0.000000
     -0.000331       0.000152       0.000000
     -0.000312       0.000006       0.000000
     -0.000104       0.000145       0.000000
     -0.000083       0.000365       0.000000
     -0.000348       0.000392       0.000000
     -0.000331       0.000152       0.000000
     -0.000312       0.000006       0.000000
     -0.000331       0.000152       0.000000
     -0.000563       0.000178       0.000000
     -0.000487       0.000019       0.000000
     -0.000331       0.000152       0.000000
     -0.000348       0.000392       0.000000
     -0.000694       0.000428       0.000000
     -0.000563       0.000178       0.000000
     -0.000083       0.000365       0.000000
     -0.000076       0.000522       0.000000
     -0.000194       0.000557       0.000000
     -0.000201       0.000382       0.000000
     -0.000076       0.000522       0.000000
     -0.000080       0.000716       0.000000
     -0.000191       0.000785       0.000000
     -0.000194       0.000557       0.000000
     -0.000201       0.000382       0.000000
     -0.000194       0.000557       0.000000
     -0.000351       0.000577       0.000000
     -0.000348       0.000392       0.000000
     -0.000194       0.000557       0.000000
     -0.000191       0.000785       0.000000
     -0.000348       0.000832       0.000000
     -0.000351       0.000577       0.000000
     -0.000080       0.000716       0.000000
     -0.000107       0.000938       0.000000
     -0.000209       0.001065       0.000000
     -0.000191       0.000785       0.000000
     -0.000107       0.000938       0.000000
     -0.000166       0.001169       0.000000
     -0.000270       0.001366       0.000000
     -0.000209       0.001065       0.000000
     -0.000191       0.000785       0.000000
     -0.000209       0.001065       0.000000
     -0.000351       0.001179       0.000000
     -0.000348       0.000832       0.000000
     -0.000209       0.001065       0.000000
     -0.000270       0.001366       0.000000
     -0.000409       0.001590       0.000000
     -0.000351       0.001179       0.000000
     -0.000348       0.000392       0.000000
     -0.000351       0.000577       0.000000
     -0.000554       0.000590       0.000000
     -0.000520       0.000403       0.000000
     -0.000351       0.000577       0.000000
     -0.000348       0.000832       0.000000
     -0.000578       0.000854       0.000000
     -0.000554       0.000590       0.000000
     -0.000520       0.000403       0.000000
     -0.000554       0.000590       0.000000
     -0.000782       0.000617       0.000000
     -0.000694       0.000428       0.000000
     -0.000554       0.000590       0.000000
     -0.000578       0.000854       0.000000
     -0.000887       0.000881       0.000000
     -0.000782       0.000617       0.000000
     -0.000348       0.000832       0.000000
     -0.000346       0.000994       0.000000
     -0.000450       0.001018       0.000000
     -0.000452       0.000846       0.000000
     -0.000346       0.000994       0.000000
     -0.000351       0.001179       0.000000
     -0.000449       0.001225       0.000000
     -0.000450       0.001018       0.000000
     -0.000452       0.000846       0.000000
     -0.000450       0.001018       0.000000
     -0.000582       0.001032       0.000000
     -0.000578       0.000854       0.000000
     -0.000450       0.001018       0.000000
     -0.000449       0.001225       0.000000
     -0.000579       0.001255       0.000000
     -0.000582       0.001032       0.000000
     -0.000351       0.001179       0.000000
     -0.000370       0.001383       0.000000
     -0.000460       0.001465       0.000000
     -0.000449       0.001225       0.000000
     -0.000370       0.001383       0.000000
     -0.000409       0.001590       0.000000
     -0.000498       0.001720       0.000000
     -0.000460       0.001465       0.000000
     -0.000449       0.001225       0.000000
     -0.000460       0.001465       0.000000
     -0.000578       0.001541       0.000000
     -0.000579       0.001255       0.000000
     -0.000460       0.001465       0.000000
     -0.000498       0.001720       0.000000
     -0.000612       0.001873       0.000000
     -0.000578       0.001541       0.000000
     -0.000578       0.000854       0.000000
     -0.000582       0.001032       0.000000
     -0.000751       0.001040       0.000000
     -0.000727       0.000863       0.000000
     -0.000582       0.001032       0.000000
     -0.000579       0.001255       0.000000
     -0.000765       0.001268       0.000000
     -0.000751       0.001040       0.000000
     -0.000727       0.000863       0.000000
     -0.000751       0.001040       0.000000
     -0.000948       0.001058       0.000000
     -0.000887       0.000881       0.000000
     -0.000751       0.001040       0.000000
     -0.000765       0.001268       0.000000
     -0.001016       0.001285       0.000000
     -0.000948       0.001058       0.000000
     -0.000579       0.001255       0.000000
     -0.000577       0.001390       0.000000
     -0.000659       0.001406       0.000000
     -0.000663       0.001264       0.000000
     -0.000577       0.001390       0.000000
     -0.000578       0.001541       0.000000
     -0.000655       0.001573       0.000000
     -0.000659       0.001406       0.000000
     -0.000663       0.001264       0.000000
     -0.000659       0.001406       0.000000
     -0.000765       0.001414       0.000000
     -0.000765       0.001268       0.000000
     -0.000659       0.001406       0.000000
     -0.000655       0.001573       0.000000
     -0.000757       0.001594       0.000000
     -0.000765       0.001414       0.000000
     -0.000578       0.001541       0.000000
     -0.000588       0.001706       0.000000
     -0.000660       0.001765       0.000000
     -0.000655       0.001573       0.000000
     -0.000588       0.001706       0.000000
     -0.000612       0.001873       0.000000
     -0.000683       0.001968       0.000000
     -0.000660       0.001765       0.000000
     -0.000655       0.001573       0.000000
     -0.000660       0.001765       0.000000
     -0.000751       0.001822       0.000000
     -0.000757       0.001594       0.000000
     -0.000660       0.001765       0.000000
     -0.000683       0.001968       0.000000
     -0.000772       0.002086       0.000000
     -0.000751       0.001822       0.000000
     -0.000765       0.001268       0.000000
     -0.000765       0.001414       0.000000
     -0.000899       0.001418       0.000000
     -0.000885       0.001273       0.000000
     -0.000765       0.001414       0.000000
     -0.000757       0.001594       0.000000
     -0.000903       0.001601       0.000000
     -0.000899       0.001418       0.000000
     -0.000885       0.001273       0.000000
     -0.000899       0.001418       0.000000
     -0.001056       0.001429       0.000000
     -0.001016       0.001285       0.000000
     -0.000899       0.001418       0.000000
     -0.000903       0.001601       0.000000
     -0.001103       0.001613       0.000000
     -0.001056       0.001429       0.000000
     -0.000757       0.001594       0.000000
     -0.000751       0.001822       0.000000
     -0.000889       0.001863       0.000000
     -0.000903       0.001601       0.000000
     -0.000751       0.001822       0.000000
     -0.000772       0.002086       0.000000
     -0.000898       0.002263       0.000000
     -0.000889       0.001863       0.000000
     -0.000903       0.001601       0.000000
     -0.000889       0.001863       0.000000
     -0.001168       0.001886       0.000000
     -0.001103       0.001613       0.000000
     -0.000889       0.001863       0.000000
     -0.000898       0.002263       0.000000
     -0.001250       0.002761       0.000000
     -0.001168       0.001886       0.000000
      0.000000       0.000000       0.000000
      0.000000       0.000000       0.000000
      0.000017       0.000297       0.000000
      0.000078       0.000238       0.000000
      0.000000       0.000000       0.000000
      0.000000       0.000000       0.000000
     -0.000062       0.000343       0.000000
      0.000017       0.000297       0.000000
      0.000078       0.000238       0.000000
      0.000017       0.000297       0.000000
     -0.000047       0.000648       0.000000
      0.000064       0.000511       0.000000
      0.000017       0.000297       0.000000
     -0.000062       0.000343       0.000000
     -0.000192       0.000750       0.000000
     -0.000047       0.000648       0.000000
      0.000000       0.000000       0.000000
      0.000000       0.000000       0.000000
     -0.000153       0.000378       0.000000
     -0.000062       0.000343       0.000000
      0.000000       0.000000       0.000000
      0.000000       0.000000       0.000000
     -0.000258       0.000418       0.000000
     -0.000153       0.000378       0.000000
     -0.000062       0.000343       0.000000
     -0.000153       0.000378       0.000000
     -0.000356       0.000825       0.000000
     -0.000192       0.000750       0.000000
     -0.000153       0.000378       0.000000
     -0.000258       0.000418       0.000000
     -0.000536       0.000903       0.000000
     -0.000356       0.000825       0.000000
      0.000000       0.000000       0.000000
      0.000000       0.000000       0.000000
     -0.000401       0.000502       0.000000
     -0.000258       0.000418       0.000000
      0.000000       0.000000       0.000000
      0.000000       0.000000       0.000000
     -0.000622       0.000759       0.000000
     -0.000401       0.000502       0.000000
     -0.000258       0.000418       0.000000
     -0.000401       0.000502       0.000000
     -0.000737       0.001033       0.000000
     -0.000536       0.000903       0.000000
     -0.000401       0.000502       0.000000
     -0.000622       0.000759       0.000000
     -0.000947       0.001261       0.000000
     -0.000737       0.001033       0.000000
      0.000064       0.000511       0.000000
     -0.000047       0.000648       0.000000
     -0.000176       0.001059       0.000000
     -0.000019       0.000819       0.000000
     -0.000047       0.000648       0.000000
     -0.000192       0.000750       0.000000
     -0.000376       0.001219       0.000000
     -0.000176       0.001059       0.000000
     -0.000019       0.000819       0.000000
     -0.000176       0.001059       0.000000
     -0.000373       0.001545       0.000000
     -0.000166       0.001169       0.000000
     -0.000176       0.001059       0.000000
     -0.000376       0.001219       0.000000
     -0.000607       0.001741       0.000000
     -0.000373       0.001545       0.000000
     -0.000192       0.000750       0.000000
     -0.000356       0.000825       0.000000
     -0.000585       0.001319       0.000000
     -0.000376       0.001219       0.000000
     -0.000356       0.000825       0.000000
     -0.000536       0.000903       0.000000
     -0.000793       0.001407       0.000000
     -0.000585       0.001319       0.000000
     -0.000376       0.001219       0.000000
     -0.000585       0.001319       0.000000
     -0.000817       0.001832       0.000000
     -0.000607       0.001741       0.000000
     -0.000585       0.001319       0.000000
     -0.000793       0.001407       0.000000
     -0.001015       0.001900       0.000000
     -0.000817       0.001832       0.000000
     -0.000536       0.000903       0.000000
     -0.000737       0.001033       0.000000
     -0.001000       0.001529       0.000000
     -0.000793       0.001407       0.000000
     -0.000737       0.001033       0.000000
     -0.000947       0.001261       0.000000
     -0.001195       0.001713       0.000000
     -0.001000       0.001529       0.000000
     -0.000793       0.001407       0.000000
     -0.001000       0.001529       0.000000
     -0.001208       0.001991       0.000000
     -0.001015       0.001900       0.000000
     -0.001000       0.001529       0.000000
     -0.001195       0.001713       0.000000
     -0.001389       0.002127       0.000000
     -0.001208       0.001991       0.000000
     -0.000607       0.001741       0.000000
     -0.000817       0.001832       0.000000
     -0.001013       0.002326       0.000000
     -0.000858       0.002279       0.000000
     -0.000817       0.001832       0.000000
     -0.001015       0.001900       0.000000
     -0.001178       0.002369       0.000000
     -0.001013       0.002326       0.000000
     -0.000858       0.002279       0.000000
     -0.001013       0.002326       0.000000
     -0.001104       0.002786       0.000000
     -0.000998       0.002767       0.000000
     -0.001013       0.002326       0.000000
     -0.001178       0.002369       0.000000
     -0.001249       0.002814       0.000000
     -0.001104       0.002786       0.000000
     -0.001015       0.001900       0.000000
     -0.001208       0.001991       0.000000
     -0.001353       0.002427       0.000000
     -0.001178       0.002369       0.000000
     -0.001208       0.001991       0.000000
     -0.001389       0.002127       0.000000
     -0.001522       0.002509       0.000000
     -0.001353       0.002427       0.000000
     -0.001178       0.002369       0.000000
     -0.001353       0.002427       0.000000
     -0.001415       0.002846       0.000000
     -0.001249       0.002814       0.000000
     -0.001353       0.002427       0.000000
     -0.001522       0.002509       0.000000
     -0.001582       0.002873       0.000000
     -0.001415       0.002846       0.000000
     -0.000166       0.001169       0.000000
     -0.000259       0.001378       0.000000
     -0.000378       0.001634       0.000000
     -0.000270       0.001366       0.000000
     -0.000259       0.001378       0.000000
     -0.000373       0.001545       0.000000
     -0.000506       0.001826       0.000000
     -0.000378       0.001634       0.000000
     -0.000270       0.001366       0.000000
     -0.000378       0.001634       0.000000
     -0.000538       0.001939       0.000000
     -0.000409       0.001590       0.000000
     -0.000378       0.001634       0.000000
     -0.000506       0.001826       0.000000
     -0.000671       0.002138       0.000000
     -0.000538       0.001939       0.000000
     -0.000373       0.001545       0.000000
     -0.000492       0.001662       0.000000
     -0.000628       0.001944       0.000000
     -0.000506       0.001826       0.000000
     -0.000492       0.001662       0.000000
     -0.000607       0.001741       0.000000
     -0.000735       0.002012       0.000000
     -0.000628       0.001944       0.000000
     -0.000506       0.001826       0.000000
     -0.000628       0.001944       0.000000
     -0.000775       0.002233       0.000000