# vtk DataFile Version 2.0
time_10.vtk
ASCII
DATASET UNSTRUCTURED_GRID
POINTS  2316 float
      0.000000       0.000000       0.000000
      0.083333       0.000000       0.000000
      0.083333       0.083333       0.000000
      0.000000       0.083333       0.000000
      0.083333       0.000000       0.000000
      0.166667       0.000000       0.000000
      0.166667       0.083333       0.000000
      0.083333       0.083333       0.000000
      0.000000       0.083333       0.000000
      0.083333       0.083333       0.000000
      0.083333       0.166667       0.000000
      0.000000       0.166667       0.000000
      0.083333       0.083333       0.000000
      0.166667       0.083333       0.000000
      0.166667       0.166667       0.000000
      0.083333       0.166667       0.000000
      0.166667       0.000000       0.000000
      0.250000       0.000000       0.000000
      0.250000       0.083333       0.000000
      0.166667       0.083333       0.000000
      0.250000       0.000000       0.000000
      0.333333       0.000000       0.000000
      0.333333       0.083333       0.000000
      0.250000       0.083333       0.000000
      0.166667       0.083333       0.000000
      0.250000       0.083333       0.000000
      0.250000       0.166667       0.000000
      0.166667       0.166667       0.000000
      0.250000       0.083333       0.000000
      0.333333       0.083333       0.000000
      0.333333       0.166667       0.000000
      0.250000       0.166667       0.000000
      0.333333       0.000000       0.000000
      0.416667      -0.000000       0.000000
      0.416667       0.083333       0.000000
      0.333333       0.083333       0.000000
      0.416667      -0.000000       0.000000
      0.500000       0.000000       0.000000
      0.500000       0.083333       0.000000
      0.416667       0.083333       0.000000
      0.333333       0.083333       0.000000
      0.416667       0.083333       0.000000
      0.416667       0.166667       0.000000
      0.333333       0.166667       0.000000
      0.416667       0.083333       0.000000
      0.500000       0.083333       0.000000
      0.500000       0.166667       0.000000
      0.416667       0.166667       0.000000
      0.000000       0.166667       0.000000
      0.083333       0.166667       0.000000
      0.083333       0.250000       0.000000
      0.000000       0.250000       0.000000
      0.083333       0.166667       0.000000
      0.166667       0.166667       0.000000
      0.166667       0.250000       0.000000
      0.083333       0.250000       0.000000
      0.000000       0.250000       0.000000
      0.083333       0.250000       0.000000
      0.083333       0.333333       0.000000
      0.000000       0.333333       0.000000
      0.083333       0.250000       0.000000
      0.166667       0.250000       0.000000
      0.166667       0.333333       0.000000
      0.083333       0.333333       0.000000
      0.166667       0.166667       0.000000
      0.250000       0.166667       0.000000
      0.250000       0.250000       0.000000
      0.166667       0.250000       0.000000
      0.250000       0.166667       0.000000
      0.333333       0.166667       0.000000
      0.333333       0.250000       0.000000
      0.250000       0.250000       0.000000
      0.166667       0.250000       0.000000
      0.250000       0.250000       0.000000
      0.250000       0.333333       0.000000
      0.166667       0.333333       0.000000
      0.250000       0.250000       0.000000
      0.333333       0.250000       0.000000
      0.333333       0.333333       0.000000
      0.250000       0.333333       0.000000
      0.333333       0.166667       0.000000
      0.416667       0.166667       0.000000
      0.416667       0.250000       0.000000
      0.333333       0.250000       0.000000
      0.416667       0.166667       0.000000
      0.500000       0.166667       0.000000
      0.500000       0.250000       0.000000
      0.416667       0.250000       0.000000
      0.333333       0.250000       0.000000
      0.416667       0.250000       0.000000
      0.416667       0.333333       0.000000
      0.333333       0.333333       0.000000
      0.416667       0.250000       0.000000
      0.500000       0.250000       0.000000
      0.500000       0.333333       0.000000
      0.416667       0.333333       0.000000
      0.000000       0.333333       0.000000
      0.083333       0.333333       0.000000
      0.083333       0.416667       0.000000
     -0.000000       0.416667       0.000000
      0.083333       0.333333       0.000000
      0.166667       0.333333       0.000000
      0.166667       0.416667       0.000000
      0.083333       0.416667       0.000000
     -0.000000       0.416667       0.000000
      0.083333       0.416667       0.000000
      0.083333       0.500000       0.000000
      0.000000       0.500000       0.000000
      0.083333       0.416667       0.000000
      0.166667       0.416667       0.000000
      0.166667       0.500000       0.000000
      0.083333       0.500000       0.000000
      0.166667       0.333333       0.000000
      0.250000       0.333333       0.000000
      0.250000       0.416667       0.000000
      0.166667       0.416667       0.000000
      0.250000       0.333333       0.000000
      0.333333       0.333333       0.000000
      0.333333       0.416667       0.000000
      0.250000       0.416667       0.000000
      0.166667       0.416667       0.000000
      0.250000       0.416667       0.000000
      0.250000       0.500000       0.000000
      0.166667       0.500000       0.000000
      0.250000       0.416667       0.000000
      0.333333       0.416667       0.000000
      0.333333       0.500000       0.000000
      0.250000       0.500000       0.000000
      0.333333       0.333333       0.000000
      0.375000       0.333333       0.000000
      0.375000       0.375000       0.000000
      0.333333       0.375000       0.000000
      0.375000       0.333333       0.000000
      0.416667       0.333333       0.000000
      0.416667       0.375000       0.000000
      0.375000       0.375000       0.000000
      0.333333       0.375000       0.000000
      0.375000       0.375000       0.000000
      0.375000       0.416667       0.000000
      0.333333       0.416667       0.000000
      0.375000       0.375000       0.000000
      0.416667       0.375000       0.000000
      0.416667       0.416667       0.000000
      0.375000       0.416667       0.000000
      0.416667       0.333333       0.000000
      0.458333       0.333333       0.000000
      0.458333       0.375000       0.000000
      0.416667       0.375000       0.000000
      0.458333       0.333333       0.000000
      0.500000       0.333333       0.000000
      0.500000       0.375000       0.000000
      0.458333       0.375000       0.000000
      0.416667       0.375000       0.000000
      0.458333       0.375000       0.000000
      0.458333       0.416667       0.000000
      0.416667       0.416667       0.000000
      0.458333       0.375000       0.000000
      0.500000       0.375000       0.000000
      0.500000       0.416667       0.000000
      0.458333       0.416667       0.000000
      0.333333       0.416667       0.000000
      0.375000       0.416667       0.000000
      0.375000       0.458333       0.000000
      0.333333       0.458333       0.000000
      0.375000       0.416667       0.000000
      0.416667       0.416667       0.000000
      0.416667       0.458333       0.000000
      0.375000       0.458333       0.000000
      0.333333       0.458333       0.000000
      0.375000       0.458333       0.000000
      0.375000       0.500000       0.000000
      0.333333       0.500000       0.000000
      0.375000       0.458333       0.000000
      0.416667       0.458333       0.000000
      0.416667       0.500000       0.000000
      0.375000       0.500000       0.000000
      0.416667       0.416667       0.000000
      0.437500       0.416667       0.000000
      0.437500       0.437500       0.000000
      0.416667       0.437500       0.000000
      0.437500       0.416667       0.000000
      0.458333       0.416667       0.000000
      0.458333       0.437500       0.000000
      0.437500       0.437500       0.000000
      0.416667       0.437500       0.000000
      0.437500       0.437500       0.000000
      0.437500       0.458333       0.000000
      0.416667       0.458333       0.000000
      0.437500       0.437500       0.000000
      0.458333       0.437500       0.000000
      0.458333       0.458333       0.000000
      0.437500       0.458333       0.000000
      0.458333       0.416667       0.000000
      0.479167       0.416667       0.000000
      0.479167       0.437500       0.000000
      0.458333       0.437500       0.000000
      0.479167       0.416667       0.000000
      0.500000       0.416667       0.000000
      0.500000       0.437500       0.000000
      0.479167       0.437500       0.000000
      0.458333       0.437500       0.000000
      0.479167       0.437500       0.000000
      0.479167       0.458333       0.000000
      0.458333       0.458333       0.000000
      0.479167       0.437500       0.000000
      0.500000       0.437500       0.000000
      0.500000       0.458333       0.000000
      0.479167       0.458333       0.000000
      0.416667       0.458333       0.000000
      0.437500       0.458333       0.000000
      0.437500       0.479167       0.000000
      0.416667       0.479167       0.000000
      0.437500       0.458333       0.000000
      0.458333       0.458333       0.000000
      0.458333       0.479167       0.000000
      0.437500       0.479167       0.000000
      0.416667       0.479167       0.000000
      0.437500       0.479167       0.000000
      0.437500       0.500000       0.000000
      0.416667       0.500000       0.000000
[...]
POINT_DATA  2316
VECTORS U float 
      0.000000       0.000000       0.000000
      0.000000       0.000000       0.000000
     -0.000048      -0.000032       0.000000
     -0.000064      -0.000067       0.000000
      0.000000       0.000000       0.000000
      0.000000       0.000000       0.000000
     -0.000040      -0.000019       0.000000
     -0.000048      -0.000032       0.000000
     -0.000064      -0.000067       0.000000
     -0.000048      -0.000032       0.000000
     -0.000109      -0.000063       0.000000
     -0.000122      -0.000108       0.000000
     -0.000048      -0.000032       0.000000
     -0.000040      -0.000019       0.000000
     -0.000099      -0.000040       0.000000
     -0.000109      -0.000063       0.000000
      0.000000       0.000000       0.000000
      0.000000       0.000000       0.000000
     -0.000033      -0.000012       0.000000
     -0.000040      -0.000019       0.000000
      0.000000       0.000000       0.000000
      0.000000       0.000000       0.000000
     -0.000022      -0.000005       0.000000
     -0.000033      -0.000012       0.000000
     -0.000040      -0.000019       0.000000
     -0.000033      -0.000012       0.000000
     -0.000089      -0.000027       0.000000
     -0.000099      -0.000040       0.000000
     -0.000033      -0.000012       0.000000
     -0.000022      -0.000005       0.000000
     -0.000077      -0.000016       0.000000
     -0.000089      -0.000027       0.000000
      0.000000       0.000000       0.000000
      0.000000       0.000000       0.000000
     -0.000007       0.000006       0.000000
     -0.000022      -0.000005       0.000000
      0.000000       0.000000       0.000000
      0.000000       0.000000       0.000000
      0.000014       0.000025       0.000000
     -0.000007       0.000006       0.000000
     -0.000022      -0.000005       0.000000
     -0.000007       0.000006       0.000000
     -0.000060       0.000002       0.000000
     -0.000077      -0.000016       0.000000
     -0.000007       0.000006       0.000000
      0.000014       0.000025       0.000000
     -0.000038       0.000038       0.000000
     -0.000060       0.000002       0.000000
     -0.000122      -0.000108       0.000000
     -0.000109      -0.000063       0.000000
     -0.000176      -0.000086       0.000000
     -0.000184      -0.000136       0.000000
     -0.000109      -0.000063       0.000000
     -0.000099      -0.000040       0.000000
     -0.000170      -0.000058       0.000000
     -0.000176      -0.000086       0.000000
     -0.000184      -0.000136       0.000000
     -0.000176      -0.000086       0.000000
     -0.000244      -0.000100       0.000000
     -0.000248      -0.000150       0.000000
     -0.000176      -0.000086       0.000000
     -0.000170      -0.000058       0.000000
     -0.000244      -0.000069       0.000000
     -0.000244      -0.000100       0.000000
     -0.000099      -0.000040       0.000000
     -0.000089      -0.000027       0.000000
     -0.000165      -0.000041       0.000000
     -0.000170      -0.000058       0.000000
     -0.000089      -0.000027       0.000000
     -0.000077      -0.000016       0.000000
     -0.000161      -0.000026       0.000000
     -0.000165      -0.000041       0.000000
     -0.000170      -0.000058       0.000000
     -0.000165      -0.000041       0.000000
     -0.000248      -0.000047       0.000000
     -0.000244      -0.000069       0.000000
     -0.000165      -0.000041       0.000000
     -0.000161      -0.000026       0.000000
     -0.000258      -0.000028       0.000000
     -0.000248      -0.000047       0.000000
     -0.000077      -0.000016       0.000000
     -0.000060       0.000002       0.000000
     -0.000155      -0.000003       0.000000
     -0.000161      -0.000026       0.000000
     -0.000060       0.000002       0.000000
     -0.000038       0.000038       0.000000
     -0.000147       0.000045       0.000000
     -0.000155      -0.000003       0.000000
     -0.000161      -0.000026       0.000000
     -0.000155      -0.000003       0.000000
     -0.000276       0.000001       0.000000
     -0.000258      -0.000028       0.000000
     -0.000155      -0.000003       0.000000
     -0.000147       0.000045       0.000000
     -0.000298       0.000055       0.000000
     -0.000276       0.000001       0.000000
     -0.000248      -0.000150       0.000000
     -0.000244      -0.000100       0.000000
     -0.000305      -0.000106       0.000000
     -0.000305      -0.000153       0.000000
     -0.000244      -0.000100       0.000000
     -0.000244      -0.000069       0.000000
     -0.000310      -0.000071       0.000000
     -0.000305      -0.000106       0.000000
     -0.000305      -0.000153       0.000000
     -0.000305      -0.000106       0.000000
     -0.000354      -0.000106       0.000000
     -0.000355      -0.000153       0.000000
     -0.000305      -0.000106       0.000000
     -0.000310      -0.000071       0.000000
     -0.000358      -0.000068       0.000000
     -0.000354      -0.000106       0.000000
     -0.000244      -0.000069       0.000000
     -0.000248      -0.000047       0.000000
     -0.000323      -0.000045       0.000000
     -0.000310      -0.000071       0.000000
     -0.000248      -0.000047       0.000000
     -0.000258      -0.000028       0.000000
     -0.000348      -0.000018       0.000000
     -0.000323      -0.000045       0.000000
     -0.000310      -0.000071       0.000000
     -0.000323      -0.000045       0.000000
     -0.000374      -0.000036       0.000000
     -0.000358      -0.000068       0.000000
     -0.000323      -0.000045       0.000000
     -0.000348      -0.000018       0.000000
     -0.000408      -0.000002       0.000000
     -0.000374      -0.000036       0.000000
     -0.000258      -0.000028       0.000000
     -0.000266      -0.000015       0.000000
     -0.000319      -0.000010       0.000000
     -0.000306      -0.000024       0.000000
     -0.000266      -0.000015       0.000000
     -0.000276       0.000001       0.000000
     -0.000336       0.000008       0.000000
     -0.000319      -0.000010       0.000000
     -0.000306      -0.000024       0.000000
     -0.000319      -0.000010       0.000000
     -0.000366      -0.000001       0.000000
     -0.000348      -0.000018       0.000000
     -0.000319      -0.000010       0.000000
     -0.000336       0.000008       0.000000
     -0.000389       0.000020       0.000000
     -0.000366      -0.000001       0.000000
     -0.000276       0.000001       0.000000
     -0.000286       0.000023       0.000000
     -0.000356       0.000032       0.000000
     -0.000336       0.000008       0.000000
     -0.000286       0.000023       0.000000
     -0.000298       0.000055       0.000000
     -0.000379       0.000064       0.000000
     -0.000356       0.000032       0.000000
     -0.000336       0.000008       0.000000
     -0.000356       0.000032       0.000000
     -0.000419       0.000046       0.000000
     -0.000389       0.000020       0.000000
     -0.000356       0.000032       0.000000
     -0.000379       0.000064       0.000000
     -0.000455       0.000079       0.000000
     -0.000419       0.000046       0.000000
     -0.000348      -0.000018       0.000000
     -0.000366      -0.000001       0.000000
     -0.000404       0.000009       0.000000
     -0.000383      -0.000011       0.000000
     -0.000366      -0.000001       0.000000
     -0.000389       0.000020       0.000000
     -0.000430       0.000034       0.000000
     -0.000404       0.000009       0.000000
     -0.000383      -0.000011       0.000000
     -0.000404       0.000009       0.000000
     -0.000433       0.000020       0.000000
     -0.000408      -0.000002       0.000000
     -0.000404       0.000009       0.000000
     -0.000430       0.000034       0.000000
     -0.000462       0.000048       0.000000
     -0.000433       0.000020       0.000000
     -0.000389       0.000020       0.000000
     -0.000403       0.000033       0.000000
     -0.000427       0.000041       0.000000
     -0.000411       0.000027       0.000000
     -0.000403       0.000033       0.000000
     -0.000419       0.000046       0.000000
     -0.000444       0.000055       0.000000
     -0.000427       0.000041       0.000000
     -0.000411       0.000027       0.000000
     -0.000427       0.000041       0.000000
     -0.000446       0.000049       0.000000
     -0.000430       0.000034       0.000000
     -0.000427       0.000041       0.000000
     -0.000444       0.000055       0.000000
     -0.000463       0.000066       0.000000
     -0.000446       0.000049       0.000000
     -0.000419       0.000046       0.000000
     -0.000436       0.000061       0.000000
     -0.000465       0.000071       0.000000
     -0.000444       0.000055       0.000000
     -0.000436       0.000061       0.000000
     -0.000455       0.000079       0.000000
     -0.000488       0.000088       0.000000
     -0.000465       0.000071       0.000000
     -0.000444       0.000055       0.000000
     -0.000465       0.000071       0.000000
     -0.000485       0.000082       0.000000
     -0.000463       0.000066       0.000000
     -0.000465       0.000071       0.000000
     -0.000488       0.000088       0.000000
     -0.000513       0.000100       0.000000
     -0.000485       0.000082       0.000000
     -0.000430       0.000034       0.000000
     -0.000446       0.000049       0.000000
     -0.000461       0.000057       0.000000
     -0.000447       0.000041       0.000000
     -0.000446       0.000049       0.000000
     -0.000463       0.000066       0.000000
     -0.000477       0.000075       0.000000
     -0.000461       0.000057       0.000000
     -0.000447       0.000041       0.000000
     -0.000461       0.000057       0.000000
     -0.000477       0.000064       0.000000
     -0.000462       0.000048       0.000000
     -0.000461       0.000057       0.000000
     -0.000477       0.000075       0.000000
     -0.000492       0.000082       0.000000
     -0.000477       0.000064       0.000000
     -0.000463       0.000066       0.000000
     -0.000474       0.000074       0.000000
     -0.000481       0.000080       0.000000
     -0.000471       0.000071       0.000000
     -0.000474       0.000074       0.000000
     -0.000485       0.000082       0.000000
     -0.000492       0.000088       0.000000
     -0.000481       0.000080       0.000000
     -0.000471       0.000071       0.000000
     -0.000481       0.000080       0.000000
     -0.000486       0.000085       0.000000
     -0.000477       0.000075       0.000000
     -0.000481       0.000080       0.000000
     -0.000492       0.000088       0.000000
     -0.000496       0.000095       0.000000
     -0.000486       0.000085       0.000000
     -0.000485       0.000082       0.000000
     -0.000499       0.000091       0.000000
     -0.000506       0.000097       0.000000
     -0.000492       0.000088       0.000000
     -0.000499       0.000091       0.000000
     -0.000513       0.000100       0.000000
     -0.000522       0.000107       0.000000
     -0.000506       0.000097       0.000000
     -0.000492       0.000088       0.000000
     -0.000506       0.000097       0.000000
     -0.000509       0.000105       0.000000
     -0.000496       0.000095       0.000000
     -0.000506       0.000097       0.000000
     -0.000522       0.000107       0.000000
     -0.000528       0.000119       0.000000
     -0.000509       0.000105       0.000000
     -0.000477       0.000075       0.000000
     -0.000486       0.000085       0.000000
     -0.000491       0.000089       0.000000
     -0.000484       0.000079       0.000000
     -0.000486       0.000085       0.000000
     -0.000496       0.000095       0.000000
     -0.000498       0.000100       0.000000
     -0.000491       0.000089       0.000000
     -0.000484       0.000079       0.000000
     -0.000491       0.000089       0.000000
     -0.000498       0.000093       0.000000
     -0.000492       0.000082       0.000000
     -0.000491       0.000089       0.000000
     -0.000498       0.000100       0.000000
     -0.000503       0.000110       0.000000
     -0.000498       0.000093       0.000000
     -0.000496       0.000095       0.000000
     -0.000509       0.000105       0.000000
     -0.000506       0.000111       0.000000
     -0.000498       0.000100       0.000000
     -0.000509       0.000105       0.000000
     -0.000528       0.000119       0.000000
     -0.000527       0.000169       0.000000
     -0.000506       0.000111       0.000000
     -0.000498       0.000100       0.000000
     -0.000506       0.000111       0.000000
     -0.000504       0.000184       0.000000
     -0.000503       0.000110       0.000000
     -0.000506       0.000111       0.000000
     -0.000527       0.000169       0.000000
     -0.000605       0.005835       0.000000
     -0.000504       0.000184       0.000000
      0.000000       0.000000       0.000000
      0.000000       0.000000       0.000000
      0.000035       0.000059       0.000000
      0.000014       0.000025       0.000000
      0.000000       0.000000       0.000000
      0.000000       0.000000       0.000000
      0.000046       0.000113       0.000000
      0.000035       0.000059       0.000000
      0.000014       0.000025       0.000000
      0.000035       0.000059       0.000000
     -0.000015       0.000106       0.000000
     -0.000038       0.000038       0.000000
      0.000035       0.000059       0.000000
      0.000046       0.000113       0.000000
     -0.000006       0.000222       0.000000
     -0.000015       0.000106       0.000000
      0.000000       0.000000       0.000000
      0.000000       0.000000       0.000000
      0.000034       0.000186       0.000000
      0.000046       0.000113       0.000000
      0.000000       0.000000       0.000000
      0.000000       0.000000       0.000000
     -0.000017       0.000276       0.000000
      0.000034       0.000186       0.000000
      0.000046       0.000113       0.000000
      0.000034       0.000186       0.000000
     -0.000033       0.000388       0.000000
     -0.000006       0.000222       0.000000
      0.000034       0.000186       0.000000
     -0.000017       0.000276       0.000000
     -0.000120       0.000594       0.000000
     -0.000033       0.000388       0.000000
      0.000000       0.000000       0.000000
      0.000000       0.000000       0.000000
     -0.000129       0.000383       0.000000
     -0.000017       0.000276       0.000000
      0.000000       0.000000       0.000000
      0.000000       0.000000       0.000000
     -0.000316       0.000537       0.000000
     -0.000129       0.000383       0.000000
     -0.000017       0.000276       0.000000
     -0.000129       0.000383       0.000000
     -0.000275       0.000821       0.000000
     -0.000120       0.000594       0.000000
     -0.000129       0.000383       0.000000
     -0.000316       0.000537       0.000000
     -0.000483       0.001038       0.000000
     -0.000275       0.000821       0.000000
     -0.000038       0.000038       0.000000
     -0.000015       0.000106       0.000000
     -0.000137       0.000143       0.000000
     -0.000147       0.000045       0.000000
     -0.000015       0.000106       0.000000
     -0.000006       0.000222       0.000000
     -0.000138       0.000322       0.000000
     -0.000137       0.000143       0.000000
     -0.000147       0.000045       0.000000
     -0.000137       0.000143       0.000000
     -0.000321       0.000171       0.000000
     -0.000298       0.000055       0.000000
     -0.000137       0.000143       0.000000
     -0.000138       0.000322       0.000000
     -0.000348       0.000402       0.000000
     -0.000321       0.000171       0.000000
     -0.000006       0.000222       0.000000
     -0.000033       0.000388       0.000000
     -0.000178       0.000595       0.000000
     -0.000138       0.000322       0.000000
     -0.000033       0.000388       0.000000
     -0.000120       0.000594       0.000000
     -0.000292       0.000934       0.000000
     -0.000178       0.000595       0.000000
     -0.000138       0.000322       0.000000
     -0.000178       0.000595       0.000000
     -0.000402       0.000794       0.000000
     -0.000348       0.000402       0.000000
     -0.000178       0.000595       0.000000
     -0.000292       0.000934       0.000000
     -0.000555       0.001313       0.000000
     -0.000402       0.000794       0.000000
     -0.000120       0.000594       0.000000
     -0.000275       0.000821       0.000000
     -0.000479       0.001282       0.000000
     -0.000292       0.000934       0.000000
     -0.000275       0.000821       0.000000
     -0.000483       0.001038       0.000000
     -0.000710       0.001598       0.000000
     -0.000479       0.001282       0.000000
     -0.000292       0.000934       0.000000
     -0.000479       0.001282       0.000000
     -0.000812       0.001791       0.000000
     -0.000555       0.001313       0.000000
     -0.000479       0.001282       0.000000
     -0.000710       0.001598       0.000000
     -0.001069       0.002204       0.000000
     -0.000812       0.001791       0.000000
     -0.000555       0.001313       0.000000
     -0.000812       0.001791       0.000000
     -0.001314       0.002396       0.000000
     -0.000944       0.001807       0.000000
     -0.000812       0.001791       0.000000
     -0.001069       0.002204       0.000000
     -0.001550       0.002729       0.000000
     -0.001314       0.002396       0.000000
     -0.001314       0.002396       0.000000
     -0.001550       0.002729       0.000000
     -0.001826       0.003022       0.000000
     -0.001689       0.003016       0.000000
     -0.000298       0.000055       0.000000
     -0.000309       0.000102       0.000000
     -0.000405       0.000113       0.000000
     -0.000379       0.000064       0.000000
     -0.000309       0.000102       0.000000
     -0.000321       0.000171       0.000000
     -0.000432       0.000186       0.000000
     -0.000405       0.000113       0.000000
     -0.000379       0.000064       0.000000
     -0.000405       0.000113       0.000000
     -0.000499       0.000130       0.000000
     -0.000455       0.000079       0.000000
     -0.000405       0.000113       0.000000
     -0.000432       0.000186       0.000000
     -0.000548       0.000206       0.000000
     -0.000499       0.000130       0.000000
     -0.000321       0.000171       0.000000
     -0.000334       0.000269       0.000000
     -0.000460       0.000289       0.000000
     -0.000432       0.000186       0.000000
     -0.000334       0.000269       0.000000
     -0.000348       0.000402       0.000000
     -0.000488       0.000433       0.000000
     -0.000460       0.000289       0.000000
     -0.000432       0.000186       0.000000
     -0.000460       0.000289       0.000000
     -0.000601       0.000313       0.000000
     -0.000548       0.000206       0.000000
     -0.000460       0.000289       0.000000
     -0.000488       0.000433       0.000000
     -0.000654       0.000462       0.000000
     -0.000601       0.000313       0.000000
     -0.000455       0.000079       0.000000
     -0.000476       0.000101       0.000000
     -0.000513       0.000112       0.000000
     -0.000488       0.000088       0.000000
     -0.000476       0.000101       0.000000
     -0.000499       0.000130       0.000000
     -0.000542       0.000142       0.000000
     -0.000513       0.000112       0.000000
     -0.000488       0.000088       0.000000
     -0.000513       0.000112       0.000000
     -0.000546       0.000125       0.000000
     -0.000513       0.000100       0.000000
     -0.000513       0.000112       0.000000
     -0.000542       0.000142       0.000000
     -0.000583       0.000158       0.000000