# vtk DataFile Version 2.0
time_10.vtk
ASCII
DATASET UNSTRUCTURED_GRID
POINTS  1152 float
      0.000000       0.000000       0.000000
      0.083333       0.000000       0.000000
      0.083333       0.083333       0.000000
      0.000000       0.083333       0.000000
      0.083333       0.000000       0.000000
      0.166667       0.000000       0.000000
      0.166667       0.083333       0.000000
      0.083333       0.083333       0.000000
      0.000000       0.083333       0.000000
      0.083333       0.083333       0.000000
      0.083333       0.166667       0.000000
      0.000000       0.166667       0.000000
      0.083333       0.083333       0.000000
      0.166667       0.083333       0.000000
      0.166667       0.166667       0.000000
      0.083333       0.166667       0.000000
      0.166667       0.000000       0.000000
      0.250000       0.000000       0.000000
      0.250000       0.083333       0.000000
      0.166667       0.083333       0.000000
      0.250000       0.000000       0.000000
      0.333333       0.000000       0.000000
      0.333333       0.083333       0.000000
      0.250000       0.083333       0.000000
      0.166667       0.083333       0.000000
      0.250000       0.083333       0.000000
      0.250000       0.166667       0.000000
      0.166667       0.166667       0.000000
      0.250000       0.083333       0.000000
      0.333333       0.083333       0.000000
      0.333333       0.166667       0.000000
      0.250000       0.166667       0.000000
      0.333333       0.000000       0.000000
      0.416667      -0.000000       0.000000
      0.416667       0.083333       0.000000
      0.333333       0.083333       0.000000
      0.416667      -0.000000       0.000000
      0.500000       0.000000       0.000000
      0.500000       0.083333       0.000000
      0.416667       0.083333       0.000000
      0.333333       0.083333       0.000000
      0.416667       0.083333       0.000000
      0.416667       0.166667       0.000000
      0.333333       0.166667       0.000000
      0.416667       0.083333       0.000000
      0.500000       0.083333       0.000000
      0.500000       0.166667       0.000000
      0.416667       0.166667       0.000000
      0.000000       0.166667       0.000000
      0.083333       0.166667       0.000000
      0.083333       0.250000       0.000000
      0.000000       0.250000       0.000000
      0.083333       0.166667       0.000000
      0.166667       0.166667       0.000000
      0.166667       0.250000       0.000000
      0.083333       0.250000       0.000000
      0.000000       0.250000       0.000000
      0.083333       0.250000       0.000000
      0.083333       0.333333       0.000000
      0.000000       0.333333       0.000000
      0.083333       0.250000       0.000000
      0.166667       0.250000       0.000000
      0.166667       0.333333       0.000000
      0.083333       0.333333       0.000000
      0.166667       0.166667       0.000000
      0.250000       0.166667       0.000000
      0.250000       0.250000       0.000000
      0.166667       0.250000       0.000000
      0.250000       0.166667       0.000000
      0.333333       0.166667       0.000000
      0.333333       0.250000       0.000000
      0.250000       0.250000       0.000000
      0.166667       0.250000       0.000000
      0.250000       0.250000       0.000000
      0.250000       0.333333       0.000000
      0.166667       0.333333       0.000000
      0.250000       0.250000       0.000000
      0.333333       0.250000       0.000000
      0.333333       0.333333       0.000000
      0.250000       0.333333       0.000000
      0.333333       0.166667       0.000000
      0.416667       0.166667       0.000000
      0.416667       0.250000       0.000000
      0.333333       0.250000       0.000000
      0.416667       0.166667       0.000000
      0.500000       0.166667       0.000000
      0.500000       0.250000       0.000000
      0.416667       0.250000       0.000000
      0.333333       0.250000       0.000000
      0.416667       0.250000       0.000000
      0.416667       0.333333       0.000000
      0.333333       0.333333       0.000000
      0.416667       0.250000       0.000000
      0.500000       0.250000       0.000000
      0.500000       0.333333       0.000000
      0.416667       0.333333       0.000000
      0.000000       0.333333       0.000000
      0.083333       0.333333       0.000000
      0.083333       0.416667       0.000000
     -0.000000       0.416667       0.000000
      0.083333       0.333333       0.000000
      0.166667       0.333333       0.000000
      0.166667       0.416667       0.000000
      0.083333       0.416667       0.000000
     -0.000000       0.416667       0.000000
      0.083333       0.416667       0.000000
      0.083333       0.500000       0.000000
      0.000000       0.500000       0.000000
      0.083333       0.416667       0.000000
      0.166667       0.416667       0.000000
      0.166667       0.500000       0.000000
      0.083333       0.500000       0.000000
      0.166667       0.333333       0.000000
      0.250000       0.333333       0.000000
      0.250000       0.416667       0.000000
      0.166667       0.416667       0.000000
      0.250000       0.333333       0.000000
      0.333333       0.333333       0.000000
      0.333333       0.416667       0.000000
      0.250000       0.416667       0.000000
      0.166667       0.416667       0.000000
      0.250000       0.416667       0.000000
      0.250000       0.500000       0.000000
      0.166667       0.500000       0.000000
      0.250000       0.416667       0.000000
      0.333333       0.416667       0.000000
      0.333333       0.500000       0.000000
      0.250000       0.500000       0.000000
      0.333333       0.333333       0.000000
      0.375000       0.333333       0.000000
      0.375000       0.375000       0.000000
      0.333333       0.375000       0.000000
      0.375000       0.333333       0.000000
      0.416667       0.333333       0.000000
      0.416667       0.375000       0.000000
      0.375000       0.375000       0.000000
      0.333333       0.375000       0.000000
      0.375000       0.375000       0.000000
      0.375000       0.416667       0.000000
      0.333333       0.416667       0.000000
      0.375000       0.375000       0.000000
      0.416667       0.375000       0.000000
      0.416667       0.416667       0.000000
      0.375000       0.416667       0.000000
      0.416667       0.333333       0.000000
      0.458333       0.333333       0.000000
      0.458333       0.375000       0.000000
      0.416667       0.375000       0.000000
      0.458333       0.333333       0.000000
      0.500000       0.333333       0.000000
      0.500000       0.375000       0.000000
      0.458333       0.375000       0.000000
      0.416667       0.375000       0.000000
      0.458333       0.375000       0.000000
      0.458333       0.416667       0.000000
      0.416667       0.416667       0.000000
      0.458333       0.375000       0.000000
      0.500000       0.375000       0.000000
      0.500000       0.416667       0.000000
      0.458333       0.416667       0.000000
      0.333333       0.416667       0.000000
      0.375000       0.416667       0.000000
      0.375000       0.458333       0.000000
      0.333333       0.458333       0.000000
      0.375000       0.416667       0.000000
      0.416667       0.416667       0.000000
      0.416667       0.458333       0.000000
      0.375000       0.458333       0.000000
      0.333333       0.458333       0.000000
      0.375000       0.458333       0.000000
      0.375000       0.500000       0.000000
      0.333333       0.500000       0.000000
      0.375000       0.458333       0.000000
      0.416667       0.458333       0.000000
      0.416667       0.500000       0.000000
      0.375000       0.500000       0.000000
      0.416667       0.416667       0.000000
      0.437500       0.416667       0.000000
      0.437500       0.437500       0.000000
      0.416667       0.437500       0.000000
      0.437500       0.416667       0.000000
      0.458333       0.416667       0.000000
      0.458333       0.437500       0.000000
      0.437500       0.437500       0.000000
      0.416667       0.437500       0.000000
      0.437500       0.437500       0.000000
      0.437500       0.458333       0.000000
      0.416667       0.458333       0.000000
      0.437500       0.437500       0.000000
      0.458333       0.437500       0.000000
      0.458333       0.458333       0.000000
      0.437500       0.458333       0.000000
      0.458333       0.416667       0.000000
      0.479167       0.416667       0.000000
      0.479167       0.437500       0.000000
      0.458333       0.437500       0.000000
      0.479167       0.416667       0.000000
      0.500000       0.416667       0.000000
      0.500000       0.437500       0.000000
      0.479167       0.437500       0.000000
      0.458333       0.437500       0.000000
      0.479167       0.437500       0.000000
      0.479167       0.458333       0.000000
      0.458333       0.458333       0.000000
      0.479167       0.437500       0.000000
      0.500000       0.437500       0.000000
      0.500000       0.458333       0.000000
      0.479167       0.458333       0.000000
      0.416667       0.458333       0.000000
      0.437500       0.458333       0.000000
      0.437500       0.479167       0.000000
      0.416667       0.479167       0.000000
      0.437500       0.458333       0.000000
      0.458333       0.458333       0.000000
      0.458333       0.479167       0.000000
      0.437500       0.479167       0.000000
      0.416667       0.479167       0.000000
      0.437500       0.479167       0.000000
      0.437500       0.500000       0.000000
      0.416667       0.500000       0.000000
[...]
POINT_DATA  1152
VECTORS U float 
      0.000000       0.000000       0.000000
      0.000000       0.000000       0.000000
      0.000073      -0.000016       0.000000
      0.000054      -0.000018       0.000000
      0.000000       0.000000       0.000000
      0.000000       0.000000       0.000000
      0.000093       0.000014       0.000000
      0.000073      -0.000016       0.000000
      0.000054      -0.000018       0.000000
      0.000073      -0.000016       0.000000
      0.000079      -0.000043       0.000000
      0.000054      -0.000088       0.000000
      0.000073      -0.000016       0.000000
      0.000093       0.000014       0.000000
      0.000102       0.000018       0.000000
      0.000079      -0.000043       0.000000
      0.000000       0.000000       0.000000
      0.000000       0.000000       0.000000
      0.000111       0.000055       0.000000
      0.000093       0.000014       0.000000
      0.000000       0.000000       0.000000
      0.000000       0.000000       0.000000
      0.000121       0.000108       0.000000
      0.000111       0.000055       0.000000
      0.000093       0.000014       0.000000
      0.000111       0.000055       0.000000
      0.000126       0.000099       0.000000
      0.000102       0.000018       0.000000
      0.000111       0.000055       0.000000
      0.000121       0.000108       0.000000
      0.000141       0.000212       0.000000
      0.000126       0.000099       0.000000
      0.000000       0.000000       0.000000
      0.000000       0.000000       0.000000
      0.000113       0.000173       0.000000
      0.000121       0.000108       0.000000
      0.000000       0.000000       0.000000
      0.000000       0.000000       0.000000
      0.000079       0.000241       0.000000
      0.000113       0.000173       0.000000
      0.000121       0.000108       0.000000
      0.000113       0.000173       0.000000
      0.000127       0.000358       0.000000
      0.000141       0.000212       0.000000
      0.000113       0.000173       0.000000
      0.000079       0.000241       0.000000
      0.000065       0.000517       0.000000
      0.000127       0.000358       0.000000
      0.000054      -0.000088       0.000000
      0.000079      -0.000043       0.000000
      0.000005      -0.000074       0.000000
     -0.000018      -0.000166       0.000000
      0.000079      -0.000043       0.000000
      0.000102       0.000018       0.000000
      0.000026       0.000014       0.000000
      0.000005      -0.000074       0.000000
     -0.000018      -0.000166       0.000000
      0.000005      -0.000074       0.000000
     -0.000137      -0.000101       0.000000
     -0.000151      -0.000226       0.000000
      0.000005      -0.000074       0.000000
      0.000026       0.000014       0.000000
     -0.000125       0.000006       0.000000
     -0.000137      -0.000101       0.000000
      0.000102       0.000018       0.000000
      0.000126       0.000099       0.000000
      0.000051       0.000130       0.000000
      0.000026       0.000014       0.000000
      0.000126       0.000099       0.000000
      0.000141       0.000212       0.000000
      0.000072       0.000303       0.000000
      0.000051       0.000130       0.000000
      0.000026       0.000014       0.000000
      0.000051       0.000130       0.000000
     -0.000109       0.000145       0.000000
     -0.000125       0.000006       0.000000
      0.000051       0.000130       0.000000
      0.000072       0.000303       0.000000
     -0.000088       0.000366       0.000000
     -0.000109       0.000145       0.000000
      0.000141       0.000212       0.000000
      0.000127       0.000358       0.000000
      0.000061       0.000547       0.000000
      0.000072       0.000303       0.000000
      0.000127       0.000358       0.000000
      0.000065       0.000517       0.000000
     -0.000020       0.000829       0.000000
      0.000061       0.000547       0.000000
      0.000072       0.000303       0.000000
      0.000061       0.000547       0.000000
     -0.000085       0.000721       0.000000
     -0.000088       0.000366       0.000000
      0.000061       0.000547       0.000000
     -0.000020       0.000829       0.000000
     -0.000170       0.001182       0.000000
     -0.000085       0.000721       0.000000
     -0.000151      -0.000226       0.000000
     -0.000137      -0.000101       0.000000
     -0.000311      -0.000115       0.000000
     -0.000313      -0.000253       0.000000
     -0.000137      -0.000101       0.000000
     -0.000125       0.000006       0.000000
     -0.000320       0.000004       0.000000
     -0.000311      -0.000115       0.000000
     -0.000313      -0.000253       0.000000
     -0.000311      -0.000115       0.000000
     -0.000469      -0.000114       0.000000
     -0.000467      -0.000255       0.000000
     -0.000311      -0.000115       0.000000
     -0.000320       0.000004       0.000000
     -0.000498       0.000017       0.000000
     -0.000469      -0.000114       0.000000
     -0.000125       0.000006       0.000000
     -0.000109       0.000145       0.000000
     -0.000340       0.000152       0.000000
     -0.000320       0.000004       0.000000
     -0.000109       0.000145       0.000000
     -0.000088       0.000366       0.000000
     -0.000358       0.000393       0.000000
     -0.000340       0.000152       0.000000
     -0.000320       0.000004       0.000000
     -0.000340       0.000152       0.000000
     -0.000574       0.000178       0.000000
     -0.000498       0.000017       0.000000
     -0.000340       0.000152       0.000000
     -0.000358       0.000393       0.000000
     -0.000707       0.000430       0.000000
     -0.000574       0.000178       0.000000
     -0.000088       0.000366       0.000000
     -0.000081       0.000525       0.000000
     -0.000201       0.000560       0.000000
     -0.000209       0.000383       0.000000
     -0.000081       0.000525       0.000000
     -0.000085       0.000721       0.000000
     -0.000199       0.000790       0.000000
     -0.000201       0.000560       0.000000
     -0.000209       0.000383       0.000000
     -0.000201       0.000560       0.000000
     -0.000361       0.000580       0.000000
     -0.000358       0.000393       0.000000
     -0.000201       0.000560       0.000000
     -0.000199       0.000790       0.000000
     -0.000358       0.000837       0.000000
     -0.000361       0.000580       0.000000
     -0.000085       0.000721       0.000000
     -0.000111       0.000947       0.000000
     -0.000216       0.001073       0.000000
     -0.000199       0.000790       0.000000
     -0.000111       0.000947       0.000000
     -0.000170       0.001182       0.000000
     -0.000277       0.001380       0.000000
     -0.000216       0.001073       0.000000
     -0.000199       0.000790       0.000000
     -0.000216       0.001073       0.000000
     -0.000362       0.001186       0.000000
     -0.000358       0.000837       0.000000
     -0.000216       0.001073       0.000000
     -0.000277       0.001380       0.000000
     -0.000418       0.001604       0.000000
     -0.000362       0.001186       0.000000
     -0.000358       0.000393       0.000000
     -0.000361       0.000580       0.000000
     -0.000567       0.000593       0.000000
     -0.000532       0.000405       0.000000
     -0.000361       0.000580       0.000000
     -0.000358       0.000837       0.000000
     -0.000592       0.000859       0.000000
     -0.000567       0.000593       0.000000
     -0.000532       0.000405       0.000000
     -0.000567       0.000593       0.000000
     -0.000796       0.000621       0.000000
     -0.000707       0.000430       0.000000
     -0.000567       0.000593       0.000000
     -0.000592       0.000859       0.000000
     -0.000903       0.000887       0.000000
     -0.000796       0.000621       0.000000
     -0.000358       0.000837       0.000000
     -0.000357       0.001000       0.000000
     -0.000462       0.001024       0.000000
     -0.000464       0.000851       0.000000
     -0.000357       0.001000       0.000000
     -0.000362       0.001186       0.000000
     -0.000462       0.001232       0.000000
     -0.000462       0.001024       0.000000
     -0.000464       0.000851       0.000000
     -0.000462       0.001024       0.000000
     -0.000597       0.001038       0.000000
     -0.000592       0.000859       0.000000
     -0.000462       0.001024       0.000000
     -0.000462       0.001232       0.000000
     -0.000594       0.001262       0.000000
     -0.000597       0.001038       0.000000
     -0.000362       0.001186       0.000000
     -0.000380       0.001393       0.000000
     -0.000473       0.001474       0.000000
     -0.000462       0.001232       0.000000
     -0.000380       0.001393       0.000000
     -0.000418       0.001604       0.000000
     -0.000510       0.001733       0.000000
     -0.000473       0.001474       0.000000
     -0.000462       0.001232       0.000000
     -0.000473       0.001474       0.000000
     -0.000593       0.001549       0.000000
     -0.000594       0.001262       0.000000
     -0.000473       0.001474       0.000000
     -0.000510       0.001733       0.000000
     -0.000627       0.001885       0.000000
     -0.000593       0.001549       0.000000
     -0.000592       0.000859       0.000000
     -0.000597       0.001038       0.000000
     -0.000767       0.001046       0.000000
     -0.000742       0.000869       0.000000
     -0.000597       0.001038       0.000000
     -0.000594       0.001262       0.000000
     -0.000782       0.001275       0.000000
     -0.000767       0.001046       0.000000
     -0.000742       0.000869       0.000000
     -0.000767       0.001046       0.000000
     -0.000964       0.001064       0.000000
     -0.000903       0.000887       0.000000
     -0.000767       0.001046       0.000000
     -0.000782       0.001275       0.000000
     -0.001033       0.001292       0.000000
     -0.000964       0.001064       0.000000
     -0.000594       0.001262       0.000000
     -0.000592       0.001397       0.000000
     -0.000676       0.001412       0.000000
     -0.000679       0.001270       0.000000
     -0.000592       0.001397       0.000000
     -0.000593       0.001549       0.000000
     -0.000672       0.001579       0.000000
     -0.000676       0.001412       0.000000
     -0.000679       0.001270       0.000000
     -0.000676       0.001412       0.000000
     -0.000782       0.001420       0.000000
     -0.000782       0.001275       0.000000
     -0.000676       0.001412       0.000000
     -0.000672       0.001579       0.000000
     -0.000775       0.001600       0.000000
     -0.000782       0.001420       0.000000
     -0.000593       0.001549       0.000000
     -0.000603       0.001715       0.000000
     -0.000676       0.001773       0.000000
     -0.000672       0.001579       0.000000
     -0.000603       0.001715       0.000000
     -0.000627       0.001885       0.000000
     -0.000700       0.001979       0.000000
     -0.000676       0.001773       0.000000
     -0.000672       0.001579       0.000000
     -0.000676       0.001773       0.000000
     -0.000769       0.001829       0.000000
     -0.000775       0.001600       0.000000
     -0.000676       0.001773       0.000000
     -0.000700       0.001979       0.000000
     -0.000790       0.002097       0.000000
     -0.000769       0.001829       0.000000
     -0.000782       0.001275       0.000000
     -0.000782       0.001420       0.000000
     -0.000917       0.001425       0.000000
     -0.000902       0.001280       0.000000
     -0.000782       0.001420       0.000000
     -0.000775       0.001600       0.000000
     -0.000922       0.001607       0.000000
     -0.000917       0.001425       0.000000
     -0.000902       0.001280       0.000000
     -0.000917       0.001425       0.000000
     -0.001074       0.001437       0.000000
     -0.001033       0.001292       0.000000
     -0.000917       0.001425       0.000000
     -0.000922       0.001607       0.000000
     -0.001122       0.001620       0.000000
     -0.001074       0.001437       0.000000
     -0.000775       0.001600       0.000000
     -0.000769       0.001829       0.000000
     -0.000908       0.001870       0.000000
     -0.000922       0.001607       0.000000
     -0.000769       0.001829       0.000000
     -0.000790       0.002097       0.000000
     -0.000918       0.002278       0.000000
     -0.000908       0.001870       0.000000
     -0.000922       0.001607       0.000000
     -0.000908       0.001870       0.000000
     -0.001189       0.001894       0.000000
     -0.001122       0.001620       0.000000
     -0.000908       0.001870       0.000000
     -0.000918       0.002278       0.000000
     -0.001289       0.002825       0.000000
     -0.001189       0.001894       0.000000
      0.000000       0.000000       0.000000
      0.000000       0.000000       0.000000
      0.000018       0.000301       0.000000
      0.000079       0.000241       0.000000
      0.000000       0.000000       0.000000
      0.000000       0.000000       0.000000
     -0.000063       0.000349       0.000000
      0.000018       0.000301       0.000000
      0.000079       0.000241       0.000000
      0.000018       0.000301       0.000000
     -0.000047       0.000658       0.000000
      0.000065       0.000517       0.000000
      0.000018       0.000301       0.000000
     -0.000063       0.000349       0.000000
     -0.000195       0.000764       0.000000
     -0.000047       0.000658       0.000000
      0.000000       0.000000       0.000000
      0.000000       0.000000       0.000000
     -0.000155       0.000386       0.000000
     -0.000063       0.000349       0.000000
      0.000000       0.000000       0.000000
      0.000000       0.000000       0.000000
     -0.000263       0.000427       0.000000
     -0.000155       0.000386       0.000000
     -0.000063       0.000349       0.000000
     -0.000155       0.000386       0.000000
     -0.000363       0.000842       0.000000
     -0.000195       0.000764       0.000000
     -0.000155       0.000386       0.000000
     -0.000263       0.000427       0.000000
     -0.000547       0.000923       0.000000
     -0.000363       0.000842       0.000000
      0.000000       0.000000       0.000000
      0.000000       0.000000       0.000000
     -0.000410       0.000515       0.000000
     -0.000263       0.000427       0.000000
      0.000000       0.000000       0.000000
      0.000000       0.000000       0.000000
     -0.000636       0.000778       0.000000
     -0.000410       0.000515       0.000000
     -0.000263       0.000427       0.000000
     -0.000410       0.000515       0.000000
     -0.000753       0.001058       0.000000
     -0.000547       0.000923       0.000000
     -0.000410       0.000515       0.000000
     -0.000636       0.000778       0.000000
     -0.000969       0.001292       0.000000
     -0.000753       0.001058       0.000000
      0.000065       0.000517       0.000000
     -0.000047       0.000658       0.000000
     -0.000179       0.001075       0.000000
     -0.000020       0.000829       0.000000
     -0.000047       0.000658       0.000000
     -0.000195       0.000764       0.000000
     -0.000383       0.001243       0.000000
     -0.000179       0.001075       0.000000
     -0.000020       0.000829       0.000000
     -0.000179       0.001075       0.000000
     -0.000380       0.001570       0.000000
     -0.000170       0.001182       0.000000
     -0.000179       0.001075       0.000000
     -0.000383       0.001243       0.000000
     -0.000620       0.001776       0.000000
     -0.000380       0.001570       0.000000
     -0.000195       0.000764       0.000000
     -0.000363       0.000842       0.000000
     -0.000597       0.001348       0.000000
     -0.000383       0.001243       0.000000
     -0.000363       0.000842       0.000000
     -0.000547       0.000923       0.000000
     -0.000811       0.001439       0.000000
     -0.000597       0.001348       0.000000
     -0.000383       0.001243       0.000000
     -0.000597       0.001348       0.000000
     -0.000837       0.001872       0.000000
     -0.000620       0.001776       0.000000
     -0.000597       0.001348       0.000000
     -0.000811       0.001439       0.000000
     -0.001040       0.001944       0.000000
     -0.000837       0.001872       0.000000
     -0.000547       0.000923       0.000000
     -0.000753       0.001058       0.000000
     -0.001023       0.001565       0.000000
     -0.000811       0.001439       0.000000
     -0.000753       0.001058       0.000000
     -0.000969       0.001292       0.000000
     -0.001222       0.001755       0.000000
     -0.001023       0.001565       0.000000
     -0.000811       0.001439       0.000000
     -0.001023       0.001565       0.000000
     -0.001238       0.002038       0.000000
     -0.001040       0.001944       0.000000
     -0.001023       0.001565       0.000000
     -0.001222       0.001755       0.000000
     -0.001422       0.002178       0.000000
     -0.001238       0.002038       0.000000
     -0.000620       0.001776       0.000000
     -0.000837       0.001872       0.000000
     -0.001040       0.002379       0.000000
     -0.000880       0.002329       0.000000
     -0.000837       0.001872       0.000000
     -0.001040       0.001944       0.000000
     -0.001208       0.002423       0.000000
     -0.001040       0.002379       0.000000
     -0.000880       0.002329       0.000000
     -0.001040       0.002379       0.000000
     -0.001133       0.002849       0.000000
     -0.001026       0.002830       0.000000
     -0.001040       0.002379       0.000000
     -0.001208       0.002423       0.000000
     -0.001281       0.002878       0.000000
     -0.001133       0.002849       0.000000
     -0.001040       0.001944       0.000000
     -0.001238       0.002038       0.000000
     -0.001386       0.002482       0.000000
     -0.001208       0.002423       0.000000
     -0.001238       0.002038       0.000000
     -0.001422       0.002178       0.000000
     -0.001559       0.002567       0.000000
     -0.001386       0.002482       0.000000
     -0.001208       0.002423       0.000000
     -0.001386       0.002482       0.000000
     -0.001451       0.002911       0.000000
     -0.001281       0.002878       0.000000
     -0.001386       0.002482       0.000000
     -0.001559       0.002567       0.000000
     -0.001620       0.002938       0.000000
     -0.001451       0.002911       0.000000
     -0.000170       0.001182       0.000000
     -0.000264       0.001397       0.000000
     -0.000386       0.001656       0.000000
     -0.000277       0.001380       0.000000
     -0.000264       0.001397       0.000000
     -0.000380       0.001570       0.000000
     -0.000516       0.001858       0.000000
     -0.000386       0.001656       0.000000
     -0.000277       0.001380       0.000000
     -0.000386       0.001656       0.000000
     -0.000549       0.001966       0.000000
     -0.000418       0.001604       0.000000
     -0.000386       0.001656       0.000000
     -0.000516       0.001858       0.000000
     -0.000686       0.002178       0.000000
     -0.000549       0.001966       0.000000
     -0.000380       0.001570       0.000000
     -0.000502       0.001693       0.000000
     -0.000641       0.001982       0.000000
     -0.000516       0.001858       0.000000
     -0.000502       0.001693       0.000000
     -0.000620       0.001776       0.000000
     -0.000752       0.002055       0.000000
     -0.000641       0.001982       0.000000
     -0.000516       0.001858       0.000000
     -0.000641       0.001982       0.000000
     -0.000794       0.002279       0.000000