# vtk DataFile Version 2.0
time_10.vtk
ASCII
DATASET UNSTRUCTURED_GRID
POINTS  1152 float
      0.000000       0.000000       0.000000
      0.083333       0.000000       0.000000
      0.083333       0.083333       0.000000
      0.000000       0.083333       0.000000
      0.083333       0.000000       0.000000
      0.166667       0.000000       0.000000
      0.166667       0.083333       0.000000
      0.083333       0.083333       0.000000
      0.000000       0.083333       0.000000
      0.083333       0.083333       0.000000
      0.083333       0.166667       0.000000
      0.000000       0.166667       0.000000
      0.083333       0.083333       0.000000
      0.166667       0.083333       0.000000
      0.166667       0.166667       0.000000
      0.083333       0.166667       0.000000
      0.166667       0.000000       0.000000
      0.250000       0.000000       0.000000
      0.250000       0.083333       0.000000
      0.166667       0.083333       0.000000
      0.250000       0.000000       0.000000
      0.333333       0.000000       0.000000
      0.333333       0.083333       0.000000
      0.250000       0.083333       0.000000
      0.166667       0.083333       0.000000
      0.250000       0.083333       0.000000
      0.250000       0.166667       0.000000
      0.166667       0.166667       0.000000
      0.250000       0.083333       0.000000
      0.333333       0.083333       0.000000
      0.333333       0.166667       0.000000
      0.250000       0.166667       0.000000
      0.333333       0.000000       0.000000
      0.416667      -0.000000       0.000000
      0.416667       0.083333       0.000000
      0.333333       0.083333       0.000000
      0.416667      -0.000000       0.000000
      0.500000       0.000000       0.000000
      0.500000       0.083333       0.000000
      0.416667       0.083333       0.000000
      0.333333       0.083333       0.000000
      0.416667       0.083333       0.000000
      0.416667       0.166667       0.000000
      0.333333       0.166667       0.000000
      0.416667       0.083333       0.000000
      0.500000       0.083333       0.000000
      0.500000       0.166667       0.000000
      0.416667       0.166667       0.000000
      0.000000       0.166667       0.000000
      0.083333       0.166667       0.000000
      0.083333       0.250000       0.000000
      0.000000       0.250000       0.000000
      0.083333       0.166667       0.000000
      0.166667       0.166667       0.000000
      0.166667       0.250000       0.000000
      0.083333       0.250000       0.000000
      0.000000       0.250000       0.000000
      0.083333       0.250000       0.000000
      0.083333       0.333333       0.000000
      0.000000       0.333333       0.000000
      0.083333       0.250000       0.000000
      0.166667       0.250000       0.000000
      0.166667       0.333333       0.000000
      0.083333       0.333333       0.000000
      0.166667       0.166667       0.000000
      0.250000       0.166667       0.000000
      0.250000       0.250000       0.000000
      0.166667       0.250000       0.000000
      0.250000       0.166667       0.000000
      0.333333       0.166667       0.000000
      0.333333       0.250000       0.000000
      0.250000       0.250000       0.000000
      0.166667       0.250000       0.000000
      0.250000       0.250000       0.000000
      0.250000       0.333333       0.000000
      0.166667       0.333333       0.000000
      0.250000       0.250000       0.000000
      0.333333       0.250000       0.000000
      0.333333       0.333333       0.000000
      0.250000       0.333333       0.000000
      0.333333       0.166667       0.000000
      0.416667       0.166667       0.000000
      0.416667       0.250000       0.000000
      0.333333       0.250000       0.000000
      0.416667       0.166667       0.000000
      0.500000       0.166667       0.000000
      0.500000       0.250000       0.000000
      0.416667       0.250000       0.000000
      0.333333       0.250000       0.000000
      0.416667       0.250000       0.000000
      0.416667       0.333333       0.000000
      0.333333       0.333333       0.000000
      0.416667       0.250000       0.000000
      0.500000       0.250000       0.000000
      0.500000       0.333333       0.000000
      0.416667       0.333333       0.000000
      0.000000       0.333333       0.000000
      0.083333       0.333333       0.000000
      0.083333       0.416667       0.000000
     -0.000000       0.416667       0.000000
      0.083333       0.333333       0.000000
      0.166667       0.333333       0.000000
      0.166667       0.416667       0.000000
      0.083333       0.416667       0.000000
     -0.000000       0.416667       0.000000
      0.083333       0.416667       0.000000
      0.083333       0.500000       0.000000
      0.000000       0.500000       0.000000
      0.083333       0.416667       0.000000
      0.166667       0.416667       0.000000
      0.166667       0.500000       0.000000
      0.083333       0.500000       0.000000
      0.166667       0.333333       0.000000
      0.250000       0.333333       0.000000
      0.250000       0.416667       0.000000
      0.166667       0.416667       0.000000
      0.250000       0.333333       0.000000
      0.333333       0.333333       0.000000
      0.333333       0.416667       0.000000
      0.250000       0.416667       0.000000
      0.166667       0.416667       0.000000
      0.250000       0.416667       0.000000
      0.250000       0.500000       0.000000
      0.166667       0.500000       0.000000
      0.250000       0.416667       0.000000
      0.333333       0.416667       0.000000
      0.333333       0.500000       0.000000
      0.250000       0.500000       0.000000
      0.333333       0.333333       0.000000
      0.375000       0.333333       0.000000
      0.375000       0.375000       0.000000
      0.333333       0.375000       0.000000
      0.375000       0.333333       0.000000
      0.416667       0.333333       0.000000
      0.416667       0.375000       0.000000
      0.375000       0.375000       0.000000
      0.333333       0.375000       0.000000
      0.375000       0.375000       0.000000
      0.375000       0.416667       0.000000
      0.333333       0.416667       0.000000
      0.375000       0.375000       0.000000
      0.416667       0.375000       0.000000
      0.416667       0.416667       0.000000
      0.375000       0.416667       0.000000
      0.416667       0.333333       0.000000
      0.458333       0.333333       0.000000
      0.458333       0.375000       0.000000
      0.416667       0.375000       0.000000
      0.458333       0.333333       0.000000
      0.500000       0.333333       0.000000
      0.500000       0.375000       0.000000
      0.458333       0.375000       0.000000
      0.416667       0.375000       0.000000
      0.458333       0.375000       0.000000
      0.458333       0.416667       0.000000
      0.416667       0.416667       0.000000
      0.458333       0.375000       0.000000
      0.500000       0.375000       0.000000
      0.500000       0.416667       0.000000
      0.458333       0.416667       0.000000
      0.333333       0.416667       0.000000
      0.375000       0.416667       0.000000
      0.375000       0.458333       0.000000
      0.333333       0.458333       0.000000
      0.375000       0.416667       0.000000
      0.416667       0.416667       0.000000
      0.416667       0.458333       0.000000
      0.375000       0.458333       0.000000
      0.333333       0.458333       0.000000
      0.375000       0.458333       0.000000
      0.375000       0.500000       0.000000
      0.333333       0.500000       0.000000
      0.375000       0.458333       0.000000
      0.416667       0.458333       0.000000
      0.416667       0.500000       0.000000
      0.375000       0.500000       0.000000
      0.416667       0.416667       0.000000
      0.437500       0.416667       0.000000
      0.437500       0.437500       0.000000
      0.416667       0.437500       0.000000
      0.437500       0.416667       0.000000
      0.458333       0.416667       0.000000
      0.458333       0.437500       0.000000
      0.437500       0.437500       0.000000
      0.416667       0.437500       0.000000
      0.437500       0.437500       0.000000
      0.437500       0.458333       0.000000
      0.416667       0.458333       0.000000
      0.437500       0.437500       0.000000
      0.458333       0.437500       0.000000
      0.458333       0.458333       0.000000
      0.437500       0.458333       0.000000
      0.458333       0.416667       0.000000
      0.479167       0.416667       0.000000
      0.479167       0.437500       0.000000
      0.458333       0.437500       0.000000
      0.479167       0.416667       0.000000
      0.500000       0.416667       0.000000
      0.500000       0.437500       0.000000
      0.479167       0.437500       0.000000
      0.458333       0.437500       0.000000
      0.479167       0.437500       0.000000
      0.479167       0.458333       0.000000
      0.458333       0.458333       0.000000
      0.479167       0.437500       0.000000
      0.500000       0.437500       0.000000
      0.500000       0.458333       0.000000
      0.479167       0.458333       0.000000
      0.416667       0.458333       0.000000
      0.437500       0.458333       0.000000
      0.437500       0.479167       0.000000
      0.416667       0.479167       0.000000
      0.437500       0.458333       0.000000
      0.458333       0.458333       0.000000
      0.458333       0.479167       0.000000
      0.437500       0.479167       0.000000
      0.416667       0.479167       0.000000
      0.437500       0.479167       0.000000
      0.437500       0.500000       0.000000
      0.416667       0.500000       0.000000
[...]
POINT_DATA  1152
VECTORS U float 
      0.000000       0.000000       0.000000
      0.000000       0.000000       0.000000
      0.000069      -0.000018       0.000000
      0.000049      -0.000022       0.000000
      0.000000       0.000000       0.000000
      0.000000       0.000000       0.000000
      0.000090       0.000012       0.000000
      0.000069      -0.000018       0.000000
      0.000049      -0.000022       0.000000
      0.000069      -0.000018       0.000000
      0.000072      -0.000047       0.000000
      0.000046      -0.000093       0.000000
      0.000069      -0.000018       0.000000
      0.000090       0.000012       0.000000
      0.000095       0.000013       0.000000
      0.000072      -0.000047       0.000000
      0.000000       0.000000       0.000000
      0.000000       0.000000       0.000000
      0.000108       0.000053       0.000000
      0.000090       0.000012       0.000000
      0.000000       0.000000       0.000000
      0.000000       0.000000       0.000000
      0.000120       0.000105       0.000000
      0.000108       0.000053       0.000000
      0.000090       0.000012       0.000000
      0.000108       0.000053       0.000000
      0.000120       0.000094       0.000000
      0.000095       0.000013       0.000000
      0.000108       0.000053       0.000000
      0.000120       0.000105       0.000000
      0.000137       0.000206       0.000000
      0.000120       0.000094       0.000000
      0.000000       0.000000       0.000000
      0.000000       0.000000       0.000000
      0.000114       0.000170       0.000000
      0.000120       0.000105       0.000000
      0.000000       0.000000       0.000000
      0.000000       0.000000       0.000000
      0.000082       0.000240       0.000000
      0.000114       0.000170       0.000000
      0.000120       0.000105       0.000000
      0.000114       0.000170       0.000000
      0.000126       0.000352       0.000000
      0.000137       0.000206       0.000000
      0.000114       0.000170       0.000000
      0.000082       0.000240       0.000000
      0.000067       0.000514       0.000000
      0.000126       0.000352       0.000000
      0.000046      -0.000093       0.000000
      0.000072      -0.000047       0.000000
     -0.000005      -0.000079       0.000000
     -0.000028      -0.000172       0.000000
      0.000072      -0.000047       0.000000
      0.000095       0.000013       0.000000
      0.000016       0.000008       0.000000
     -0.000005      -0.000079       0.000000
     -0.000028      -0.000172       0.000000
     -0.000005      -0.000079       0.000000
     -0.000148      -0.000107       0.000000
     -0.000162      -0.000232       0.000000
     -0.000005      -0.000079       0.000000
      0.000016       0.000008       0.000000
     -0.000136      -0.000000       0.000000
     -0.000148      -0.000107       0.000000
      0.000095       0.000013       0.000000
      0.000120       0.000094       0.000000
      0.000042       0.000122       0.000000
      0.000016       0.000008       0.000000
      0.000120       0.000094       0.000000
      0.000137       0.000206       0.000000
      0.000064       0.000292       0.000000
      0.000042       0.000122       0.000000
      0.000016       0.000008       0.000000
      0.000042       0.000122       0.000000
     -0.000121       0.000135       0.000000
     -0.000136      -0.000000       0.000000
      0.000042       0.000122       0.000000
      0.000064       0.000292       0.000000
     -0.000101       0.000351       0.000000
     -0.000121       0.000135       0.000000
      0.000137       0.000206       0.000000
      0.000126       0.000352       0.000000
      0.000056       0.000535       0.000000
      0.000064       0.000292       0.000000
      0.000126       0.000352       0.000000
      0.000067       0.000514       0.000000
     -0.000019       0.000821       0.000000
      0.000056       0.000535       0.000000
      0.000064       0.000292       0.000000
      0.000056       0.000535       0.000000
     -0.000096       0.000700       0.000000
     -0.000101       0.000351       0.000000
      0.000056       0.000535       0.000000
     -0.000019       0.000821       0.000000
     -0.000173       0.001165       0.000000
     -0.000096       0.000700       0.000000
     -0.000162      -0.000232       0.000000
     -0.000148      -0.000107       0.000000
     -0.000322      -0.000121       0.000000
     -0.000324      -0.000258       0.000000
     -0.000148      -0.000107       0.000000
     -0.000136      -0.000000       0.000000
     -0.000332      -0.000003       0.000000
     -0.000322      -0.000121       0.000000
     -0.000324      -0.000258       0.000000
     -0.000322      -0.000121       0.000000
     -0.000479      -0.000120       0.000000
     -0.000477      -0.000260       0.000000
     -0.000322      -0.000121       0.000000
     -0.000332      -0.000003       0.000000
     -0.000507       0.000010       0.000000
     -0.000479      -0.000120       0.000000
     -0.000136      -0.000000       0.000000
     -0.000121       0.000135       0.000000
     -0.000351       0.000142       0.000000
     -0.000332      -0.000003       0.000000
     -0.000121       0.000135       0.000000
     -0.000101       0.000351       0.000000
     -0.000372       0.000377       0.000000
     -0.000351       0.000142       0.000000
     -0.000332      -0.000003       0.000000
     -0.000351       0.000142       0.000000
     -0.000583       0.000168       0.000000
     -0.000507       0.000010       0.000000
     -0.000351       0.000142       0.000000
     -0.000372       0.000377       0.000000
     -0.000715       0.000414       0.000000
     -0.000583       0.000168       0.000000
     -0.000101       0.000351       0.000000
     -0.000093       0.000507       0.000000
     -0.000216       0.000539       0.000000
     -0.000223       0.000367       0.000000
     -0.000093       0.000507       0.000000
     -0.000096       0.000700       0.000000
     -0.000214       0.000764       0.000000
     -0.000216       0.000539       0.000000
     -0.000223       0.000367       0.000000
     -0.000216       0.000539       0.000000
     -0.000378       0.000558       0.000000
     -0.000372       0.000377       0.000000
     -0.000216       0.000539       0.000000
     -0.000214       0.000764       0.000000
     -0.000377       0.000807       0.000000
     -0.000378       0.000558       0.000000
     -0.000096       0.000700       0.000000
     -0.000118       0.000926       0.000000
     -0.000228       0.001043       0.000000
     -0.000214       0.000764       0.000000
     -0.000118       0.000926       0.000000
     -0.000173       0.001165       0.000000
     -0.000283       0.001355       0.000000
     -0.000228       0.001043       0.000000
     -0.000214       0.000764       0.000000
     -0.000228       0.001043       0.000000
     -0.000381       0.001145       0.000000
     -0.000377       0.000807       0.000000
     -0.000228       0.001043       0.000000
     -0.000283       0.001355       0.000000
     -0.000428       0.001563       0.000000
     -0.000381       0.001145       0.000000
     -0.000372       0.000377       0.000000
     -0.000378       0.000558       0.000000
     -0.000580       0.000572       0.000000
     -0.000544       0.000389       0.000000
     -0.000378       0.000558       0.000000
     -0.000377       0.000807       0.000000
     -0.000609       0.000829       0.000000
     -0.000580       0.000572       0.000000
     -0.000544       0.000389       0.000000
     -0.000580       0.000572       0.000000
     -0.000803       0.000600       0.000000
     -0.000715       0.000414       0.000000
     -0.000580       0.000572       0.000000
     -0.000609       0.000829       0.000000
     -0.000908       0.000857       0.000000
     -0.000803       0.000600       0.000000
     -0.000377       0.000807       0.000000
     -0.000377       0.000964       0.000000
     -0.000483       0.000986       0.000000
     -0.000483       0.000820       0.000000
     -0.000377       0.000964       0.000000
     -0.000381       0.001145       0.000000
     -0.000484       0.001185       0.000000
     -0.000483       0.000986       0.000000
     -0.000483       0.000820       0.000000
     -0.000483       0.000986       0.000000
     -0.000616       0.000999       0.000000
     -0.000609       0.000829       0.000000
     -0.000483       0.000986       0.000000
     -0.000484       0.001185       0.000000
     -0.000618       0.001211       0.000000
     -0.000616       0.000999       0.000000
     -0.000381       0.001145       0.000000
     -0.000396       0.001348       0.000000
     -0.000493       0.001419       0.000000
     -0.000484       0.001185       0.000000
     -0.000396       0.001348       0.000000
     -0.000428       0.001563       0.000000
     -0.000524       0.001678       0.000000
     -0.000493       0.001419       0.000000
     -0.000484       0.001185       0.000000
     -0.000493       0.001419       0.000000
     -0.000618       0.001481       0.000000
     -0.000618       0.001211       0.000000
     -0.000493       0.001419       0.000000
     -0.000524       0.001678       0.000000
     -0.000644       0.001809       0.000000
     -0.000618       0.001481       0.000000
     -0.000609       0.000829       0.000000
     -0.000616       0.000999       0.000000
     -0.000780       0.001009       0.000000
     -0.000754       0.000839       0.000000
     -0.000616       0.000999       0.000000
     -0.000618       0.001211       0.000000
     -0.000799       0.001224       0.000000
     -0.000780       0.001009       0.000000
     -0.000754       0.000839       0.000000
     -0.000780       0.001009       0.000000
     -0.000967       0.001027       0.000000
     -0.000908       0.000857       0.000000
     -0.000780       0.001009       0.000000
     -0.000799       0.001224       0.000000
     -0.001033       0.001241       0.000000
     -0.000967       0.001027       0.000000
     -0.000618       0.001211       0.000000
     -0.000617       0.001338       0.000000
     -0.000700       0.001351       0.000000
     -0.000701       0.001219       0.000000
     -0.000617       0.001338       0.000000
     -0.000618       0.001481       0.000000
     -0.000699       0.001506       0.000000
     -0.000700       0.001351       0.000000
     -0.000701       0.001219       0.000000
     -0.000700       0.001351       0.000000
     -0.000802       0.001358       0.000000
     -0.000799       0.001224       0.000000
     -0.000700       0.001351       0.000000
     -0.000699       0.001506       0.000000
     -0.000799       0.001523       0.000000
     -0.000802       0.001358       0.000000
     -0.000618       0.001481       0.000000
     -0.000626       0.001640       0.000000
     -0.000702       0.001687       0.000000
     -0.000699       0.001506       0.000000
     -0.000626       0.001640       0.000000
     -0.000644       0.001809       0.000000
     -0.000720       0.001888       0.000000
     -0.000702       0.001687       0.000000
     -0.000699       0.001506       0.000000
     -0.000702       0.001687       0.000000
     -0.000795       0.001732       0.000000
     -0.000799       0.001523       0.000000
     -0.000702       0.001687       0.000000
     -0.000720       0.001888       0.000000
     -0.000812       0.001988       0.000000
     -0.000795       0.001732       0.000000
     -0.000799       0.001224       0.000000
     -0.000802       0.001358       0.000000
     -0.000927       0.001364       0.000000
     -0.000911       0.001230       0.000000
     -0.000802       0.001358       0.000000
     -0.000799       0.001523       0.000000
     -0.000935       0.001530       0.000000
     -0.000927       0.001364       0.000000
     -0.000911       0.001230       0.000000
     -0.000927       0.001364       0.000000
     -0.001071       0.001375       0.000000
     -0.001033       0.001241       0.000000
     -0.000927       0.001364       0.000000
     -0.000935       0.001530       0.000000
     -0.001116       0.001543       0.000000
     -0.001071       0.001375       0.000000
     -0.000799       0.001523       0.000000
     -0.000795       0.001732       0.000000
     -0.000927       0.001765       0.000000
     -0.000935       0.001530       0.000000
     -0.000795       0.001732       0.000000
     -0.000812       0.001988       0.000000
     -0.000939       0.002153       0.000000
     -0.000927       0.001765       0.000000
     -0.000935       0.001530       0.000000
     -0.000927       0.001765       0.000000
     -0.001182       0.001796       0.000000
     -0.001116       0.001543       0.000000
     -0.000927       0.001765       0.000000
     -0.000939       0.002153       0.000000
     -0.001367       0.002907       0.000000
     -0.001182       0.001796       0.000000
      0.000000       0.000000       0.000000
      0.000000       0.000000       0.000000
      0.000021       0.000303       0.000000
      0.000082       0.000240       0.000000
      0.000000       0.000000       0.000000
      0.000000       0.000000       0.000000
     -0.000060       0.000353       0.000000
      0.000021       0.000303       0.000000
      0.000082       0.000240       0.000000
      0.000021       0.000303       0.000000
     -0.000043       0.000662       0.000000
      0.000067       0.000514       0.000000
      0.000021       0.000303       0.000000
     -0.000060       0.000353       0.000000
     -0.000193       0.000775       0.000000
     -0.000043       0.000662       0.000000
      0.000000       0.000000       0.000000
      0.000000       0.000000       0.000000
     -0.000155       0.000393       0.000000
     -0.000060       0.000353       0.000000
      0.000000       0.000000       0.000000
      0.000000       0.000000       0.000000
     -0.000265       0.000437       0.000000
     -0.000155       0.000393       0.000000
     -0.000060       0.000353       0.000000
     -0.000155       0.000393       0.000000
     -0.000366       0.000860       0.000000
     -0.000193       0.000775       0.000000
     -0.000155       0.000393       0.000000
     -0.000265       0.000437       0.000000
     -0.000556       0.000947       0.000000
     -0.000366       0.000860       0.000000
      0.000000       0.000000       0.000000
      0.000000       0.000000       0.000000
     -0.000418       0.000530       0.000000
     -0.000265       0.000437       0.000000
      0.000000       0.000000       0.000000
      0.000000       0.000000       0.000000
     -0.000650       0.000800       0.000000
     -0.000418       0.000530       0.000000
     -0.000265       0.000437       0.000000
     -0.000418       0.000530       0.000000
     -0.000769       0.001088       0.000000
     -0.000556       0.000947       0.000000
     -0.000418       0.000530       0.000000
     -0.000650       0.000800       0.000000
     -0.000991       0.001330       0.000000
     -0.000769       0.001088       0.000000
      0.000067       0.000514       0.000000
     -0.000043       0.000662       0.000000
     -0.000177       0.001081       0.000000
     -0.000019       0.000821       0.000000
     -0.000043       0.000662       0.000000
     -0.000193       0.000775       0.000000
     -0.000385       0.001263       0.000000
     -0.000177       0.001081       0.000000
     -0.000019       0.000821       0.000000
     -0.000177       0.001081       0.000000
     -0.000380       0.001579       0.000000
     -0.000173       0.001165       0.000000
     -0.000177       0.001081       0.000000
     -0.000385       0.001263       0.000000
     -0.000630       0.001811       0.000000
     -0.000380       0.001579       0.000000
     -0.000193       0.000775       0.000000
     -0.000366       0.000860       0.000000
     -0.000607       0.001379       0.000000
     -0.000385       0.001263       0.000000
     -0.000366       0.000860       0.000000
     -0.000556       0.000947       0.000000
     -0.000829       0.001478       0.000000
     -0.000607       0.001379       0.000000
     -0.000385       0.001263       0.000000
     -0.000607       0.001379       0.000000
     -0.000857       0.001920       0.000000
     -0.000630       0.001811       0.000000
     -0.000607       0.001379       0.000000
     -0.000829       0.001478       0.000000
     -0.001068       0.001998       0.000000
     -0.000857       0.001920       0.000000
     -0.000556       0.000947       0.000000
     -0.000769       0.001088       0.000000
     -0.001048       0.001610       0.000000
     -0.000829       0.001478       0.000000
     -0.000769       0.001088       0.000000
     -0.000991       0.001330       0.000000
     -0.001253       0.001807       0.000000
     -0.001048       0.001610       0.000000
     -0.000829       0.001478       0.000000
     -0.001048       0.001610       0.000000
     -0.001272       0.002096       0.000000
     -0.001068       0.001998       0.000000
     -0.001048       0.001610       0.000000
     -0.001253       0.001807       0.000000
     -0.001461       0.002242       0.000000
     -0.001272       0.002096       0.000000
     -0.000630       0.001811       0.000000
     -0.000857       0.001920       0.000000
     -0.001072       0.002445       0.000000
     -0.000906       0.002387       0.000000
     -0.000857       0.001920       0.000000
     -0.001068       0.001998       0.000000
     -0.001245       0.002491       0.000000
     -0.001072       0.002445       0.000000
     -0.000906       0.002387       0.000000
     -0.001072       0.002445       0.000000
     -0.001173       0.002929       0.000000
     -0.001066       0.002910       0.000000
     -0.001072       0.002445       0.000000
     -0.001245       0.002491       0.000000
     -0.001322       0.002958       0.000000
     -0.001173       0.002929       0.000000
     -0.001068       0.001998       0.000000
     -0.001272       0.002096       0.000000
     -0.001428       0.002552       0.000000
     -0.001245       0.002491       0.000000
     -0.001272       0.002096       0.000000
     -0.001461       0.002242       0.000000
     -0.001604       0.002640       0.000000
     -0.001428       0.002552       0.000000
     -0.001245       0.002491       0.000000
     -0.001428       0.002552       0.000000
     -0.001495       0.002991       0.000000
     -0.001322       0.002958       0.000000
     -0.001428       0.002552       0.000000
     -0.001604       0.002640       0.000000
     -0.001668       0.003018       0.000000
     -0.001495       0.002991       0.000000
     -0.000173       0.001165       0.000000
     -0.000264       0.001392       0.000000
     -0.000386       0.001648       0.000000
     -0.000283       0.001355       0.000000
     -0.000264       0.001392       0.000000
     -0.000380       0.001579       0.000000
     -0.000519       0.001872       0.000000
     -0.000386       0.001648       0.000000
     -0.000283       0.001355       0.000000
     -0.000386       0.001648       0.000000
     -0.000551       0.001954       0.000000
     -0.000428       0.001563       0.000000
     -0.000386       0.001648       0.000000
     -0.000519       0.001872       0.000000
     -0.000696       0.002203       0.000000
     -0.000551       0.001954       0.000000
     -0.000380       0.001579       0.000000
     -0.000506       0.001717       0.000000
     -0.000651       0.002015       0.000000
     -0.000519       0.001872       0.000000
     -0.000506       0.001717       0.000000
     -0.000630       0.001811       0.000000
     -0.000769       0.002100       0.000000
     -0.000651       0.002015       0.000000
     -0.000519       0.001872       0.000000
     -0.000651       0.002015       0.000000
     -0.000813       0.002326       0.000000