# vtk DataFile Version 2.0
time_10.vtk
ASCII
DATASET UNSTRUCTURED_GRID
POINTS  1152 float
      0.000000       0.000000       0.000000
      0.083333       0.000000       0.000000
      0.083333       0.083333       0.000000
      0.000000       0.083333       0.000000
      0.083333       0.000000       0.000000
      0.166667       0.000000       0.000000
      0.166667       0.083333       0.000000
      0.083333       0.083333       0.000000
      0.000000       0.083333       0.000000
      0.083333       0.083333       0.000000
      0.083333       0.166667       0.000000
      0.000000       0.166667       0.000000
      0.083333       0.083333       0.000000
      0.166667       0.083333       0.000000
      0.166667       0.166667       0.000000
      0.083333       0.166667       0.000000
      0.166667       0.000000       0.000000
      0.250000       0.000000       0.000000
      0.250000       0.083333       0.000000
      0.166667       0.083333       0.000000
      0.250000       0.000000       0.000000
      0.333333       0.000000       0.000000
      0.333333       0.083333       0.000000
      0.250000       0.083333       0.000000
      0.166667       0.083333       0.000000
      0.250000       0.083333       0.000000
      0.250000       0.166667       0.000000
      0.166667       0.166667       0.000000
      0.250000       0.083333       0.000000
      0.333333       0.083333       0.000000
      0.333333       0.166667       0.000000
      0.250000       0.166667       0.000000
      0.333333       0.000000       0.000000
      0.416667      -0.000000       0.000000
      0.416667       0.083333       0.000000
      0.333333       0.083333       0.000000
      0.416667      -0.000000       0.000000
      0.500000       0.000000       0.000000
      0.500000       0.083333       0.000000
      0.416667       0.083333       0.000000
      0.333333       0.083333       0.000000
      0.416667       0.083333       0.000000
      0.416667       0.166667       0.000000
      0.333333       0.166667       0.000000
      0.416667       0.083333       0.000000
      0.500000       0.083333       0.000000
      0.500000       0.166667       0.000000
      0.416667       0.166667       0.000000
      0.000000       0.166667       0.000000
      0.083333       0.166667       0.000000
      0.083333       0.250000       0.000000
      0.000000       0.250000       0.000000
      0.083333       0.166667       0.000000
      0.166667       0.166667       0.000000
      0.166667       0.250000       0.000000
      0.083333       0.250000       0.000000
      0.000000       0.250000       0.000000
      0.083333       0.250000       0.000000
      0.083333       0.333333       0.000000
      0.000000       0.333333       0.000000
      0.083333       0.250000       0.000000
      0.166667       0.250000       0.000000
      0.166667       0.333333       0.000000
      0.083333       0.333333       0.000000
      0.166667       0.166667       0.000000
      0.250000       0.166667       0.000000
      0.250000       0.250000       0.000000
      0.166667       0.250000       0.000000
      0.250000       0.166667       0.000000
      0.333333       0.166667       0.000000
      0.333333       0.250000       0.000000
      0.250000       0.250000       0.000000
      0.166667       0.250000       0.000000
      0.250000       0.250000       0.000000
      0.250000       0.333333       0.000000
      0.166667       0.333333       0.000000
      0.250000       0.250000       0.000000
      0.333333       0.250000       0.000000
      0.333333       0.333333       0.000000
      0.250000       0.333333       0.000000
      0.333333       0.166667       0.000000
      0.416667       0.166667       0.000000
      0.416667       0.250000       0.000000
      0.333333       0.250000       0.000000
      0.416667       0.166667       0.000000
      0.500000       0.166667       0.000000
      0.500000       0.250000       0.000000
      0.416667       0.250000       0.000000
      0.333333       0.250000       0.000000
      0.416667       0.250000       0.000000
      0.416667       0.333333       0.000000
      0.333333       0.333333       0.000000
      0.416667       0.250000       0.000000
      0.500000       0.250000       0.000000
      0.500000       0.333333       0.000000
      0.416667       0.333333       0.000000
      0.000000       0.333333       0.000000
      0.083333       0.333333       0.000000
      0.083333       0.416667       0.000000
     -0.000000       0.416667       0.000000
      0.083333       0.333333       0.000000
      0.166667       0.333333       0.000000
      0.166667       0.416667       0.000000
      0.083333       0.416667       0.000000
     -0.000000       0.416667       0.000000
      0.083333       0.416667       0.000000
      0.083333       0.500000       0.000000
      0.000000       0.500000       0.000000
      0.083333       0.416667       0.000000
      0.166667       0.416667       0.000000
      0.166667       0.500000       0.000000
      0.083333       0.500000       0.000000
      0.166667       0.333333       0.000000
      0.250000       0.333333       0.000000
      0.250000       0.416667       0.000000
      0.166667       0.416667       0.000000
      0.250000       0.333333       0.000000
      0.333333       0.333333       0.000000
      0.333333       0.416667       0.000000
      0.250000       0.416667       0.000000
      0.166667       0.416667       0.000000
      0.250000       0.416667       0.000000
      0.250000       0.500000       0.000000
      0.166667       0.500000       0.000000
      0.250000       0.416667       0.000000
      0.333333       0.416667       0.000000
      0.333333       0.500000       0.000000
      0.250000       0.500000       0.000000
      0.333333       0.333333       0.000000
      0.375000       0.333333       0.000000
      0.375000       0.375000       0.000000
      0.333333       0.375000       0.000000
      0.375000       0.333333       0.000000
      0.416667       0.333333       0.000000
      0.416667       0.375000       0.000000
      0.375000       0.375000       0.000000
      0.333333       0.375000       0.000000
      0.375000       0.375000       0.000000
      0.375000       0.416667       0.000000
      0.333333       0.416667       0.000000
      0.375000       0.375000       0.000000
      0.416667       0.375000       0.000000
      0.416667       0.416667       0.000000
      0.375000       0.416667       0.000000
      0.416667       0.333333       0.000000
      0.458333       0.333333       0.000000
      0.458333       0.375000       0.000000
      0.416667       0.375000       0.000000
      0.458333       0.333333       0.000000
      0.500000       0.333333       0.000000
      0.500000       0.375000       0.000000
      0.458333       0.375000       0.000000
      0.416667       0.375000       0.000000
      0.458333       0.375000       0.000000
      0.458333       0.416667       0.000000
      0.416667       0.416667       0.000000
      0.458333       0.375000       0.000000
      0.500000       0.375000       0.000000
      0.500000       0.416667       0.000000
      0.458333       0.416667       0.000000
      0.333333       0.416667       0.000000
      0.375000       0.416667       0.000000
      0.375000       0.458333       0.000000
      0.333333       0.458333       0.000000
      0.375000       0.416667       0.000000
      0.416667       0.416667       0.000000
      0.416667       0.458333       0.000000
      0.375000       0.458333       0.000000
      0.333333       0.458333       0.000000
      0.375000       0.458333       0.000000
      0.375000       0.500000       0.000000
      0.333333       0.500000       0.000000
      0.375000       0.458333       0.000000
      0.416667       0.458333       0.000000
      0.416667       0.500000       0.000000
      0.375000       0.500000       0.000000
      0.416667       0.416667       0.000000
      0.437500       0.416667       0.000000
      0.437500       0.437500       0.000000
      0.416667       0.437500       0.000000
      0.437500       0.416667       0.000000
      0.458333       0.416667       0.000000
      0.458333       0.437500       0.000000
      0.437500       0.437500       0.000000
      0.416667       0.437500       0.000000
      0.437500       0.437500       0.000000
      0.437500       0.458333       0.000000
      0.416667       0.458333       0.000000
      0.437500       0.437500       0.000000
      0.458333       0.437500       0.000000
      0.458333       0.458333       0.000000
      0.437500       0.458333       0.000000
      0.458333       0.416667       0.000000
      0.479167       0.416667       0.000000
      0.479167       0.437500       0.000000
      0.458333       0.437500       0.000000
      0.479167       0.416667       0.000000
      0.500000       0.416667       0.000000
      0.500000       0.437500       0.000000
      0.479167       0.437500       0.000000
      0.458333       0.437500       0.000000
      0.479167       0.437500       0.000000
      0.479167       0.458333       0.000000
      0.458333       0.458333       0.000000
      0.479167       0.437500       0.000000
      0.500000       0.437500       0.000000
      0.500000       0.458333       0.000000
      0.479167       0.458333       0.000000
      0.416667       0.458333       0.000000
      0.437500       0.458333       0.000000
      0.437500       0.479167       0.000000
      0.416667       0.479167       0.000000
      0.437500       0.458333       0.000000
      0.458333       0.458333       0.000000
      0.458333       0.479167       0.000000
      0.437500       0.479167       0.000000
      0.416667       0.479167       0.000000
      0.437500       0.479167       0.000000
      0.437500       0.500000       0.000000
      0.416667       0.500000       0.000000
[...]
POINT_DATA  1152
VECTORS U float 
      0.000000       0.000000       0.000000
      0.000000       0.000000       0.000000
      0.000073      -0.000015       0.000000
      0.000054      -0.000016       0.000000
      0.000000       0.000000       0.000000
      0.000000       0.000000       0.000000
      0.000092       0.000015       0.000000
      0.000073      -0.000015       0.000000
      0.000054      -0.000016       0.000000
      0.000073      -0.000015       0.000000
      0.000081      -0.000041       0.000000
      0.000056      -0.000084       0.000000
      0.000073      -0.000015       0.000000
      0.000092       0.000015       0.000000
      0.000103       0.000019       0.000000
      0.000081      -0.000041       0.000000
      0.000000       0.000000       0.000000
      0.000000       0.000000       0.000000
      0.000110       0.000055       0.000000
      0.000092       0.000015       0.000000
      0.000000       0.000000       0.000000
      0.000000       0.000000       0.000000
      0.000119       0.000107       0.000000
      0.000110       0.000055       0.000000
      0.000092       0.000015       0.000000
      0.000110       0.000055       0.000000
      0.000126       0.000099       0.000000
      0.000103       0.000019       0.000000
      0.000110       0.000055       0.000000
      0.000119       0.000107       0.000000
      0.000140       0.000210       0.000000
      0.000126       0.000099       0.000000
      0.000000       0.000000       0.000000
      0.000000       0.000000       0.000000
      0.000111       0.000170       0.000000
      0.000119       0.000107       0.000000
      0.000000       0.000000       0.000000
      0.000000       0.000000       0.000000
      0.000077       0.000236       0.000000
      0.000111       0.000170       0.000000
      0.000119       0.000107       0.000000
      0.000111       0.000170       0.000000
      0.000125       0.000352       0.000000
      0.000140       0.000210       0.000000
      0.000111       0.000170       0.000000
      0.000077       0.000236       0.000000
      0.000064       0.000507       0.000000
      0.000125       0.000352       0.000000
      0.000056      -0.000084       0.000000
      0.000081      -0.000041       0.000000
      0.000009      -0.000070       0.000000
     -0.000013      -0.000160       0.000000
      0.000081      -0.000041       0.000000
      0.000103       0.000019       0.000000
      0.000030       0.000016       0.000000
      0.000009      -0.000070       0.000000
     -0.000013      -0.000160       0.000000
      0.000009      -0.000070       0.000000
     -0.000129      -0.000096       0.000000
     -0.000143      -0.000218       0.000000
      0.000009      -0.000070       0.000000
      0.000030       0.000016       0.000000
     -0.000117       0.000009       0.000000
     -0.000129      -0.000096       0.000000
      0.000103       0.000019       0.000000
      0.000126       0.000099       0.000000
      0.000054       0.000130       0.000000
      0.000030       0.000016       0.000000
      0.000126       0.000099       0.000000
      0.000140       0.000210       0.000000
      0.000074       0.000300       0.000000
      0.000054       0.000130       0.000000
      0.000030       0.000016       0.000000
      0.000054       0.000130       0.000000
     -0.000101       0.000145       0.000000
     -0.000117       0.000009       0.000000
      0.000054       0.000130       0.000000
      0.000074       0.000300       0.000000
     -0.000081       0.000363       0.000000
     -0.000101       0.000145       0.000000
      0.000140       0.000210       0.000000
      0.000125       0.000352       0.000000
      0.000062       0.000539       0.000000
      0.000074       0.000300       0.000000
      0.000125       0.000352       0.000000
      0.000064       0.000507       0.000000
     -0.000018       0.000812       0.000000
      0.000062       0.000539       0.000000
      0.000074       0.000300       0.000000
      0.000062       0.000539       0.000000
     -0.000078       0.000711       0.000000
     -0.000081       0.000363       0.000000
      0.000062       0.000539       0.000000
     -0.000018       0.000812       0.000000
     -0.000164       0.001160       0.000000
     -0.000078       0.000711       0.000000
     -0.000143      -0.000218       0.000000
     -0.000129      -0.000096       0.000000
     -0.000299      -0.000110       0.000000
     -0.000301      -0.000245       0.000000
     -0.000129      -0.000096       0.000000
     -0.000117       0.000009       0.000000
     -0.000308       0.000006       0.000000
     -0.000299      -0.000110       0.000000
     -0.000301      -0.000245       0.000000
     -0.000299      -0.000110       0.000000
     -0.000453      -0.000109       0.000000
     -0.000451      -0.000247       0.000000
     -0.000299      -0.000110       0.000000
     -0.000308       0.000006       0.000000
     -0.000481       0.000019       0.000000
     -0.000453      -0.000109       0.000000
     -0.000117       0.000009       0.000000
     -0.000101       0.000145       0.000000
     -0.000326       0.000152       0.000000
     -0.000308       0.000006       0.000000
     -0.000101       0.000145       0.000000
     -0.000081       0.000363       0.000000
     -0.000343       0.000390       0.000000
     -0.000326       0.000152       0.000000
     -0.000308       0.000006       0.000000
     -0.000326       0.000152       0.000000
     -0.000556       0.000177       0.000000
     -0.000481       0.000019       0.000000
     -0.000326       0.000152       0.000000
     -0.000343       0.000390       0.000000
     -0.000686       0.000425       0.000000
     -0.000556       0.000177       0.000000
     -0.000081       0.000363       0.000000
     -0.000074       0.000520       0.000000
     -0.000190       0.000554       0.000000
     -0.000198       0.000380       0.000000
     -0.000074       0.000520       0.000000
     -0.000078       0.000711       0.000000
     -0.000187       0.000781       0.000000
     -0.000190       0.000554       0.000000
     -0.000198       0.000380       0.000000
     -0.000190       0.000554       0.000000
     -0.000346       0.000574       0.000000
     -0.000343       0.000390       0.000000
     -0.000190       0.000554       0.000000
     -0.000187       0.000781       0.000000
     -0.000342       0.000828       0.000000
     -0.000346       0.000574       0.000000
     -0.000078       0.000711       0.000000
     -0.000104       0.000932       0.000000
     -0.000206       0.001058       0.000000
     -0.000187       0.000781       0.000000
     -0.000104       0.000932       0.000000
     -0.000164       0.001160       0.000000
     -0.000267       0.001357       0.000000
     -0.000206       0.001058       0.000000
     -0.000187       0.000781       0.000000
     -0.000206       0.001058       0.000000
     -0.000346       0.001173       0.000000
     -0.000342       0.000828       0.000000
     -0.000206       0.001058       0.000000
     -0.000267       0.001357       0.000000
     -0.000403       0.001580       0.000000
     -0.000346       0.001173       0.000000
     -0.000343       0.000390       0.000000
     -0.000346       0.000574       0.000000
     -0.000547       0.000587       0.000000
     -0.000514       0.000401       0.000000
     -0.000346       0.000574       0.000000
     -0.000342       0.000828       0.000000
     -0.000571       0.000850       0.000000
     -0.000547       0.000587       0.000000
     -0.000514       0.000401       0.000000
     -0.000547       0.000587       0.000000
     -0.000773       0.000614       0.000000
     -0.000686       0.000425       0.000000
     -0.000547       0.000587       0.000000
     -0.000571       0.000850       0.000000
     -0.000878       0.000877       0.000000
     -0.000773       0.000614       0.000000
     -0.000342       0.000828       0.000000
     -0.000341       0.000989       0.000000
     -0.000443       0.001013       0.000000
     -0.000445       0.000842       0.000000
     -0.000341       0.000989       0.000000
     -0.000346       0.001173       0.000000
     -0.000442       0.001218       0.000000
     -0.000443       0.001013       0.000000
     -0.000445       0.000842       0.000000
     -0.000443       0.001013       0.000000
     -0.000574       0.001026       0.000000
     -0.000571       0.000850       0.000000
     -0.000443       0.001013       0.000000
     -0.000442       0.001218       0.000000
     -0.000571       0.001249       0.000000
     -0.000574       0.001026       0.000000
     -0.000346       0.001173       0.000000
     -0.000364       0.001375       0.000000
     -0.000453       0.001457       0.000000
     -0.000442       0.001218       0.000000
     -0.000364       0.001375       0.000000
     -0.000403       0.001580       0.000000
     -0.000492       0.001710       0.000000
     -0.000453       0.001457       0.000000
     -0.000442       0.001218       0.000000
     -0.000453       0.001457       0.000000
     -0.000570       0.001534       0.000000
     -0.000571       0.001249       0.000000
     -0.000453       0.001457       0.000000
     -0.000492       0.001710       0.000000
     -0.000604       0.001863       0.000000
     -0.000570       0.001534       0.000000
     -0.000571       0.000850       0.000000
     -0.000574       0.001026       0.000000
     -0.000743       0.001035       0.000000
     -0.000719       0.000859       0.000000
     -0.000574       0.001026       0.000000
     -0.000571       0.001249       0.000000
     -0.000756       0.001262       0.000000
     -0.000743       0.001035       0.000000
     -0.000719       0.000859       0.000000
     -0.000743       0.001035       0.000000
     -0.000938       0.001052       0.000000
     -0.000878       0.000877       0.000000
     -0.000743       0.001035       0.000000
     -0.000756       0.001262       0.000000
     -0.001006       0.001278       0.000000
     -0.000938       0.001052       0.000000
     -0.000571       0.001249       0.000000
     -0.000568       0.001383       0.000000
     -0.000651       0.001399       0.000000
     -0.000655       0.001258       0.000000
     -0.000568       0.001383       0.000000
     -0.000570       0.001534       0.000000
     -0.000647       0.001565       0.000000
     -0.000651       0.001399       0.000000
     -0.000655       0.001258       0.000000
     -0.000651       0.001399       0.000000
     -0.000755       0.001407       0.000000
     -0.000756       0.001262       0.000000
     -0.000651       0.001399       0.000000
     -0.000647       0.001565       0.000000
     -0.000748       0.001586       0.000000
     -0.000755       0.001407       0.000000
     -0.000570       0.001534       0.000000
     -0.000580       0.001698       0.000000
     -0.000651       0.001757       0.000000
     -0.000647       0.001565       0.000000
     -0.000580       0.001698       0.000000
     -0.000604       0.001863       0.000000
     -0.000675       0.001957       0.000000
     -0.000651       0.001757       0.000000
     -0.000647       0.001565       0.000000
     -0.000651       0.001757       0.000000
     -0.000741       0.001814       0.000000
     -0.000748       0.001586       0.000000
     -0.000651       0.001757       0.000000
     -0.000675       0.001957       0.000000
     -0.000762       0.002075       0.000000
     -0.000741       0.001814       0.000000
     -0.000756       0.001262       0.000000
     -0.000755       0.001407       0.000000
     -0.000889       0.001411       0.000000
     -0.000876       0.001267       0.000000
     -0.000755       0.001407       0.000000
     -0.000748       0.001586       0.000000
     -0.000893       0.001594       0.000000
     -0.000889       0.001411       0.000000
     -0.000876       0.001267       0.000000
     -0.000889       0.001411       0.000000
     -0.001045       0.001422       0.000000
     -0.001006       0.001278       0.000000
     -0.000889       0.001411       0.000000
     -0.000893       0.001594       0.000000
     -0.001092       0.001605       0.000000
     -0.001045       0.001422       0.000000
     -0.000748       0.001586       0.000000
     -0.000741       0.001814       0.000000
     -0.000878       0.001855       0.000000
     -0.000893       0.001594       0.000000
     -0.000741       0.001814       0.000000
     -0.000762       0.002075       0.000000
     -0.000888       0.002249       0.000000
     -0.000878       0.001855       0.000000
     -0.000893       0.001594       0.000000
     -0.000878       0.001855       0.000000
     -0.001155       0.001876       0.000000
     -0.001092       0.001605       0.000000
     -0.000878       0.001855       0.000000
     -0.000888       0.002249       0.000000
     -0.001230       0.002727       0.000000
     -0.001155       0.001876       0.000000
      0.000000       0.000000       0.000000
      0.000000       0.000000       0.000000
      0.000017       0.000294       0.000000
      0.000077       0.000236       0.000000
      0.000000       0.000000       0.000000
      0.000000       0.000000       0.000000
     -0.000062       0.000339       0.000000
      0.000017       0.000294       0.000000
      0.000077       0.000236       0.000000
      0.000017       0.000294       0.000000
     -0.000046       0.000643       0.000000
      0.000064       0.000507       0.000000
      0.000017       0.000294       0.000000
     -0.000062       0.000339       0.000000
     -0.000190       0.000743       0.000000
     -0.000046       0.000643       0.000000
      0.000000       0.000000       0.000000
      0.000000       0.000000       0.000000
     -0.000152       0.000374       0.000000
     -0.000062       0.000339       0.000000
      0.000000       0.000000       0.000000
      0.000000       0.000000       0.000000
     -0.000255       0.000413       0.000000
     -0.000152       0.000374       0.000000
     -0.000062       0.000339       0.000000
     -0.000152       0.000374       0.000000
     -0.000352       0.000816       0.000000
     -0.000190       0.000743       0.000000
     -0.000152       0.000374       0.000000
     -0.000255       0.000413       0.000000
     -0.000529       0.000892       0.000000
     -0.000352       0.000816       0.000000
      0.000000       0.000000       0.000000
      0.000000       0.000000       0.000000
     -0.000397       0.000496       0.000000
     -0.000255       0.000413       0.000000
      0.000000       0.000000       0.000000
      0.000000       0.000000       0.000000
     -0.000614       0.000748       0.000000
     -0.000397       0.000496       0.000000
     -0.000255       0.000413       0.000000
     -0.000397       0.000496       0.000000
     -0.000728       0.001020       0.000000
     -0.000529       0.000892       0.000000
     -0.000397       0.000496       0.000000
     -0.000614       0.000748       0.000000
     -0.000935       0.001245       0.000000
     -0.000728       0.001020       0.000000
      0.000064       0.000507       0.000000
     -0.000046       0.000643       0.000000
     -0.000174       0.001049       0.000000
     -0.000018       0.000812       0.000000
     -0.000046       0.000643       0.000000
     -0.000190       0.000743       0.000000
     -0.000372       0.001206       0.000000
     -0.000174       0.001049       0.000000
     -0.000018       0.000812       0.000000
     -0.000174       0.001049       0.000000
     -0.000369       0.001530       0.000000
     -0.000164       0.001160       0.000000
     -0.000174       0.001049       0.000000
     -0.000372       0.001206       0.000000
     -0.000599       0.001721       0.000000
     -0.000369       0.001530       0.000000
     -0.000190       0.000743       0.000000
     -0.000352       0.000816       0.000000
     -0.000578       0.001304       0.000000
     -0.000372       0.001206       0.000000
     -0.000352       0.000816       0.000000
     -0.000529       0.000892       0.000000
     -0.000783       0.001390       0.000000
     -0.000578       0.001304       0.000000
     -0.000372       0.001206       0.000000
     -0.000578       0.001304       0.000000
     -0.000807       0.001810       0.000000
     -0.000599       0.001721       0.000000
     -0.000578       0.001304       0.000000
     -0.000783       0.001390       0.000000
     -0.001002       0.001877       0.000000
     -0.000807       0.001810       0.000000
     -0.000529       0.000892       0.000000
     -0.000728       0.001020       0.000000
     -0.000987       0.001509       0.000000
     -0.000783       0.001390       0.000000
     -0.000728       0.001020       0.000000
     -0.000935       0.001245       0.000000
     -0.001180       0.001691       0.000000
     -0.000987       0.001509       0.000000
     -0.000783       0.001390       0.000000
     -0.000987       0.001509       0.000000
     -0.001193       0.001966       0.000000
     -0.001002       0.001877       0.000000
     -0.000987       0.001509       0.000000
     -0.001180       0.001691       0.000000
     -0.001371       0.002100       0.000000
     -0.001193       0.001966       0.000000
     -0.000599       0.001721       0.000000
     -0.000807       0.001810       0.000000
     -0.001000       0.002298       0.000000
     -0.000847       0.002252       0.000000
     -0.000807       0.001810       0.000000
     -0.001002       0.001877       0.000000
     -0.001162       0.002339       0.000000
     -0.001000       0.002298       0.000000
     -0.000847       0.002252       0.000000
     -0.001000       0.002298       0.000000
     -0.001088       0.002752       0.000000
     -0.000984       0.002733       0.000000
     -0.001000       0.002298       0.000000
     -0.001162       0.002339       0.000000
     -0.001232       0.002780       0.000000
     -0.001088       0.002752       0.000000
     -0.001002       0.001877       0.000000
     -0.001193       0.001966       0.000000
     -0.001335       0.002396       0.000000
     -0.001162       0.002339       0.000000
     -0.001193       0.001966       0.000000
     -0.001371       0.002100       0.000000
     -0.001502       0.002478       0.000000
     -0.001335       0.002396       0.000000
     -0.001162       0.002339       0.000000
     -0.001335       0.002396       0.000000
     -0.001397       0.002811       0.000000
     -0.001232       0.002780       0.000000
     -0.001335       0.002396       0.000000
     -0.001502       0.002478       0.000000
     -0.001561       0.002838       0.000000
     -0.001397       0.002811       0.000000
     -0.000164       0.001160       0.000000
     -0.000256       0.001366       0.000000
     -0.000374       0.001620       0.000000
     -0.000267       0.001357       0.000000
     -0.000256       0.001366       0.000000
     -0.000369       0.001530       0.000000
     -0.000500       0.001808       0.000000
     -0.000374       0.001620       0.000000
     -0.000267       0.001357       0.000000
     -0.000374       0.001620       0.000000
     -0.000532       0.001923       0.000000
     -0.000403       0.001580       0.000000
     -0.000374       0.001620       0.000000
     -0.000500       0.001808       0.000000
     -0.000663       0.002116       0.000000
     -0.000532       0.001923       0.000000
     -0.000369       0.001530       0.000000
     -0.000486       0.001645       0.000000
     -0.000620       0.001923       0.000000
     -0.000500       0.001808       0.000000
     -0.000486       0.001645       0.000000
     -0.000599       0.001721       0.000000
     -0.000725       0.001989       0.000000
     -0.000620       0.001923       0.000000
     -0.000500       0.001808       0.000000
     -0.000620       0.001923       0.000000
     -0.000764       0.002207       0.000000