# vtk DataFile Version 2.0
time_10.vtk
ASCII
DATASET UNSTRUCTURED_GRID
POINTS  1152 float
      0.000000       0.000000       0.000000
      0.083333       0.000000       0.000000
      0.083333       0.083333       0.000000
      0.000000       0.083333       0.000000
      0.083333       0.000000       0.000000
      0.166667       0.000000       0.000000
      0.166667       0.083333       0.000000
      0.083333       0.083333       0.000000
      0.000000       0.083333       0.000000
      0.083333       0.083333       0.000000
      0.083333       0.166667       0.000000
      0.000000       0.166667       0.000000
      0.083333       0.083333       0.000000
      0.166667       0.083333       0.000000
      0.166667       0.166667       0.000000
      0.083333       0.166667       0.000000
      0.166667       0.000000       0.000000
      0.250000       0.000000       0.000000
      0.250000       0.083333       0.000000
      0.166667       0.083333       0.000000
      0.250000       0.000000       0.000000
      0.333333       0.000000       0.000000
      0.333333       0.083333       0.000000
      0.250000       0.083333       0.000000
      0.166667       0.083333       0.000000
      0.250000       0.083333       0.000000
      0.250000       0.166667       0.000000
      0.166667       0.166667       0.000000
      0.250000       0.083333       0.000000
      0.333333       0.083333       0.000000
      0.333333       0.166667       0.000000
      0.250000       0.166667       0.000000
      0.333333       0.000000       0.000000
      0.416667      -0.000000       0.000000
      0.416667       0.083333       0.000000
      0.333333       0.083333       0.000000
      0.416667      -0.000000       0.000000
      0.500000       0.000000       0.000000
      0.500000       0.083333       0.000000
      0.416667       0.083333       0.000000
      0.333333       0.083333       0.000000
      0.416667       0.083333       0.000000
      0.416667       0.166667       0.000000
      0.333333       0.166667       0.000000
      0.416667       0.083333       0.000000
      0.500000       0.083333       0.000000
      0.500000       0.166667       0.000000
      0.416667       0.166667       0.000000
      0.000000       0.166667       0.000000
      0.083333       0.166667       0.000000
      0.083333       0.250000       0.000000
      0.000000       0.250000       0.000000
      0.083333       0.166667       0.000000
      0.166667       0.166667       0.000000
      0.166667       0.250000       0.000000
      0.083333       0.250000       0.000000
      0.000000       0.250000       0.000000
      0.083333       0.250000       0.000000
      0.083333       0.333333       0.000000
      0.000000       0.333333       0.000000
      0.083333       0.250000       0.000000
      0.166667       0.250000       0.000000
      0.166667       0.333333       0.000000
      0.083333       0.333333       0.000000
      0.166667       0.166667       0.000000
      0.250000       0.166667       0.000000
      0.250000       0.250000       0.000000
      0.166667       0.250000       0.000000
      0.250000       0.166667       0.000000
      0.333333       0.166667       0.000000
      0.333333       0.250000       0.000000
      0.250000       0.250000       0.000000
      0.166667       0.250000       0.000000
      0.250000       0.250000       0.000000
      0.250000       0.333333       0.000000
      0.166667       0.333333       0.000000
      0.250000       0.250000       0.000000
      0.333333       0.250000       0.000000
      0.333333       0.333333       0.000000
      0.250000       0.333333       0.000000
      0.333333       0.166667       0.000000
      0.416667       0.166667       0.000000
      0.416667       0.250000       0.000000
      0.333333       0.250000       0.000000
      0.416667       0.166667       0.000000
      0.500000       0.166667       0.000000
      0.500000       0.250000       0.000000
      0.416667       0.250000       0.000000
      0.333333       0.250000       0.000000
      0.416667       0.250000       0.000000
      0.416667       0.333333       0.000000
      0.333333       0.333333       0.000000
      0.416667       0.250000       0.000000
      0.500000       0.250000       0.000000
      0.500000       0.333333       0.000000
      0.416667       0.333333       0.000000
      0.000000       0.333333       0.000000
      0.083333       0.333333       0.000000
      0.083333       0.416667       0.000000
     -0.000000       0.416667       0.000000
      0.083333       0.333333       0.000000
      0.166667       0.333333       0.000000
      0.166667       0.416667       0.000000
      0.083333       0.416667       0.000000
     -0.000000       0.416667       0.000000
      0.083333       0.416667       0.000000
      0.083333       0.500000       0.000000
      0.000000       0.500000       0.000000
      0.083333       0.416667       0.000000
      0.166667       0.416667       0.000000
      0.166667       0.500000       0.000000
      0.083333       0.500000       0.000000
      0.166667       0.333333       0.000000
      0.250000       0.333333       0.000000
      0.250000       0.416667       0.000000
      0.166667       0.416667       0.000000
      0.250000       0.333333       0.000000
      0.333333       0.333333       0.000000
      0.333333       0.416667       0.000000
      0.250000       0.416667       0.000000
      0.166667       0.416667       0.000000
      0.250000       0.416667       0.000000
      0.250000       0.500000       0.000000
      0.166667       0.500000       0.000000
      0.250000       0.416667       0.000000
      0.333333       0.416667       0.000000
      0.333333       0.500000       0.000000
      0.250000       0.500000       0.000000
      0.333333       0.333333       0.000000
      0.375000       0.333333       0.000000
      0.375000       0.375000       0.000000
      0.333333       0.375000       0.000000
      0.375000       0.333333       0.000000
      0.416667       0.333333       0.000000
      0.416667       0.375000       0.000000
      0.375000       0.375000       0.000000
      0.333333       0.375000       0.000000
      0.375000       0.375000       0.000000
      0.375000       0.416667       0.000000
      0.333333       0.416667       0.000000
      0.375000       0.375000       0.000000
      0.416667       0.375000       0.000000
      0.416667       0.416667       0.000000
      0.375000       0.416667       0.000000
      0.416667       0.333333       0.000000
      0.458333       0.333333       0.000000
      0.458333       0.375000       0.000000
      0.416667       0.375000       0.000000
      0.458333       0.333333       0.000000
      0.500000       0.333333       0.000000
      0.500000       0.375000       0.000000
      0.458333       0.375000       0.000000
      0.416667       0.375000       0.000000
      0.458333       0.375000       0.000000
      0.458333       0.416667       0.000000
      0.416667       0.416667       0.000000
      0.458333       0.375000       0.000000
      0.500000       0.375000       0.000000
      0.500000       0.416667       0.000000
      0.458333       0.416667       0.000000
      0.333333       0.416667       0.000000
      0.375000       0.416667       0.000000
      0.375000       0.458333       0.000000
      0.333333       0.458333       0.000000
      0.375000       0.416667       0.000000
      0.416667       0.416667       0.000000
      0.416667       0.458333       0.000000
      0.375000       0.458333       0.000000
      0.333333       0.458333       0.000000
      0.375000       0.458333       0.000000
      0.375000       0.500000       0.000000
      0.333333       0.500000       0.000000
      0.375000       0.458333       0.000000
      0.416667       0.458333       0.000000
      0.416667       0.500000       0.000000
      0.375000       0.500000       0.000000
      0.416667       0.416667       0.000000
      0.437500       0.416667       0.000000
      0.437500       0.437500       0.000000
      0.416667       0.437500       0.000000
      0.437500       0.416667       0.000000
      0.458333       0.416667       0.000000
      0.458333       0.437500       0.000000
      0.437500       0.437500       0.000000
      0.416667       0.437500       0.000000
      0.437500       0.437500       0.000000
      0.437500       0.458333       0.000000
      0.416667       0.458333       0.000000
      0.437500       0.437500       0.000000
      0.458333       0.437500       0.000000
      0.458333       0.458333       0.000000
      0.437500       0.458333       0.000000
      0.458333       0.416667       0.000000
      0.479167       0.416667       0.000000
      0.479167       0.437500       0.000000
      0.458333       0.437500       0.000000
      0.479167       0.416667       0.000000
      0.500000       0.416667       0.000000
      0.500000       0.437500       0.000000
      0.479167       0.437500       0.000000
      0.458333       0.437500       0.000000
      0.479167       0.437500       0.000000
      0.479167       0.458333       0.000000
      0.458333       0.458333       0.000000
      0.479167       0.437500       0.000000
      0.500000       0.437500       0.000000
      0.500000       0.458333       0.000000
      0.479167       0.458333       0.000000
      0.416667       0.458333       0.000000
      0.437500       0.458333       0.000000
      0.437500       0.479167       0.000000
      0.416667       0.479167       0.000000
      0.437500       0.458333       0.000000
      0.458333       0.458333       0.000000
      0.458333       0.479167       0.000000
      0.437500       0.479167       0.000000
      0.416667       0.479167       0.000000
      0.437500       0.479167       0.000000
      0.437500       0.500000       0.000000
      0.416667       0.500000       0.000000
[...]
POINT_DATA  1152
VECTORS U float 
      0.000000       0.000000       0.000000
      0.000000       0.000000       0.000000
      0.000060      -0.000009       0.000000
      0.000047      -0.000006       0.000000
      0.000000       0.000000       0.000000
      0.000000       0.000000       0.000000
      0.000074       0.000013       0.000000
      0.000060      -0.000009       0.000000
      0.000047      -0.000006       0.000000
      0.000060      -0.000009       0.000000
      0.000070      -0.000025       0.000000
      0.000053      -0.000054       0.000000
      0.000060      -0.000009       0.000000
      0.000074       0.000013       0.000000
      0.000086       0.000018       0.000000
      0.000070      -0.000025       0.000000
      0.000000       0.000000       0.000000
      0.000000       0.000000       0.000000
      0.000086       0.000043       0.000000
      0.000074       0.000013       0.000000
      0.000000       0.000000       0.000000
      0.000000       0.000000       0.000000
      0.000093       0.000082       0.000000
      0.000086       0.000043       0.000000
      0.000074       0.000013       0.000000
      0.000086       0.000043       0.000000
      0.000103       0.000078       0.000000
      0.000086       0.000018       0.000000
      0.000086       0.000043       0.000000
      0.000093       0.000082       0.000000
      0.000112       0.000162       0.000000
      0.000103       0.000078       0.000000
      0.000000       0.000000       0.000000
      0.000000       0.000000       0.000000
      0.000085       0.000129       0.000000
      0.000093       0.000082       0.000000
      0.000000       0.000000       0.000000
      0.000000       0.000000       0.000000
      0.000058       0.000177       0.000000
      0.000085       0.000129       0.000000
      0.000093       0.000082       0.000000
      0.000085       0.000129       0.000000
      0.000099       0.000267       0.000000
      0.000112       0.000162       0.000000
      0.000085       0.000129       0.000000
      0.000058       0.000177       0.000000
      0.000051       0.000380       0.000000
      0.000099       0.000267       0.000000
      0.000053      -0.000054       0.000000
      0.000070      -0.000025       0.000000
      0.000022      -0.000046       0.000000
      0.000005      -0.000110       0.000000
      0.000070      -0.000025       0.000000
      0.000086       0.000018       0.000000
      0.000037       0.000018       0.000000
      0.000022      -0.000046       0.000000
      0.000005      -0.000110       0.000000
      0.000022      -0.000046       0.000000
     -0.000078      -0.000064       0.000000
     -0.000089      -0.000153       0.000000
      0.000022      -0.000046       0.000000
      0.000037       0.000018       0.000000
     -0.000069       0.000014       0.000000
     -0.000078      -0.000064       0.000000
      0.000086       0.000018       0.000000
      0.000103       0.000078       0.000000
      0.000055       0.000104       0.000000
      0.000037       0.000018       0.000000
      0.000103       0.000078       0.000000
      0.000112       0.000162       0.000000
      0.000068       0.000232       0.000000
      0.000055       0.000104       0.000000
      0.000037       0.000018       0.000000
      0.000055       0.000104       0.000000
     -0.000057       0.000117       0.000000
     -0.000069       0.000014       0.000000
      0.000055       0.000104       0.000000
      0.000068       0.000232       0.000000
     -0.000041       0.000282       0.000000
     -0.000057       0.000117       0.000000
      0.000112       0.000162       0.000000
      0.000099       0.000267       0.000000
      0.000057       0.000411       0.000000
      0.000068       0.000232       0.000000
      0.000099       0.000267       0.000000
      0.000051       0.000380       0.000000
     -0.000006       0.000610       0.000000
      0.000057       0.000411       0.000000
      0.000068       0.000232       0.000000
      0.000057       0.000411       0.000000
     -0.000040       0.000545       0.000000
     -0.000041       0.000282       0.000000
      0.000057       0.000411       0.000000
     -0.000006       0.000610       0.000000
     -0.000108       0.000873       0.000000
     -0.000040       0.000545       0.000000
     -0.000089      -0.000153       0.000000
     -0.000078      -0.000064       0.000000
     -0.000203      -0.000074       0.000000
     -0.000205      -0.000173       0.000000
     -0.000078      -0.000064       0.000000
     -0.000069       0.000014       0.000000
     -0.000209       0.000012       0.000000
     -0.000203      -0.000074       0.000000
     -0.000205      -0.000173       0.000000
     -0.000203      -0.000074       0.000000
     -0.000317      -0.000073       0.000000
     -0.000315      -0.000175       0.000000
     -0.000203      -0.000074       0.000000
     -0.000209       0.000012       0.000000
     -0.000338       0.000022       0.000000
     -0.000317      -0.000073       0.000000
     -0.000069       0.000014       0.000000
     -0.000057       0.000117       0.000000
     -0.000222       0.000122       0.000000
     -0.000209       0.000012       0.000000
     -0.000057       0.000117       0.000000
     -0.000041       0.000282       0.000000
     -0.000233       0.000303       0.000000
     -0.000222       0.000122       0.000000
     -0.000209       0.000012       0.000000
     -0.000222       0.000122       0.000000
     -0.000394       0.000141       0.000000
     -0.000338       0.000022       0.000000
     -0.000222       0.000122       0.000000
     -0.000233       0.000303       0.000000
     -0.000490       0.000329       0.000000
     -0.000394       0.000141       0.000000
     -0.000041       0.000282       0.000000
     -0.000036       0.000401       0.000000
     -0.000119       0.000428       0.000000
     -0.000126       0.000296       0.000000
     -0.000036       0.000401       0.000000
     -0.000040       0.000545       0.000000
     -0.000117       0.000600       0.000000
     -0.000119       0.000428       0.000000
     -0.000126       0.000296       0.000000
     -0.000119       0.000428       0.000000
     -0.000233       0.000444       0.000000
     -0.000233       0.000303       0.000000
     -0.000119       0.000428       0.000000
     -0.000117       0.000600       0.000000
     -0.000228       0.000637       0.000000
     -0.000233       0.000444       0.000000
     -0.000040       0.000545       0.000000
     -0.000062       0.000709       0.000000
     -0.000133       0.000807       0.000000
     -0.000117       0.000600       0.000000
     -0.000062       0.000709       0.000000
     -0.000108       0.000873       0.000000
     -0.000181       0.001023       0.000000
     -0.000133       0.000807       0.000000
     -0.000117       0.000600       0.000000
     -0.000133       0.000807       0.000000
     -0.000231       0.000898       0.000000
     -0.000228       0.000637       0.000000
     -0.000133       0.000807       0.000000
     -0.000181       0.001023       0.000000
     -0.000277       0.001194       0.000000
     -0.000231       0.000898       0.000000
     -0.000233       0.000303       0.000000
     -0.000233       0.000444       0.000000
     -0.000382       0.000453       0.000000
     -0.000360       0.000311       0.000000
     -0.000233       0.000444       0.000000
     -0.000228       0.000637       0.000000
     -0.000397       0.000654       0.000000
     -0.000382       0.000453       0.000000
     -0.000360       0.000311       0.000000
     -0.000382       0.000453       0.000000
     -0.000554       0.000472       0.000000
     -0.000490       0.000329       0.000000
     -0.000382       0.000453       0.000000
     -0.000397       0.000654       0.000000
     -0.000630       0.000673       0.000000
     -0.000554       0.000472       0.000000
     -0.000228       0.000637       0.000000
     -0.000227       0.000759       0.000000
     -0.000301       0.000779       0.000000
     -0.000304       0.000648       0.000000
     -0.000227       0.000759       0.000000
     -0.000231       0.000898       0.000000
     -0.000299       0.000935       0.000000
     -0.000301       0.000779       0.000000
     -0.000304       0.000648       0.000000
     -0.000301       0.000779       0.000000
     -0.000397       0.000789       0.000000
     -0.000397       0.000654       0.000000
     -0.000301       0.000779       0.000000
     -0.000299       0.000935       0.000000
     -0.000393       0.000960       0.000000
     -0.000397       0.000789       0.000000
     -0.000231       0.000898       0.000000
     -0.000246       0.001048       0.000000
     -0.000309       0.001114       0.000000
     -0.000299       0.000935       0.000000
     -0.000246       0.001048       0.000000
     -0.000277       0.001194       0.000000
     -0.000340       0.001294       0.000000
     -0.000309       0.001114       0.000000
     -0.000299       0.000935       0.000000
     -0.000309       0.001114       0.000000
     -0.000391       0.001175       0.000000
     -0.000393       0.000960       0.000000
     -0.000309       0.001114       0.000000
     -0.000340       0.001294       0.000000
     -0.000419       0.001411       0.000000
     -0.000391       0.001175       0.000000
     -0.000397       0.000654       0.000000
     -0.000397       0.000789       0.000000
     -0.000524       0.000795       0.000000
     -0.000508       0.000660       0.000000
     -0.000397       0.000789       0.000000
     -0.000393       0.000960       0.000000
     -0.000530       0.000970       0.000000
     -0.000524       0.000795       0.000000
     -0.000508       0.000660       0.000000
     -0.000524       0.000795       0.000000
     -0.000672       0.000807       0.000000
     -0.000630       0.000673       0.000000
     -0.000524       0.000795       0.000000
     -0.000530       0.000970       0.000000
     -0.000720       0.000980       0.000000
     -0.000672       0.000807       0.000000
     -0.000393       0.000960       0.000000
     -0.000390       0.001062       0.000000
     -0.000450       0.001075       0.000000
     -0.000455       0.000967       0.000000
     -0.000390       0.001062       0.000000
     -0.000391       0.001175       0.000000
     -0.000447       0.001200       0.000000
     -0.000450       0.001075       0.000000
     -0.000455       0.000967       0.000000
     -0.000450       0.001075       0.000000
     -0.000528       0.001081       0.000000
     -0.000530       0.000970       0.000000
     -0.000450       0.001075       0.000000
     -0.000447       0.001200       0.000000
     -0.000521       0.001217       0.000000
     -0.000528       0.001081       0.000000
     -0.000391       0.001175       0.000000
     -0.000400       0.001295       0.000000
     -0.000450       0.001341       0.000000
     -0.000447       0.001200       0.000000
     -0.000400       0.001295       0.000000
     -0.000419       0.001411       0.000000
     -0.000469       0.001480       0.000000
     -0.000450       0.001341       0.000000
     -0.000447       0.001200       0.000000
     -0.000450       0.001341       0.000000
     -0.000515       0.001384       0.000000
     -0.000521       0.001217       0.000000
     -0.000450       0.001341       0.000000
     -0.000469       0.001480       0.000000
     -0.000532       0.001563       0.000000
     -0.000515       0.001384       0.000000
     -0.000530       0.000970       0.000000
     -0.000528       0.001081       0.000000
     -0.000628       0.001084       0.000000
     -0.000621       0.000973       0.000000
     -0.000528       0.001081       0.000000
     -0.000521       0.001217       0.000000
     -0.000627       0.001223       0.000000
     -0.000628       0.001084       0.000000
     -0.000621       0.000973       0.000000
     -0.000628       0.001084       0.000000
     -0.000746       0.001090       0.000000
     -0.000720       0.000980       0.000000
     -0.000628       0.001084       0.000000
     -0.000627       0.001223       0.000000
     -0.000775       0.001228       0.000000
     -0.000746       0.001090       0.000000
     -0.000521       0.001217       0.000000
     -0.000515       0.001384       0.000000
     -0.000614       0.001414       0.000000
     -0.000627       0.001223       0.000000
     -0.000515       0.001384       0.000000
     -0.000532       0.001563       0.000000
     -0.000619       0.001674       0.000000
     -0.000614       0.001414       0.000000
     -0.000627       0.001223       0.000000
     -0.000614       0.001414       0.000000
     -0.000808       0.001424       0.000000
     -0.000775       0.001228       0.000000
     -0.000614       0.001414       0.000000
     -0.000619       0.001674       0.000000
     -0.000824       0.001925       0.000000
     -0.000808       0.001424       0.000000
      0.000000       0.000000       0.000000
      0.000000       0.000000       0.000000
      0.000013       0.000218       0.000000
      0.000058       0.000177       0.000000
      0.000000       0.000000       0.000000
      0.000000       0.000000       0.000000
     -0.000045       0.000248       0.000000
      0.000013       0.000218       0.000000
      0.000058       0.000177       0.000000
      0.000013       0.000218       0.000000
     -0.000032       0.000475       0.000000
      0.000051       0.000380       0.000000
      0.000013       0.000218       0.000000
     -0.000045       0.000248       0.000000
     -0.000136       0.000541       0.000000
     -0.000032       0.000475       0.000000
      0.000000       0.000000       0.000000
      0.000000       0.000000       0.000000
     -0.000110       0.000270       0.000000
     -0.000045       0.000248       0.000000
      0.000000       0.000000       0.000000
      0.000000       0.000000       0.000000
     -0.000182       0.000293       0.000000
     -0.000110       0.000270       0.000000
     -0.000045       0.000248       0.000000
     -0.000110       0.000270       0.000000
     -0.000250       0.000585       0.000000
     -0.000136       0.000541       0.000000
     -0.000110       0.000270       0.000000
     -0.000182       0.000293       0.000000
     -0.000373       0.000630       0.000000
     -0.000250       0.000585       0.000000
      0.000000       0.000000       0.000000
      0.000000       0.000000       0.000000
     -0.000279       0.000344       0.000000
     -0.000182       0.000293       0.000000
      0.000000       0.000000       0.000000
      0.000000       0.000000       0.000000
     -0.000430       0.000514       0.000000
     -0.000279       0.000344       0.000000
     -0.000182       0.000293       0.000000
     -0.000279       0.000344       0.000000
     -0.000510       0.000710       0.000000
     -0.000373       0.000630       0.000000
     -0.000279       0.000344       0.000000
     -0.000430       0.000514       0.000000
     -0.000656       0.000863       0.000000
     -0.000510       0.000710       0.000000
      0.000051       0.000380       0.000000
     -0.000032       0.000475       0.000000
     -0.000122       0.000773       0.000000
     -0.000006       0.000610       0.000000
     -0.000032       0.000475       0.000000
     -0.000136       0.000541       0.000000
     -0.000262       0.000872       0.000000
     -0.000122       0.000773       0.000000
     -0.000006       0.000610       0.000000
     -0.000122       0.000773       0.000000
     -0.000259       0.001120       0.000000
     -0.000108       0.000873       0.000000
     -0.000122       0.000773       0.000000
     -0.000262       0.000872       0.000000
     -0.000417       0.001233       0.000000
     -0.000259       0.001120       0.000000
     -0.000136       0.000541       0.000000
     -0.000250       0.000585       0.000000
     -0.000404       0.000929       0.000000
     -0.000262       0.000872       0.000000
     -0.000250       0.000585       0.000000
     -0.000373       0.000630       0.000000
     -0.000546       0.000979       0.000000
     -0.000404       0.000929       0.000000
     -0.000262       0.000872       0.000000
     -0.000404       0.000929       0.000000
     -0.000558       0.001282       0.000000
     -0.000417       0.001233       0.000000
     -0.000404       0.000929       0.000000
     -0.000546       0.000979       0.000000
     -0.000694       0.001322       0.000000
     -0.000558       0.001282       0.000000
     -0.000373       0.000630       0.000000
     -0.000510       0.000710       0.000000
     -0.000689       0.001056       0.000000
     -0.000546       0.000979       0.000000
     -0.000510       0.000710       0.000000
     -0.000656       0.000863       0.000000
     -0.000825       0.001180       0.000000
     -0.000689       0.001056       0.000000
     -0.000546       0.000979       0.000000
     -0.000689       0.001056       0.000000
     -0.000829       0.001381       0.000000
     -0.000694       0.001322       0.000000
     -0.000689       0.001056       0.000000
     -0.000825       0.001180       0.000000
     -0.000956       0.001472       0.000000
     -0.000829       0.001381       0.000000
     -0.000417       0.001233       0.000000
     -0.000558       0.001282       0.000000
     -0.000686       0.001623       0.000000
     -0.000580       0.001598       0.000000
     -0.000558       0.001282       0.000000
     -0.000694       0.001322       0.000000
     -0.000802       0.001650       0.000000
     -0.000686       0.001623       0.000000
     -0.000580       0.001598       0.000000
     -0.000686       0.001623       0.000000
     -0.000745       0.001944       0.000000
     -0.000669       0.001930       0.000000
     -0.000686       0.001623       0.000000
     -0.000802       0.001650       0.000000
     -0.000849       0.001964       0.000000
     -0.000745       0.001944       0.000000
     -0.000694       0.001322       0.000000
     -0.000829       0.001381       0.000000
     -0.000925       0.001689       0.000000
     -0.000802       0.001650       0.000000
     -0.000829       0.001381       0.000000
     -0.000956       0.001472       0.000000
     -0.001046       0.001745       0.000000
     -0.000925       0.001689       0.000000
     -0.000802       0.001650       0.000000
     -0.000925       0.001689       0.000000
     -0.000968       0.001988       0.000000
     -0.000849       0.001964       0.000000
     -0.000925       0.001689       0.000000
     -0.001046       0.001745       0.000000
     -0.001087       0.002007       0.000000
     -0.000968       0.001988       0.000000
     -0.000108       0.000873       0.000000
     -0.000178       0.001014       0.000000
     -0.000261       0.001200       0.000000
     -0.000181       0.001023       0.000000
     -0.000178       0.001014       0.000000
     -0.000259       0.001120       0.000000
     -0.000350       0.001316       0.000000
     -0.000261       0.001200       0.000000
     -0.000181       0.001023       0.000000
     -0.000261       0.001200       0.000000
     -0.000372       0.001417       0.000000
     -0.000277       0.001194       0.000000
     -0.000261       0.001200       0.000000
     -0.000350       0.001316       0.000000
     -0.000459       0.001527       0.000000
     -0.000372       0.001417       0.000000
     -0.000259       0.001120       0.000000
     -0.000340       0.001189       0.000000
     -0.000430       0.001381       0.000000
     -0.000350       0.001316       0.000000
     -0.000340       0.001189       0.000000
     -0.000417       0.001233       0.000000
     -0.000500       0.001417       0.000000
     -0.000430       0.001381       0.000000
     -0.000350       0.001316       0.000000
     -0.000430       0.001381       0.000000
     -0.000525       0.001575       0.000000