# vtk DataFile Version 2.0
time_10.vtk
ASCII
DATASET UNSTRUCTURED_GRID
POINTS  1152 float
      0.000000       0.000000       0.000000
      0.083333       0.000000       0.000000
      0.083333       0.083333       0.000000
      0.000000       0.083333       0.000000
      0.083333       0.000000       0.000000
      0.166667       0.000000       0.000000
      0.166667       0.083333       0.000000
      0.083333       0.083333       0.000000
      0.000000       0.083333       0.000000
      0.083333       0.083333       0.000000
      0.083333       0.166667       0.000000
      0.000000       0.166667       0.000000
      0.083333       0.083333       0.000000
      0.166667       0.083333       0.000000
      0.166667       0.166667       0.000000
      0.083333       0.166667       0.000000
      0.166667       0.000000       0.000000
      0.250000       0.000000       0.000000
      0.250000       0.083333       0.000000
      0.166667       0.083333       0.000000
      0.250000       0.000000       0.000000
      0.333333       0.000000       0.000000
      0.333333       0.083333       0.000000
      0.250000       0.083333       0.000000
      0.166667       0.083333       0.000000
      0.250000       0.083333       0.000000
      0.250000       0.166667       0.000000
      0.166667       0.166667       0.000000
      0.250000       0.083333       0.000000
      0.333333       0.083333       0.000000
      0.333333       0.166667       0.000000
      0.250000       0.166667       0.000000
      0.333333       0.000000       0.000000
      0.416667      -0.000000       0.000000
      0.416667       0.083333       0.000000
      0.333333       0.083333       0.000000
      0.416667      -0.000000       0.000000
      0.500000       0.000000       0.000000
      0.500000       0.083333       0.000000
      0.416667       0.083333       0.000000
      0.333333       0.083333       0.000000
      0.416667       0.083333       0.000000
      0.416667       0.166667       0.000000
      0.333333       0.166667       0.000000
      0.416667       0.083333       0.000000
      0.500000       0.083333       0.000000
      0.500000       0.166667       0.000000
      0.416667       0.166667       0.000000
      0.000000       0.166667       0.000000
      0.083333       0.166667       0.000000
      0.083333       0.250000       0.000000
      0.000000       0.250000       0.000000
      0.083333       0.166667       0.000000
      0.166667       0.166667       0.000000
      0.166667       0.250000       0.000000
      0.083333       0.250000       0.000000
      0.000000       0.250000       0.000000
      0.083333       0.250000       0.000000
      0.083333       0.333333       0.000000
      0.000000       0.333333       0.000000
      0.083333       0.250000       0.000000
      0.166667       0.250000       0.000000
      0.166667       0.333333       0.000000
      0.083333       0.333333       0.000000
      0.166667       0.166667       0.000000
      0.250000       0.166667       0.000000
      0.250000       0.250000       0.000000
      0.166667       0.250000       0.000000
      0.250000       0.166667       0.000000
      0.333333       0.166667       0.000000
      0.333333       0.250000       0.000000
      0.250000       0.250000       0.000000
      0.166667       0.250000       0.000000
      0.250000       0.250000       0.000000
      0.250000       0.333333       0.000000
      0.166667       0.333333       0.000000
      0.250000       0.250000       0.000000
      0.333333       0.250000       0.000000
      0.333333       0.333333       0.000000
      0.250000       0.333333       0.000000
      0.333333       0.166667       0.000000
      0.416667       0.166667       0.000000
      0.416667       0.250000       0.000000
      0.333333       0.250000       0.000000
      0.416667       0.166667       0.000000
      0.500000       0.166667       0.000000
      0.500000       0.250000       0.000000
      0.416667       0.250000       0.000000
      0.333333       0.250000       0.000000
      0.416667       0.250000       0.000000
      0.416667       0.333333       0.000000
      0.333333       0.333333       0.000000
      0.416667       0.250000       0.000000
      0.500000       0.250000       0.000000
      0.500000       0.333333       0.000000
      0.416667       0.333333       0.000000
      0.000000       0.333333       0.000000
      0.083333       0.333333       0.000000
      0.083333       0.416667       0.000000
     -0.000000       0.416667       0.000000
      0.083333       0.333333       0.000000
      0.166667       0.333333       0.000000
      0.166667       0.416667       0.000000
      0.083333       0.416667       0.000000
     -0.000000       0.416667       0.000000
      0.083333       0.416667       0.000000
      0.083333       0.500000       0.000000
      0.000000       0.500000       0.000000
      0.083333       0.416667       0.000000
      0.166667       0.416667       0.000000
      0.166667       0.500000       0.000000
      0.083333       0.500000       0.000000
      0.166667       0.333333       0.000000
      0.250000       0.333333       0.000000
      0.250000       0.416667       0.000000
      0.166667       0.416667       0.000000
      0.250000       0.333333       0.000000
      0.333333       0.333333       0.000000
      0.333333       0.416667       0.000000
      0.250000       0.416667       0.000000
      0.166667       0.416667       0.000000
      0.250000       0.416667       0.000000
      0.250000       0.500000       0.000000
      0.166667       0.500000       0.000000
      0.250000       0.416667       0.000000
      0.333333       0.416667       0.000000
      0.333333       0.500000       0.000000
      0.250000       0.500000       0.000000
      0.333333       0.333333       0.000000
      0.375000       0.333333       0.000000
      0.375000       0.375000       0.000000
      0.333333       0.375000       0.000000
      0.375000       0.333333       0.000000
      0.416667       0.333333       0.000000
      0.416667       0.375000       0.000000
      0.375000       0.375000       0.000000
      0.333333       0.375000       0.000000
      0.375000       0.375000       0.000000
      0.375000       0.416667       0.000000
      0.333333       0.416667       0.000000
      0.375000       0.375000       0.000000
      0.416667       0.375000       0.000000
      0.416667       0.416667       0.000000
      0.375000       0.416667       0.000000
      0.416667       0.333333       0.000000
      0.458333       0.333333       0.000000
      0.458333       0.375000       0.000000
      0.416667       0.375000       0.000000
      0.458333       0.333333       0.000000
      0.500000       0.333333       0.000000
      0.500000       0.375000       0.000000
      0.458333       0.375000       0.000000
      0.416667       0.375000       0.000000
      0.458333       0.375000       0.000000
      0.458333       0.416667       0.000000
      0.416667       0.416667       0.000000
      0.458333       0.375000       0.000000
      0.500000       0.375000       0.000000
      0.500000       0.416667       0.000000
      0.458333       0.416667       0.000000
      0.333333       0.416667       0.000000
      0.375000       0.416667       0.000000
      0.375000       0.458333       0.000000
      0.333333       0.458333       0.000000
      0.375000       0.416667       0.000000
      0.416667       0.416667       0.000000
      0.416667       0.458333       0.000000
      0.375000       0.458333       0.000000
      0.333333       0.458333       0.000000
      0.375000       0.458333       0.000000
      0.375000       0.500000       0.000000
      0.333333       0.500000       0.000000
      0.375000       0.458333       0.000000
      0.416667       0.458333       0.000000
      0.416667       0.500000       0.000000
      0.375000       0.500000       0.000000
      0.416667       0.416667       0.000000
      0.437500       0.416667       0.000000
      0.437500       0.437500       0.000000
      0.416667       0.437500       0.000000
      0.437500       0.416667       0.000000
      0.458333       0.416667       0.000000
      0.458333       0.437500       0.000000
      0.437500       0.437500       0.000000
      0.416667       0.437500       0.000000
      0.437500       0.437500       0.000000
      0.437500       0.458333       0.000000
      0.416667       0.458333       0.000000
      0.437500       0.437500       0.000000
      0.458333       0.437500       0.000000
      0.458333       0.458333       0.000000
      0.437500       0.458333       0.000000
      0.458333       0.416667       0.000000
      0.479167       0.416667       0.000000
      0.479167       0.437500       0.000000
      0.458333       0.437500       0.000000
      0.479167       0.416667       0.000000
      0.500000       0.416667       0.000000
      0.500000       0.437500       0.000000
      0.479167       0.437500       0.000000
      0.458333       0.437500       0.000000
      0.479167       0.437500       0.000000
      0.479167       0.458333       0.000000
      0.458333       0.458333       0.000000
      0.479167       0.437500       0.000000
      0.500000       0.437500       0.000000
      0.500000       0.458333       0.000000
      0.479167       0.458333       0.000000
      0.416667       0.458333       0.000000
      0.437500       0.458333       0.000000
      0.437500       0.479167       0.000000
      0.416667       0.479167       0.000000
      0.437500       0.458333       0.000000
      0.458333       0.458333       0.000000
      0.458333       0.479167       0.000000
      0.437500       0.479167       0.000000
      0.416667       0.479167       0.000000
      0.437500       0.479167       0.000000
      0.437500       0.500000       0.000000
      0.416667       0.500000       0.000000
[...]
POINT_DATA  1152
VECTORS U float 
      0.000000       0.000000       0.000000
      0.000000       0.000000       0.000000
      0.000073      -0.000014       0.000000
      0.000055      -0.000014       0.000000
      0.000000       0.000000       0.000000
      0.000000       0.000000       0.000000
      0.000091       0.000015       0.000000
      0.000073      -0.000014       0.000000
      0.000055      -0.000014       0.000000
      0.000073      -0.000014       0.000000
      0.000081      -0.000039       0.000000
      0.000058      -0.000080       0.000000
      0.000073      -0.000014       0.000000
      0.000091       0.000015       0.000000
      0.000103       0.000019       0.000000
      0.000081      -0.000039       0.000000
      0.000000       0.000000       0.000000
      0.000000       0.000000       0.000000
      0.000109       0.000054       0.000000
      0.000091       0.000015       0.000000
      0.000000       0.000000       0.000000
      0.000000       0.000000       0.000000
      0.000118       0.000105       0.000000
      0.000109       0.000054       0.000000
      0.000091       0.000015       0.000000
      0.000109       0.000054       0.000000
      0.000125       0.000098       0.000000
      0.000103       0.000019       0.000000
      0.000109       0.000054       0.000000
      0.000118       0.000105       0.000000
      0.000138       0.000207       0.000000
      0.000125       0.000098       0.000000
      0.000000       0.000000       0.000000
      0.000000       0.000000       0.000000
      0.000109       0.000167       0.000000
      0.000118       0.000105       0.000000
      0.000000       0.000000       0.000000
      0.000000       0.000000       0.000000
      0.000075       0.000231       0.000000
      0.000109       0.000167       0.000000
      0.000118       0.000105       0.000000
      0.000109       0.000167       0.000000
      0.000123       0.000346       0.000000
      0.000138       0.000207       0.000000
      0.000109       0.000167       0.000000
      0.000075       0.000231       0.000000
      0.000063       0.000497       0.000000
      0.000123       0.000346       0.000000
      0.000058      -0.000080       0.000000
      0.000081      -0.000039       0.000000
      0.000012      -0.000067       0.000000
     -0.000010      -0.000155       0.000000
      0.000081      -0.000039       0.000000
      0.000103       0.000019       0.000000
      0.000032       0.000017       0.000000
      0.000012      -0.000067       0.000000
     -0.000010      -0.000155       0.000000
      0.000012      -0.000067       0.000000
     -0.000122      -0.000093       0.000000
     -0.000137      -0.000212       0.000000
      0.000012      -0.000067       0.000000
      0.000032       0.000017       0.000000
     -0.000111       0.000010       0.000000
     -0.000122      -0.000093       0.000000
      0.000103       0.000019       0.000000
      0.000125       0.000098       0.000000
      0.000056       0.000129       0.000000
      0.000032       0.000017       0.000000
      0.000125       0.000098       0.000000
      0.000138       0.000207       0.000000
      0.000075       0.000296       0.000000
      0.000056       0.000129       0.000000
      0.000032       0.000017       0.000000
      0.000056       0.000129       0.000000
     -0.000096       0.000144       0.000000
     -0.000111       0.000010       0.000000
      0.000056       0.000129       0.000000
      0.000075       0.000296       0.000000
     -0.000075       0.000359       0.000000
     -0.000096       0.000144       0.000000
      0.000138       0.000207       0.000000
      0.000123       0.000346       0.000000
      0.000063       0.000530       0.000000
      0.000075       0.000296       0.000000
      0.000123       0.000346       0.000000
      0.000063       0.000497       0.000000
     -0.000017       0.000797       0.000000
      0.000063       0.000530       0.000000
      0.000075       0.000296       0.000000
      0.000063       0.000530       0.000000
     -0.000073       0.000701       0.000000
     -0.000075       0.000359       0.000000
      0.000063       0.000530       0.000000
     -0.000017       0.000797       0.000000
     -0.000158       0.001139       0.000000
     -0.000073       0.000701       0.000000
     -0.000137      -0.000212       0.000000
     -0.000122      -0.000093       0.000000
     -0.000289      -0.000106       0.000000
     -0.000291      -0.000238       0.000000
     -0.000122      -0.000093       0.000000
     -0.000111       0.000010       0.000000
     -0.000298       0.000008       0.000000
     -0.000289      -0.000106       0.000000
     -0.000291      -0.000238       0.000000
     -0.000289      -0.000106       0.000000
     -0.000440      -0.000105       0.000000
     -0.000438      -0.000240       0.000000
     -0.000289      -0.000106       0.000000
     -0.000298       0.000008       0.000000
     -0.000468       0.000021       0.000000
     -0.000440      -0.000105       0.000000
     -0.000111       0.000010       0.000000
     -0.000096       0.000144       0.000000
     -0.000316       0.000151       0.000000
     -0.000298       0.000008       0.000000
     -0.000096       0.000144       0.000000
     -0.000075       0.000359       0.000000
     -0.000332       0.000385       0.000000
     -0.000316       0.000151       0.000000
     -0.000298       0.000008       0.000000
     -0.000316       0.000151       0.000000
     -0.000541       0.000176       0.000000
     -0.000468       0.000021       0.000000
     -0.000316       0.000151       0.000000
     -0.000332       0.000385       0.000000
     -0.000668       0.000420       0.000000
     -0.000541       0.000176       0.000000
     -0.000075       0.000359       0.000000
     -0.000068       0.000513       0.000000
     -0.000182       0.000547       0.000000
     -0.000189       0.000375       0.000000
     -0.000068       0.000513       0.000000
     -0.000073       0.000701       0.000000
     -0.000179       0.000770       0.000000
     -0.000182       0.000547       0.000000
     -0.000189       0.000375       0.000000
     -0.000182       0.000547       0.000000
     -0.000334       0.000567       0.000000
     -0.000332       0.000385       0.000000
     -0.000182       0.000547       0.000000
     -0.000179       0.000770       0.000000
     -0.000330       0.000817       0.000000
     -0.000334       0.000567       0.000000
     -0.000073       0.000701       0.000000
     -0.000099       0.000917       0.000000
     -0.000197       0.001042       0.000000
     -0.000179       0.000770       0.000000
     -0.000099       0.000917       0.000000
     -0.000158       0.001139       0.000000
     -0.000258       0.001333       0.000000
     -0.000197       0.001042       0.000000
     -0.000179       0.000770       0.000000
     -0.000197       0.001042       0.000000
     -0.000333       0.001156       0.000000
     -0.000330       0.000817       0.000000
     -0.000197       0.001042       0.000000
     -0.000258       0.001333       0.000000
     -0.000391       0.001554       0.000000
     -0.000333       0.001156       0.000000
     -0.000332       0.000385       0.000000
     -0.000334       0.000567       0.000000
     -0.000531       0.000579       0.000000
     -0.000499       0.000396       0.000000
     -0.000334       0.000567       0.000000
     -0.000330       0.000817       0.000000
     -0.000554       0.000838       0.000000
     -0.000531       0.000579       0.000000
     -0.000499       0.000396       0.000000
     -0.000531       0.000579       0.000000
     -0.000754       0.000605       0.000000
     -0.000668       0.000420       0.000000
     -0.000531       0.000579       0.000000
     -0.000554       0.000838       0.000000
     -0.000856       0.000864       0.000000
     -0.000754       0.000605       0.000000
     -0.000330       0.000817       0.000000
     -0.000328       0.000975       0.000000
     -0.000428       0.000999       0.000000
     -0.000431       0.000830       0.000000
     -0.000328       0.000975       0.000000
     -0.000333       0.001156       0.000000
     -0.000427       0.001202       0.000000
     -0.000428       0.000999       0.000000
     -0.000431       0.000830       0.000000
     -0.000428       0.000999       0.000000
     -0.000557       0.001013       0.000000
     -0.000554       0.000838       0.000000
     -0.000428       0.000999       0.000000
     -0.000427       0.001202       0.000000
     -0.000553       0.001233       0.000000
     -0.000557       0.001013       0.000000
     -0.000333       0.001156       0.000000
     -0.000352       0.001354       0.000000
     -0.000438       0.001437       0.000000
     -0.000427       0.001202       0.000000
     -0.000352       0.001354       0.000000
     -0.000391       0.001554       0.000000
     -0.000477       0.001683       0.000000
     -0.000438       0.001437       0.000000
     -0.000427       0.001202       0.000000
     -0.000438       0.001437       0.000000
     -0.000551       0.001514       0.000000
     -0.000553       0.001233       0.000000
     -0.000438       0.001437       0.000000
     -0.000477       0.001683       0.000000
     -0.000586       0.001836       0.000000
     -0.000551       0.001514       0.000000
     -0.000554       0.000838       0.000000
     -0.000557       0.001013       0.000000
     -0.000722       0.001021       0.000000
     -0.000700       0.000847       0.000000
     -0.000557       0.001013       0.000000
     -0.000553       0.001233       0.000000
     -0.000735       0.001245       0.000000
     -0.000722       0.001021       0.000000
     -0.000700       0.000847       0.000000
     -0.000722       0.001021       0.000000
     -0.000915       0.001038       0.000000
     -0.000856       0.000864       0.000000
     -0.000722       0.001021       0.000000
     -0.000735       0.001245       0.000000
     -0.000982       0.001261       0.000000
     -0.000915       0.001038       0.000000
     -0.000553       0.001233       0.000000
     -0.000550       0.001365       0.000000
     -0.000631       0.001381       0.000000
     -0.000635       0.001241       0.000000
     -0.000550       0.001365       0.000000
     -0.000551       0.001514       0.000000
     -0.000626       0.001545       0.000000
     -0.000631       0.001381       0.000000
     -0.000635       0.001241       0.000000
     -0.000631       0.001381       0.000000
     -0.000733       0.001389       0.000000
     -0.000735       0.001245       0.000000
     -0.000631       0.001381       0.000000
     -0.000626       0.001545       0.000000
     -0.000726       0.001566       0.000000
     -0.000733       0.001389       0.000000
     -0.000551       0.001514       0.000000
     -0.000562       0.001674       0.000000
     -0.000631       0.001733       0.000000
     -0.000626       0.001545       0.000000
     -0.000562       0.001674       0.000000
     -0.000586       0.001836       0.000000
     -0.000655       0.001929       0.000000
     -0.000631       0.001733       0.000000
     -0.000626       0.001545       0.000000
     -0.000631       0.001733       0.000000
     -0.000719       0.001790       0.000000
     -0.000726       0.001566       0.000000
     -0.000631       0.001733       0.000000
     -0.000655       0.001929       0.000000
     -0.000740       0.002045       0.000000
     -0.000719       0.001790       0.000000
     -0.000735       0.001245       0.000000
     -0.000733       0.001389       0.000000
     -0.000865       0.001393       0.000000
     -0.000853       0.001250       0.000000
     -0.000733       0.001389       0.000000
     -0.000726       0.001566       0.000000
     -0.000869       0.001574       0.000000
     -0.000865       0.001393       0.000000
     -0.000853       0.001250       0.000000
     -0.000865       0.001393       0.000000
     -0.001020       0.001404       0.000000
     -0.000982       0.001261       0.000000
     -0.000865       0.001393       0.000000
     -0.000869       0.001574       0.000000
     -0.001065       0.001584       0.000000
     -0.001020       0.001404       0.000000
     -0.000726       0.001566       0.000000
     -0.000719       0.001790       0.000000
     -0.000853       0.001831       0.000000
     -0.000869       0.001574       0.000000
     -0.000719       0.001790       0.000000
     -0.000740       0.002045       0.000000
     -0.000862       0.002212       0.000000
     -0.000853       0.001831       0.000000
     -0.000869       0.001574       0.000000
     -0.000853       0.001831       0.000000
     -0.001124       0.001851       0.000000
     -0.001065       0.001584       0.000000
     -0.000853       0.001831       0.000000
     -0.000862       0.002212       0.000000
     -0.001185       0.002649       0.000000
     -0.001124       0.001851       0.000000
      0.000000       0.000000       0.000000
      0.000000       0.000000       0.000000
      0.000016       0.000288       0.000000
      0.000075       0.000231       0.000000
      0.000000       0.000000       0.000000
      0.000000       0.000000       0.000000
     -0.000061       0.000331       0.000000
      0.000016       0.000288       0.000000
      0.000075       0.000231       0.000000
      0.000016       0.000288       0.000000
     -0.000045       0.000629       0.000000
      0.000063       0.000497       0.000000
      0.000016       0.000288       0.000000
     -0.000061       0.000331       0.000000
     -0.000186       0.000725       0.000000
     -0.000045       0.000629       0.000000
      0.000000       0.000000       0.000000
      0.000000       0.000000       0.000000
     -0.000148       0.000365       0.000000
     -0.000061       0.000331       0.000000
      0.000000       0.000000       0.000000
      0.000000       0.000000       0.000000
     -0.000248       0.000401       0.000000
     -0.000148       0.000365       0.000000
     -0.000061       0.000331       0.000000
     -0.000148       0.000365       0.000000
     -0.000343       0.000794       0.000000
     -0.000186       0.000725       0.000000
     -0.000148       0.000365       0.000000
     -0.000248       0.000401       0.000000
     -0.000515       0.000867       0.000000
     -0.000343       0.000794       0.000000
      0.000000       0.000000       0.000000
      0.000000       0.000000       0.000000
     -0.000386       0.000481       0.000000
     -0.000248       0.000401       0.000000
      0.000000       0.000000       0.000000
      0.000000       0.000000       0.000000
     -0.000596       0.000725       0.000000
     -0.000386       0.000481       0.000000
     -0.000248       0.000401       0.000000
     -0.000386       0.000481       0.000000
     -0.000707       0.000989       0.000000
     -0.000515       0.000867       0.000000
     -0.000386       0.000481       0.000000
     -0.000596       0.000725       0.000000
     -0.000909       0.001207       0.000000
     -0.000707       0.000989       0.000000
      0.000063       0.000497       0.000000
     -0.000045       0.000629       0.000000
     -0.000170       0.001026       0.000000
     -0.000017       0.000797       0.000000
     -0.000045       0.000629       0.000000
     -0.000186       0.000725       0.000000
     -0.000362       0.001176       0.000000
     -0.000170       0.001026       0.000000
     -0.000017       0.000797       0.000000
     -0.000170       0.001026       0.000000
     -0.000359       0.001495       0.000000
     -0.000158       0.001139       0.000000
     -0.000170       0.001026       0.000000
     -0.000362       0.001176       0.000000
     -0.000582       0.001676       0.000000
     -0.000359       0.001495       0.000000
     -0.000186       0.000725       0.000000
     -0.000343       0.000794       0.000000
     -0.000561       0.001269       0.000000
     -0.000362       0.001176       0.000000
     -0.000343       0.000794       0.000000
     -0.000515       0.000867       0.000000
     -0.000760       0.001350       0.000000
     -0.000561       0.001269       0.000000
     -0.000362       0.001176       0.000000
     -0.000561       0.001269       0.000000
     -0.000782       0.001759       0.000000
     -0.000582       0.001676       0.000000
     -0.000561       0.001269       0.000000
     -0.000760       0.001350       0.000000
     -0.000972       0.001823       0.000000
     -0.000782       0.001759       0.000000
     -0.000515       0.000867       0.000000
     -0.000707       0.000989       0.000000
     -0.000958       0.001465       0.000000
     -0.000760       0.001350       0.000000
     -0.000707       0.000989       0.000000
     -0.000909       0.001207       0.000000
     -0.001146       0.001641       0.000000
     -0.000958       0.001465       0.000000
     -0.000760       0.001350       0.000000
     -0.000958       0.001465       0.000000
     -0.001157       0.001909       0.000000
     -0.000972       0.001823       0.000000
     -0.000958       0.001465       0.000000
     -0.001146       0.001641       0.000000
     -0.001331       0.002039       0.000000
     -0.001157       0.001909       0.000000
     -0.000582       0.001676       0.000000
     -0.000782       0.001759       0.000000
     -0.000968       0.002233       0.000000
     -0.000820       0.002190       0.000000
     -0.000782       0.001759       0.000000
     -0.000972       0.001823       0.000000
     -0.001126       0.002273       0.000000
     -0.000968       0.002233       0.000000
     -0.000820       0.002190       0.000000
     -0.000968       0.002233       0.000000
     -0.001053       0.002673       0.000000
     -0.000951       0.002655       0.000000
     -0.000968       0.002233       0.000000
     -0.001126       0.002273       0.000000
     -0.001193       0.002701       0.000000
     -0.001053       0.002673       0.000000
     -0.000972       0.001823       0.000000
     -0.001157       0.001909       0.000000
     -0.001294       0.002328       0.000000
     -0.001126       0.002273       0.000000
     -0.001157       0.001909       0.000000
     -0.001331       0.002039       0.000000
     -0.001457       0.002406       0.000000
     -0.001294       0.002328       0.000000
     -0.001126       0.002273       0.000000
     -0.001294       0.002328       0.000000
     -0.001354       0.002732       0.000000
     -0.001193       0.002701       0.000000
     -0.001294       0.002328       0.000000
     -0.001457       0.002406       0.000000
     -0.001514       0.002758       0.000000
     -0.001354       0.002732       0.000000
     -0.000158       0.001139       0.000000
     -0.000249       0.001339       0.000000
     -0.000364       0.001588       0.000000
     -0.000258       0.001333       0.000000
     -0.000249       0.001339       0.000000
     -0.000359       0.001495       0.000000
     -0.000487       0.001766       0.000000
     -0.000364       0.001588       0.000000
     -0.000258       0.001333       0.000000
     -0.000364       0.001588       0.000000
     -0.000517       0.001883       0.000000
     -0.000391       0.001554       0.000000
     -0.000364       0.001588       0.000000
     -0.000487       0.001766       0.000000
     -0.000644       0.002064       0.000000
     -0.000517       0.001883       0.000000
     -0.000359       0.001495       0.000000
     -0.000473       0.001604       0.000000
     -0.000602       0.001874       0.000000
     -0.000487       0.001766       0.000000
     -0.000473       0.001604       0.000000
     -0.000582       0.001676       0.000000
     -0.000703       0.001935       0.000000
     -0.000602       0.001874       0.000000
     -0.000487       0.001766       0.000000
     -0.000602       0.001874       0.000000
     -0.000741       0.002148       0.000000