# vtk DataFile Version 2.0
time_10.vtk
ASCII
DATASET UNSTRUCTURED_GRID
POINTS  1152 float
      0.000000       0.000000       0.000000
      0.083333       0.000000       0.000000
      0.083333       0.083333       0.000000
      0.000000       0.083333       0.000000
      0.083333       0.000000       0.000000
      0.166667       0.000000       0.000000
      0.166667       0.083333       0.000000
      0.083333       0.083333       0.000000
      0.000000       0.083333       0.000000
      0.083333       0.083333       0.000000
      0.083333       0.166667       0.000000
      0.000000       0.166667       0.000000
      0.083333       0.083333       0.000000
      0.166667       0.083333       0.000000
      0.166667       0.166667       0.000000
      0.083333       0.166667       0.000000
      0.166667       0.000000       0.000000
      0.250000       0.000000       0.000000
      0.250000       0.083333       0.000000
      0.166667       0.083333       0.000000
      0.250000       0.000000       0.000000
      0.333333       0.000000       0.000000
      0.333333       0.083333       0.000000
      0.250000       0.083333       0.000000
      0.166667       0.083333       0.000000
      0.250000       0.083333       0.000000
      0.250000       0.166667       0.000000
      0.166667       0.166667       0.000000
      0.250000       0.083333       0.000000
      0.333333       0.083333       0.000000
      0.333333       0.166667       0.000000
      0.250000       0.166667       0.000000
      0.333333       0.000000       0.000000
      0.416667      -0.000000       0.000000
      0.416667       0.083333       0.000000
      0.333333       0.083333       0.000000
      0.416667      -0.000000       0.000000
      0.500000       0.000000       0.000000
      0.500000       0.083333       0.000000
      0.416667       0.083333       0.000000
      0.333333       0.083333       0.000000
      0.416667       0.083333       0.000000
      0.416667       0.166667       0.000000
      0.333333       0.166667       0.000000
      0.416667       0.083333       0.000000
      0.500000       0.083333       0.000000
      0.500000       0.166667       0.000000
      0.416667       0.166667       0.000000
      0.000000       0.166667       0.000000
      0.083333       0.166667       0.000000
      0.083333       0.250000       0.000000
      0.000000       0.250000       0.000000
      0.083333       0.166667       0.000000
      0.166667       0.166667       0.000000
      0.166667       0.250000       0.000000
      0.083333       0.250000       0.000000
      0.000000       0.250000       0.000000
      0.083333       0.250000       0.000000
      0.083333       0.333333       0.000000
      0.000000       0.333333       0.000000
      0.083333       0.250000       0.000000
      0.166667       0.250000       0.000000
      0.166667       0.333333       0.000000
      0.083333       0.333333       0.000000
      0.166667       0.166667       0.000000
      0.250000       0.166667       0.000000
      0.250000       0.250000       0.000000
      0.166667       0.250000       0.000000
      0.250000       0.166667       0.000000
      0.333333       0.166667       0.000000
      0.333333       0.250000       0.000000
      0.250000       0.250000       0.000000
      0.166667       0.250000       0.000000
      0.250000       0.250000       0.000000
      0.250000       0.333333       0.000000
      0.166667       0.333333       0.000000
      0.250000       0.250000       0.000000
      0.333333       0.250000       0.000000
      0.333333       0.333333       0.000000
      0.250000       0.333333       0.000000
      0.333333       0.166667       0.000000
      0.416667       0.166667       0.000000
      0.416667       0.250000       0.000000
      0.333333       0.250000       0.000000
      0.416667       0.166667       0.000000
      0.500000       0.166667       0.000000
      0.500000       0.250000       0.000000
      0.416667       0.250000       0.000000
      0.333333       0.250000       0.000000
      0.416667       0.250000       0.000000
      0.416667       0.333333       0.000000
      0.333333       0.333333       0.000000
      0.416667       0.250000       0.000000
      0.500000       0.250000       0.000000
      0.500000       0.333333       0.000000
      0.416667       0.333333       0.000000
      0.000000       0.333333       0.000000
      0.083333       0.333333       0.000000
      0.083333       0.416667       0.000000
     -0.000000       0.416667       0.000000
      0.083333       0.333333       0.000000
      0.166667       0.333333       0.000000
      0.166667       0.416667       0.000000
      0.083333       0.416667       0.000000
     -0.000000       0.416667       0.000000
      0.083333       0.416667       0.000000
      0.083333       0.500000       0.000000
      0.000000       0.500000       0.000000
      0.083333       0.416667       0.000000
      0.166667       0.416667       0.000000
      0.166667       0.500000       0.000000
      0.083333       0.500000       0.000000
      0.166667       0.333333       0.000000
      0.250000       0.333333       0.000000
      0.250000       0.416667       0.000000
      0.166667       0.416667       0.000000
      0.250000       0.333333       0.000000
      0.333333       0.333333       0.000000
      0.333333       0.416667       0.000000
      0.250000       0.416667       0.000000
      0.166667       0.416667       0.000000
      0.250000       0.416667       0.000000
      0.250000       0.500000       0.000000
      0.166667       0.500000       0.000000
      0.250000       0.416667       0.000000
      0.333333       0.416667       0.000000
      0.333333       0.500000       0.000000
      0.250000       0.500000       0.000000
      0.333333       0.333333       0.000000
      0.375000       0.333333       0.000000
      0.375000       0.375000       0.000000
      0.333333       0.375000       0.000000
      0.375000       0.333333       0.000000
      0.416667       0.333333       0.000000
      0.416667       0.375000       0.000000
      0.375000       0.375000       0.000000
      0.333333       0.375000       0.000000
      0.375000       0.375000       0.000000
      0.375000       0.416667       0.000000
      0.333333       0.416667       0.000000
      0.375000       0.375000       0.000000
      0.416667       0.375000       0.000000
      0.416667       0.416667       0.000000
      0.375000       0.416667       0.000000
      0.416667       0.333333       0.000000
      0.458333       0.333333       0.000000
      0.458333       0.375000       0.000000
      0.416667       0.375000       0.000000
      0.458333       0.333333       0.000000
      0.500000       0.333333       0.000000
      0.500000       0.375000       0.000000
      0.458333       0.375000       0.000000
      0.416667       0.375000       0.000000
      0.458333       0.375000       0.000000
      0.458333       0.416667       0.000000
      0.416667       0.416667       0.000000
      0.458333       0.375000       0.000000
      0.500000       0.375000       0.000000
      0.500000       0.416667       0.000000
      0.458333       0.416667       0.000000
      0.333333       0.416667       0.000000
      0.375000       0.416667       0.000000
      0.375000       0.458333       0.000000
      0.333333       0.458333       0.000000
      0.375000       0.416667       0.000000
      0.416667       0.416667       0.000000
      0.416667       0.458333       0.000000
      0.375000       0.458333       0.000000
      0.333333       0.458333       0.000000
      0.375000       0.458333       0.000000
      0.375000       0.500000       0.000000
      0.333333       0.500000       0.000000
      0.375000       0.458333       0.000000
      0.416667       0.458333       0.000000
      0.416667       0.500000       0.000000
      0.375000       0.500000       0.000000
      0.416667       0.416667       0.000000
      0.437500       0.416667       0.000000
      0.437500       0.437500       0.000000
      0.416667       0.437500       0.000000
      0.437500       0.416667       0.000000
      0.458333       0.416667       0.000000
      0.458333       0.437500       0.000000
      0.437500       0.437500       0.000000
      0.416667       0.437500       0.000000
      0.437500       0.437500       0.000000
      0.437500       0.458333       0.000000
      0.416667       0.458333       0.000000
      0.437500       0.437500       0.000000
      0.458333       0.437500       0.000000
      0.458333       0.458333       0.000000
      0.437500       0.458333       0.000000
      0.458333       0.416667       0.000000
      0.479167       0.416667       0.000000
      0.479167       0.437500       0.000000
      0.458333       0.437500       0.000000
      0.479167       0.416667       0.000000
      0.500000       0.416667       0.000000
      0.500000       0.437500       0.000000
      0.479167       0.437500       0.000000
      0.458333       0.437500       0.000000
      0.479167       0.437500       0.000000
      0.479167       0.458333       0.000000
      0.458333       0.458333       0.000000
      0.479167       0.437500       0.000000
      0.500000       0.437500       0.000000
      0.500000       0.458333       0.000000
      0.479167       0.458333       0.000000
      0.416667       0.458333       0.000000
      0.437500       0.458333       0.000000
      0.437500       0.479167       0.000000
      0.416667       0.479167       0.000000
      0.437500       0.458333       0.000000
      0.458333       0.458333       0.000000
      0.458333       0.479167       0.000000
      0.437500       0.479167       0.000000
      0.416667       0.479167       0.000000
      0.437500       0.479167       0.000000
      0.437500       0.500000       0.000000
      0.416667       0.500000       0.000000
[...]
POINT_DATA  1152
VECTORS U float 
      0.000000       0.000000       0.000000
      0.000000       0.000000       0.000000
      0.000073      -0.000016       0.000000
      0.000054      -0.000017       0.000000
      0.000000       0.000000       0.000000
      0.000000       0.000000       0.000000
      0.000093       0.000014       0.000000
      0.000073      -0.000016       0.000000
      0.000054      -0.000017       0.000000
      0.000073      -0.000016       0.000000
      0.000080      -0.000042       0.000000
      0.000055      -0.000087       0.000000
      0.000073      -0.000016       0.000000
      0.000093       0.000014       0.000000
      0.000102       0.000018       0.000000
      0.000080      -0.000042       0.000000
      0.000000       0.000000       0.000000
      0.000000       0.000000       0.000000
      0.000111       0.000055       0.000000
      0.000093       0.000014       0.000000
      0.000000       0.000000       0.000000
      0.000000       0.000000       0.000000
      0.000121       0.000108       0.000000
      0.000111       0.000055       0.000000
      0.000093       0.000014       0.000000
      0.000111       0.000055       0.000000
      0.000126       0.000099       0.000000
      0.000102       0.000018       0.000000
      0.000111       0.000055       0.000000
      0.000121       0.000108       0.000000
      0.000141       0.000212       0.000000
      0.000126       0.000099       0.000000
      0.000000       0.000000       0.000000
      0.000000       0.000000       0.000000
      0.000113       0.000172       0.000000
      0.000121       0.000108       0.000000
      0.000000       0.000000       0.000000
      0.000000       0.000000       0.000000
      0.000078       0.000239       0.000000
      0.000113       0.000172       0.000000
      0.000121       0.000108       0.000000
      0.000113       0.000172       0.000000
      0.000126       0.000356       0.000000
      0.000141       0.000212       0.000000
      0.000113       0.000172       0.000000
      0.000078       0.000239       0.000000
      0.000065       0.000514       0.000000
      0.000126       0.000356       0.000000
      0.000055      -0.000087       0.000000
      0.000080      -0.000042       0.000000
      0.000006      -0.000073       0.000000
     -0.000017      -0.000164       0.000000
      0.000080      -0.000042       0.000000
      0.000102       0.000018       0.000000
      0.000027       0.000015       0.000000
      0.000006      -0.000073       0.000000
     -0.000017      -0.000164       0.000000
      0.000006      -0.000073       0.000000
     -0.000134      -0.000099       0.000000
     -0.000149      -0.000224       0.000000
      0.000006      -0.000073       0.000000
      0.000027       0.000015       0.000000
     -0.000122       0.000007       0.000000
     -0.000134      -0.000099       0.000000
      0.000102       0.000018       0.000000
      0.000126       0.000099       0.000000
      0.000053       0.000130       0.000000
      0.000027       0.000015       0.000000
      0.000126       0.000099       0.000000
      0.000141       0.000212       0.000000
      0.000073       0.000303       0.000000
      0.000053       0.000130       0.000000
      0.000027       0.000015       0.000000
      0.000053       0.000130       0.000000
     -0.000107       0.000145       0.000000
     -0.000122       0.000007       0.000000
      0.000053       0.000130       0.000000
      0.000073       0.000303       0.000000
     -0.000086       0.000366       0.000000
     -0.000107       0.000145       0.000000
      0.000141       0.000212       0.000000
      0.000126       0.000356       0.000000
      0.000061       0.000545       0.000000
      0.000073       0.000303       0.000000
      0.000126       0.000356       0.000000
      0.000065       0.000514       0.000000
     -0.000019       0.000824       0.000000
      0.000061       0.000545       0.000000
      0.000073       0.000303       0.000000
      0.000061       0.000545       0.000000
     -0.000082       0.000719       0.000000
     -0.000086       0.000366       0.000000
      0.000061       0.000545       0.000000
     -0.000019       0.000824       0.000000
     -0.000168       0.001176       0.000000
     -0.000082       0.000719       0.000000
     -0.000149      -0.000224       0.000000
     -0.000134      -0.000099       0.000000
     -0.000307      -0.000114       0.000000
     -0.000310      -0.000251       0.000000
     -0.000134      -0.000099       0.000000
     -0.000122       0.000007       0.000000
     -0.000317       0.000005       0.000000
     -0.000307      -0.000114       0.000000
     -0.000310      -0.000251       0.000000
     -0.000307      -0.000114       0.000000
     -0.000464      -0.000112       0.000000
     -0.000462      -0.000252       0.000000
     -0.000307      -0.000114       0.000000
     -0.000317       0.000005       0.000000
     -0.000493       0.000018       0.000000
     -0.000464      -0.000112       0.000000
     -0.000122       0.000007       0.000000
     -0.000107       0.000145       0.000000
     -0.000335       0.000152       0.000000
     -0.000317       0.000005       0.000000
     -0.000107       0.000145       0.000000
     -0.000086       0.000366       0.000000
     -0.000354       0.000393       0.000000
     -0.000335       0.000152       0.000000
     -0.000317       0.000005       0.000000
     -0.000335       0.000152       0.000000
     -0.000569       0.000178       0.000000
     -0.000493       0.000018       0.000000
     -0.000335       0.000152       0.000000
     -0.000354       0.000393       0.000000
     -0.000701       0.000429       0.000000
     -0.000569       0.000178       0.000000
     -0.000086       0.000366       0.000000
     -0.000079       0.000524       0.000000
     -0.000198       0.000559       0.000000
     -0.000205       0.000383       0.000000
     -0.000079       0.000524       0.000000
     -0.000082       0.000719       0.000000
     -0.000195       0.000788       0.000000
     -0.000198       0.000559       0.000000
     -0.000205       0.000383       0.000000
     -0.000198       0.000559       0.000000
     -0.000357       0.000579       0.000000
     -0.000354       0.000393       0.000000
     -0.000198       0.000559       0.000000
     -0.000195       0.000788       0.000000
     -0.000353       0.000836       0.000000
     -0.000357       0.000579       0.000000
     -0.000082       0.000719       0.000000
     -0.000109       0.000943       0.000000
     -0.000213       0.001070       0.000000
     -0.000195       0.000788       0.000000
     -0.000109       0.000943       0.000000
     -0.000168       0.001176       0.000000
     -0.000274       0.001375       0.000000
     -0.000213       0.001070       0.000000
     -0.000195       0.000788       0.000000
     -0.000213       0.001070       0.000000
     -0.000357       0.001184       0.000000
     -0.000353       0.000836       0.000000
     -0.000213       0.001070       0.000000
     -0.000274       0.001375       0.000000
     -0.000414       0.001599       0.000000
     -0.000357       0.001184       0.000000
     -0.000354       0.000393       0.000000
     -0.000357       0.000579       0.000000
     -0.000561       0.000592       0.000000
     -0.000527       0.000404       0.000000
     -0.000357       0.000579       0.000000
     -0.000353       0.000836       0.000000
     -0.000586       0.000858       0.000000
     -0.000561       0.000592       0.000000
     -0.000527       0.000404       0.000000
     -0.000561       0.000592       0.000000
     -0.000790       0.000620       0.000000
     -0.000701       0.000429       0.000000
     -0.000561       0.000592       0.000000
     -0.000586       0.000858       0.000000
     -0.000896       0.000885       0.000000
     -0.000790       0.000620       0.000000
     -0.000353       0.000836       0.000000
     -0.000352       0.000998       0.000000
     -0.000456       0.001022       0.000000
     -0.000458       0.000849       0.000000
     -0.000352       0.000998       0.000000
     -0.000357       0.001184       0.000000
     -0.000456       0.001229       0.000000
     -0.000456       0.001022       0.000000
     -0.000458       0.000849       0.000000
     -0.000456       0.001022       0.000000
     -0.000590       0.001036       0.000000
     -0.000586       0.000858       0.000000
     -0.000456       0.001022       0.000000
     -0.000456       0.001229       0.000000
     -0.000587       0.001260       0.000000
     -0.000590       0.001036       0.000000
     -0.000357       0.001184       0.000000
     -0.000375       0.001389       0.000000
     -0.000467       0.001471       0.000000
     -0.000456       0.001229       0.000000
     -0.000375       0.001389       0.000000
     -0.000414       0.001599       0.000000
     -0.000505       0.001728       0.000000
     -0.000467       0.001471       0.000000
     -0.000456       0.001229       0.000000
     -0.000467       0.001471       0.000000
     -0.000586       0.001547       0.000000
     -0.000587       0.001260       0.000000
     -0.000467       0.001471       0.000000
     -0.000505       0.001728       0.000000
     -0.000620       0.001881       0.000000
     -0.000586       0.001547       0.000000
     -0.000586       0.000858       0.000000
     -0.000590       0.001036       0.000000
     -0.000760       0.001044       0.000000
     -0.000735       0.000867       0.000000
     -0.000590       0.001036       0.000000
     -0.000587       0.001260       0.000000
     -0.000774       0.001273       0.000000
     -0.000760       0.001044       0.000000
     -0.000735       0.000867       0.000000
     -0.000760       0.001044       0.000000
     -0.000957       0.001062       0.000000
     -0.000896       0.000885       0.000000
     -0.000760       0.001044       0.000000
     -0.000774       0.001273       0.000000
     -0.001026       0.001290       0.000000
     -0.000957       0.001062       0.000000
     -0.000587       0.001260       0.000000
     -0.000585       0.001395       0.000000
     -0.000668       0.001411       0.000000
     -0.000672       0.001268       0.000000
     -0.000585       0.001395       0.000000
     -0.000586       0.001547       0.000000
     -0.000664       0.001578       0.000000
     -0.000668       0.001411       0.000000
     -0.000672       0.001268       0.000000
     -0.000668       0.001411       0.000000
     -0.000774       0.001419       0.000000
     -0.000774       0.001273       0.000000
     -0.000668       0.001411       0.000000
     -0.000664       0.001578       0.000000
     -0.000767       0.001599       0.000000
     -0.000774       0.001419       0.000000
     -0.000586       0.001547       0.000000
     -0.000596       0.001712       0.000000
     -0.000669       0.001771       0.000000
     -0.000664       0.001578       0.000000
     -0.000596       0.001712       0.000000
     -0.000620       0.001881       0.000000
     -0.000692       0.001975       0.000000
     -0.000669       0.001771       0.000000
     -0.000664       0.001578       0.000000
     -0.000669       0.001771       0.000000
     -0.000761       0.001828       0.000000
     -0.000767       0.001599       0.000000
     -0.000669       0.001771       0.000000
     -0.000692       0.001975       0.000000
     -0.000782       0.002094       0.000000
     -0.000761       0.001828       0.000000
     -0.000774       0.001273       0.000000
     -0.000774       0.001419       0.000000
     -0.000909       0.001423       0.000000
     -0.000895       0.001278       0.000000
     -0.000774       0.001419       0.000000
     -0.000767       0.001599       0.000000
     -0.000914       0.001606       0.000000
     -0.000909       0.001423       0.000000
     -0.000895       0.001278       0.000000
     -0.000909       0.001423       0.000000
     -0.001066       0.001434       0.000000
     -0.001026       0.001290       0.000000
     -0.000909       0.001423       0.000000
     -0.000914       0.001606       0.000000
     -0.001114       0.001618       0.000000
     -0.001066       0.001434       0.000000
     -0.000767       0.001599       0.000000
     -0.000761       0.001828       0.000000
     -0.000899       0.001868       0.000000
     -0.000914       0.001606       0.000000
     -0.000761       0.001828       0.000000
     -0.000782       0.002094       0.000000
     -0.000909       0.002273       0.000000
     -0.000899       0.001868       0.000000
     -0.000914       0.001606       0.000000
     -0.000899       0.001868       0.000000
     -0.001180       0.001892       0.000000
     -0.001114       0.001618       0.000000
     -0.000899       0.001868       0.000000
     -0.000909       0.002273       0.000000
     -0.001271       0.002795       0.000000
     -0.001180       0.001892       0.000000
      0.000000       0.000000       0.000000
      0.000000       0.000000       0.000000
      0.000018       0.000299       0.000000
      0.000078       0.000239       0.000000
      0.000000       0.000000       0.000000
      0.000000       0.000000       0.000000
     -0.000062       0.000346       0.000000
      0.000018       0.000299       0.000000
      0.000078       0.000239       0.000000
      0.000018       0.000299       0.000000
     -0.000047       0.000654       0.000000
      0.000065       0.000514       0.000000
      0.000018       0.000299       0.000000
     -0.000062       0.000346       0.000000
     -0.000194       0.000758       0.000000
     -0.000047       0.000654       0.000000
      0.000000       0.000000       0.000000
      0.000000       0.000000       0.000000
     -0.000154       0.000382       0.000000
     -0.000062       0.000346       0.000000
      0.000000       0.000000       0.000000
      0.000000       0.000000       0.000000
     -0.000260       0.000423       0.000000
     -0.000154       0.000382       0.000000
     -0.000062       0.000346       0.000000
     -0.000154       0.000382       0.000000
     -0.000360       0.000834       0.000000
     -0.000194       0.000758       0.000000
     -0.000154       0.000382       0.000000
     -0.000260       0.000423       0.000000
     -0.000542       0.000914       0.000000
     -0.000360       0.000834       0.000000
      0.000000       0.000000       0.000000
      0.000000       0.000000       0.000000
     -0.000406       0.000509       0.000000
     -0.000260       0.000423       0.000000
      0.000000       0.000000       0.000000
      0.000000       0.000000       0.000000
     -0.000629       0.000769       0.000000
     -0.000406       0.000509       0.000000
     -0.000260       0.000423       0.000000
     -0.000406       0.000509       0.000000
     -0.000746       0.001046       0.000000
     -0.000542       0.000914       0.000000
     -0.000406       0.000509       0.000000
     -0.000629       0.000769       0.000000
     -0.000959       0.001278       0.000000
     -0.000746       0.001046       0.000000
      0.000065       0.000514       0.000000
     -0.000047       0.000654       0.000000
     -0.000178       0.001068       0.000000
     -0.000019       0.000824       0.000000
     -0.000047       0.000654       0.000000
     -0.000194       0.000758       0.000000
     -0.000380       0.001232       0.000000
     -0.000178       0.001068       0.000000
     -0.000019       0.000824       0.000000
     -0.000178       0.001068       0.000000
     -0.000377       0.001559       0.000000
     -0.000168       0.001176       0.000000
     -0.000178       0.001068       0.000000
     -0.000380       0.001232       0.000000
     -0.000614       0.001760       0.000000
     -0.000377       0.001559       0.000000
     -0.000194       0.000758       0.000000
     -0.000360       0.000834       0.000000
     -0.000592       0.001335       0.000000
     -0.000380       0.001232       0.000000
     -0.000360       0.000834       0.000000
     -0.000542       0.000914       0.000000
     -0.000803       0.001424       0.000000
     -0.000592       0.001335       0.000000
     -0.000380       0.001232       0.000000
     -0.000592       0.001335       0.000000
     -0.000828       0.001854       0.000000
     -0.000614       0.001760       0.000000
     -0.000592       0.001335       0.000000
     -0.000803       0.001424       0.000000
     -0.001029       0.001924       0.000000
     -0.000828       0.001854       0.000000
     -0.000542       0.000914       0.000000
     -0.000746       0.001046       0.000000
     -0.001012       0.001548       0.000000
     -0.000803       0.001424       0.000000
     -0.000746       0.001046       0.000000
     -0.000959       0.001278       0.000000
     -0.001210       0.001736       0.000000
     -0.001012       0.001548       0.000000
     -0.000803       0.001424       0.000000
     -0.001012       0.001548       0.000000
     -0.001224       0.002016       0.000000
     -0.001029       0.001924       0.000000
     -0.001012       0.001548       0.000000
     -0.001210       0.001736       0.000000
     -0.001407       0.002154       0.000000
     -0.001224       0.002016       0.000000
     -0.000614       0.001760       0.000000
     -0.000828       0.001854       0.000000
     -0.001027       0.002355       0.000000
     -0.000870       0.002306       0.000000
     -0.000828       0.001854       0.000000
     -0.001029       0.001924       0.000000
     -0.001194       0.002398       0.000000
     -0.001027       0.002355       0.000000
     -0.000870       0.002306       0.000000
     -0.001027       0.002355       0.000000
     -0.001119       0.002820       0.000000
     -0.001013       0.002801       0.000000
     -0.001027       0.002355       0.000000
     -0.001194       0.002398       0.000000
     -0.001266       0.002849       0.000000
     -0.001119       0.002820       0.000000
     -0.001029       0.001924       0.000000
     -0.001224       0.002016       0.000000
     -0.001371       0.002457       0.000000
     -0.001194       0.002398       0.000000
     -0.001224       0.002016       0.000000
     -0.001407       0.002154       0.000000
     -0.001542       0.002540       0.000000
     -0.001371       0.002457       0.000000
     -0.001194       0.002398       0.000000
     -0.001371       0.002457       0.000000
     -0.001434       0.002881       0.000000
     -0.001266       0.002849       0.000000
     -0.001371       0.002457       0.000000
     -0.001542       0.002540       0.000000
     -0.001602       0.002908       0.000000
     -0.001434       0.002881       0.000000
     -0.000168       0.001176       0.000000
     -0.000262       0.001389       0.000000
     -0.000382       0.001647       0.000000
     -0.000274       0.001375       0.000000
     -0.000262       0.001389       0.000000
     -0.000377       0.001559       0.000000
     -0.000512       0.001844       0.000000
     -0.000382       0.001647       0.000000
     -0.000274       0.001375       0.000000
     -0.000382       0.001647       0.000000
     -0.000544       0.001954       0.000000
     -0.000414       0.001599       0.000000
     -0.000382       0.001647       0.000000
     -0.000512       0.001844       0.000000
     -0.000680       0.002160       0.000000
     -0.000544       0.001954       0.000000
     -0.000377       0.001559       0.000000
     -0.000497       0.001679       0.000000
     -0.000635       0.001965       0.000000
     -0.000512       0.001844       0.000000
     -0.000497       0.001679       0.000000
     -0.000614       0.001760       0.000000
     -0.000744       0.002035       0.000000
     -0.000635       0.001965       0.000000
     -0.000512       0.001844       0.000000
     -0.000635       0.001965       0.000000
     -0.000785       0.002258       0.000000