# vtk DataFile Version 2.0
time_10.vtk
ASCII
DATASET UNSTRUCTURED_GRID
POINTS  2880 float
      0.000000       0.000000       0.000000
      0.083333       0.000000       0.000000
      0.083333       0.083333       0.000000
      0.000000       0.083333       0.000000
      0.083333       0.000000       0.000000
      0.166667       0.000000       0.000000
      0.166667       0.083333       0.000000
      0.083333       0.083333       0.000000
      0.000000       0.083333       0.000000
      0.083333       0.083333       0.000000
      0.083333       0.166667       0.000000
      0.000000       0.166667       0.000000
      0.083333       0.083333       0.000000
      0.166667       0.083333       0.000000
      0.166667       0.166667       0.000000
      0.083333       0.166667       0.000000
      0.166667       0.000000       0.000000
      0.250000       0.000000       0.000000
      0.250000       0.083333       0.000000
      0.166667       0.083333       0.000000
      0.250000       0.000000       0.000000
      0.333333       0.000000       0.000000
      0.333333       0.083333       0.000000
      0.250000       0.083333       0.000000
      0.166667       0.083333       0.000000
      0.250000       0.083333       0.000000
      0.250000       0.166667       0.000000
      0.166667       0.166667       0.000000
      0.250000       0.083333       0.000000
      0.333333       0.083333       0.000000
      0.333333       0.166667       0.000000
      0.250000       0.166667       0.000000
      0.333333       0.000000       0.000000
      0.416667      -0.000000       0.000000
      0.416667       0.083333       0.000000
      0.333333       0.083333       0.000000
      0.416667      -0.000000       0.000000
      0.500000       0.000000       0.000000
      0.500000       0.083333       0.000000
      0.416667       0.083333       0.000000
      0.333333       0.083333       0.000000
      0.416667       0.083333       0.000000
      0.416667       0.166667       0.000000
      0.333333       0.166667       0.000000
      0.416667       0.083333       0.000000
      0.500000       0.083333       0.000000
      0.500000       0.166667       0.000000
      0.416667       0.166667       0.000000
      0.000000       0.166667       0.000000
      0.083333       0.166667       0.000000
      0.083333       0.250000       0.000000
      0.000000       0.250000       0.000000
      0.083333       0.166667       0.000000
      0.166667       0.166667       0.000000
      0.166667       0.250000       0.000000
      0.083333       0.250000       0.000000
      0.000000       0.250000       0.000000
      0.083333       0.250000       0.000000
      0.083333       0.333333       0.000000
      0.000000       0.333333       0.000000
      0.083333       0.250000       0.000000
      0.166667       0.250000       0.000000
      0.166667       0.333333       0.000000
      0.083333       0.333333       0.000000
      0.166667       0.166667       0.000000
      0.250000       0.166667       0.000000
      0.250000       0.250000       0.000000
      0.166667       0.250000       0.000000
      0.250000       0.166667       0.000000
      0.333333       0.166667       0.000000
      0.333333       0.250000       0.000000
      0.250000       0.250000       0.000000
      0.166667       0.250000       0.000000
      0.250000       0.250000       0.000000
      0.250000       0.333333       0.000000
      0.166667       0.333333       0.000000
      0.250000       0.250000       0.000000
      0.333333       0.250000       0.000000
      0.333333       0.333333       0.000000
      0.250000       0.333333       0.000000
      0.333333       0.166667       0.000000
      0.416667       0.166667       0.000000
      0.416667       0.250000       0.000000
      0.333333       0.250000       0.000000
      0.416667       0.166667       0.000000
      0.500000       0.166667       0.000000
      0.500000       0.250000       0.000000
      0.416667       0.250000       0.000000
      0.333333       0.250000       0.000000
      0.416667       0.250000       0.000000
      0.416667       0.333333       0.000000
      0.333333       0.333333       0.000000
      0.416667       0.250000       0.000000
      0.500000       0.250000       0.000000
      0.500000       0.333333       0.000000
      0.416667       0.333333       0.000000
      0.000000       0.333333       0.000000
      0.083333       0.333333       0.000000
      0.083333       0.416667       0.000000
     -0.000000       0.416667       0.000000
      0.083333       0.333333       0.000000
      0.166667       0.333333       0.000000
      0.166667       0.416667       0.000000
      0.083333       0.416667       0.000000
     -0.000000       0.416667       0.000000
      0.083333       0.416667       0.000000
      0.083333       0.500000       0.000000
      0.000000       0.500000       0.000000
      0.083333       0.416667       0.000000
      0.166667       0.416667       0.000000
      0.166667       0.500000       0.000000
      0.083333       0.500000       0.000000
      0.166667       0.333333       0.000000
      0.250000       0.333333       0.000000
      0.250000       0.416667       0.000000
      0.166667       0.416667       0.000000
      0.250000       0.333333       0.000000
      0.333333       0.333333       0.000000
      0.333333       0.416667       0.000000
      0.250000       0.416667       0.000000
      0.166667       0.416667       0.000000
      0.250000       0.416667       0.000000
      0.250000       0.500000       0.000000
      0.166667       0.500000       0.000000
      0.250000       0.416667       0.000000
      0.333333       0.416667       0.000000
      0.333333       0.500000       0.000000
      0.250000       0.500000       0.000000
      0.333333       0.333333       0.000000
      0.375000       0.333333       0.000000
      0.375000       0.375000       0.000000
      0.333333       0.375000       0.000000
      0.375000       0.333333       0.000000
      0.416667       0.333333       0.000000
      0.416667       0.375000       0.000000
      0.375000       0.375000       0.000000
      0.333333       0.375000       0.000000
      0.375000       0.375000       0.000000
      0.375000       0.416667       0.000000
      0.333333       0.416667       0.000000
      0.375000       0.375000       0.000000
      0.416667       0.375000       0.000000
      0.416667       0.416667       0.000000
      0.375000       0.416667       0.000000
      0.416667       0.333333       0.000000
      0.458333       0.333333       0.000000
      0.458333       0.375000       0.000000
      0.416667       0.375000       0.000000
      0.458333       0.333333       0.000000
      0.500000       0.333333       0.000000
      0.500000       0.375000       0.000000
      0.458333       0.375000       0.000000
      0.416667       0.375000       0.000000
      0.458333       0.375000       0.000000
      0.458333       0.416667       0.000000
      0.416667       0.416667       0.000000
      0.458333       0.375000       0.000000
      0.500000       0.375000       0.000000
      0.500000       0.416667       0.000000
      0.458333       0.416667       0.000000
      0.333333       0.416667       0.000000
      0.375000       0.416667       0.000000
      0.375000       0.458333       0.000000
      0.333333       0.458333       0.000000
      0.375000       0.416667       0.000000
      0.416667       0.416667       0.000000
      0.416667       0.458333       0.000000
      0.375000       0.458333       0.000000
      0.333333       0.458333       0.000000
      0.375000       0.458333       0.000000
      0.375000       0.500000       0.000000
      0.333333       0.500000       0.000000
      0.375000       0.458333       0.000000
      0.416667       0.458333       0.000000
      0.416667       0.500000       0.000000
      0.375000       0.500000       0.000000
      0.416667       0.416667       0.000000
      0.437500       0.416667       0.000000
      0.437500       0.437500       0.000000
      0.416667       0.437500       0.000000
      0.437500       0.416667       0.000000
      0.458333       0.416667       0.000000
      0.458333       0.437500       0.000000
      0.437500       0.437500       0.000000
      0.416667       0.437500       0.000000
      0.437500       0.437500       0.000000
      0.437500       0.458333       0.000000
      0.416667       0.458333       0.000000
      0.437500       0.437500       0.000000
      0.458333       0.437500       0.000000
      0.458333       0.458333       0.000000
      0.437500       0.458333       0.000000
      0.458333       0.416667       0.000000
      0.479167       0.416667       0.000000
      0.479167       0.437500       0.000000
      0.458333       0.437500       0.000000
      0.479167       0.416667       0.000000
      0.500000       0.416667       0.000000
      0.500000       0.437500       0.000000
      0.479167       0.437500       0.000000
      0.458333       0.437500       0.000000
      0.479167       0.437500       0.000000
      0.479167       0.458333       0.000000
      0.458333       0.458333       0.000000
      0.479167       0.437500       0.000000
      0.500000       0.437500       0.000000
      0.500000       0.458333       0.000000
      0.479167       0.458333       0.000000
      0.416667       0.458333       0.000000
      0.437500       0.458333       0.000000
      0.437500       0.479167       0.000000
      0.416667       0.479167       0.000000
      0.437500       0.458333       0.000000
      0.458333       0.458333       0.000000
      0.458333       0.479167       0.000000
      0.437500       0.479167       0.000000
      0.416667       0.479167       0.000000
      0.437500       0.479167       0.000000
      0.437500       0.500000       0.000000
      0.416667       0.500000       0.000000
[...]
POINT_DATA  2880
VECTORS U float 
      0.000000       0.000000       0.000000
      0.000000       0.000000       0.000000
     -0.000033      -0.000018       0.000000
     -0.000042      -0.000040       0.000000
      0.000000       0.000000       0.000000
      0.000000       0.000000       0.000000
     -0.000030      -0.000011       0.000000
     -0.000033      -0.000018       0.000000
     -0.000042      -0.000040       0.000000
     -0.000033      -0.000018       0.000000
     -0.000072      -0.000035       0.000000
     -0.000078      -0.000061       0.000000
     -0.000033      -0.000018       0.000000
     -0.000030      -0.000011       0.000000
     -0.000067      -0.000022       0.000000
     -0.000072      -0.000035       0.000000
      0.000000       0.000000       0.000000
      0.000000       0.000000       0.000000
     -0.000028      -0.000008       0.000000
     -0.000030      -0.000011       0.000000
      0.000000       0.000000       0.000000
      0.000000       0.000000       0.000000
     -0.000025      -0.000006       0.000000
     -0.000028      -0.000008       0.000000
     -0.000030      -0.000011       0.000000
     -0.000028      -0.000008       0.000000
     -0.000065      -0.000017       0.000000
     -0.000067      -0.000022       0.000000
     -0.000028      -0.000008       0.000000
     -0.000025      -0.000006       0.000000
     -0.000061      -0.000015       0.000000
     -0.000065      -0.000017       0.000000
      0.000000       0.000000       0.000000
      0.000000       0.000000       0.000000
     -0.000018      -0.000004       0.000000
     -0.000025      -0.000006       0.000000
      0.000000       0.000000       0.000000
      0.000000       0.000000       0.000000
     -0.000007       0.000001       0.000000
     -0.000018      -0.000004       0.000000
     -0.000025      -0.000006       0.000000
     -0.000018      -0.000004       0.000000
     -0.000055      -0.000012       0.000000
     -0.000061      -0.000015       0.000000
     -0.000018      -0.000004       0.000000
     -0.000007       0.000001       0.000000
     -0.000044      -0.000005       0.000000
     -0.000055      -0.000012       0.000000
     -0.000078      -0.000061       0.000000
     -0.000072      -0.000035       0.000000
     -0.000110      -0.000046       0.000000
     -0.000113      -0.000073       0.000000
     -0.000072      -0.000035       0.000000
     -0.000067      -0.000022       0.000000
     -0.000107      -0.000032       0.000000
     -0.000110      -0.000046       0.000000
     -0.000113      -0.000073       0.000000
     -0.000110      -0.000046       0.000000
     -0.000145      -0.000053       0.000000
     -0.000146      -0.000078       0.000000
     -0.000110      -0.000046       0.000000
     -0.000107      -0.000032       0.000000
     -0.000145      -0.000037       0.000000
     -0.000145      -0.000053       0.000000
     -0.000067      -0.000022       0.000000
     -0.000065      -0.000017       0.000000
     -0.000107      -0.000024       0.000000
     -0.000107      -0.000032       0.000000
     -0.000065      -0.000017       0.000000
     -0.000061      -0.000015       0.000000
     -0.000107      -0.000021       0.000000
     -0.000107      -0.000024       0.000000
     -0.000107      -0.000032       0.000000
     -0.000107      -0.000024       0.000000
     -0.000148      -0.000028       0.000000
     -0.000145      -0.000037       0.000000
     -0.000107      -0.000024       0.000000
     -0.000107      -0.000021       0.000000
     -0.000156      -0.000022       0.000000
     -0.000148      -0.000028       0.000000
     -0.000061      -0.000015       0.000000
     -0.000055      -0.000012       0.000000
     -0.000108      -0.000018       0.000000
     -0.000107      -0.000021       0.000000
     -0.000055      -0.000012       0.000000
     -0.000044      -0.000005       0.000000
     -0.000107      -0.000010       0.000000
     -0.000108      -0.000018       0.000000
     -0.000107      -0.000021       0.000000
     -0.000108      -0.000018       0.000000
     -0.000168      -0.000017       0.000000
     -0.000156      -0.000022       0.000000
     -0.000108      -0.000018       0.000000
     -0.000107      -0.000010       0.000000
     -0.000184      -0.000008       0.000000
     -0.000168      -0.000017       0.000000
     -0.000146      -0.000078       0.000000
     -0.000145      -0.000053       0.000000
     -0.000175      -0.000055       0.000000
     -0.000174      -0.000079       0.000000
     -0.000145      -0.000053       0.000000
     -0.000145      -0.000037       0.000000
     -0.000177      -0.000038       0.000000
     -0.000175      -0.000055       0.000000
     -0.000174      -0.000079       0.000000
     -0.000175      -0.000055       0.000000
     -0.000198      -0.000056       0.000000
     -0.000199      -0.000079       0.000000
     -0.000175      -0.000055       0.000000
     -0.000177      -0.000038       0.000000
     -0.000199      -0.000037       0.000000
     -0.000198      -0.000056       0.000000
     -0.000145      -0.000037       0.000000
     -0.000148      -0.000028       0.000000
     -0.000183      -0.000026       0.000000
     -0.000177      -0.000038       0.000000
     -0.000148      -0.000028       0.000000
     -0.000156      -0.000022       0.000000
     -0.000196      -0.000017       0.000000
     -0.000183      -0.000026       0.000000
     -0.000177      -0.000038       0.000000
     -0.000183      -0.000026       0.000000
     -0.000205      -0.000022       0.000000
     -0.000199      -0.000037       0.000000
     -0.000183      -0.000026       0.000000
     -0.000196      -0.000017       0.000000
     -0.000220      -0.000010       0.000000
     -0.000205      -0.000022       0.000000
     -0.000156      -0.000022       0.000000
     -0.000161      -0.000020       0.000000
     -0.000185      -0.000017       0.000000
     -0.000177      -0.000020       0.000000
     -0.000161      -0.000020       0.000000
     -0.000168      -0.000017       0.000000
     -0.000195      -0.000013       0.000000
     -0.000185      -0.000017       0.000000
     -0.000177      -0.000020       0.000000
     -0.000185      -0.000017       0.000000
     -0.000205      -0.000012       0.000000
     -0.000196      -0.000017       0.000000
     -0.000185      -0.000017       0.000000
     -0.000195      -0.000013       0.000000
     -0.000217      -0.000007       0.000000
     -0.000205      -0.000012       0.000000
     -0.000168      -0.000017       0.000000
     -0.000176      -0.000014       0.000000
     -0.000207      -0.000009       0.000000
     -0.000195      -0.000013       0.000000
     -0.000176      -0.000014       0.000000
     -0.000184      -0.000008       0.000000
     -0.000222      -0.000003       0.000000
     -0.000207      -0.000009       0.000000
     -0.000195      -0.000013       0.000000
     -0.000207      -0.000009       0.000000
     -0.000233      -0.000001       0.000000
     -0.000217      -0.000007       0.000000
     -0.000207      -0.000009       0.000000
     -0.000222      -0.000003       0.000000
     -0.000254       0.000007       0.000000
     -0.000233      -0.000001       0.000000
     -0.000196      -0.000017       0.000000
     -0.000205      -0.000012       0.000000
     -0.000220      -0.000007       0.000000
     -0.000210      -0.000014       0.000000
     -0.000205      -0.000012       0.000000
     -0.000217      -0.000007       0.000000
     -0.000233       0.000000       0.000000
     -0.000220      -0.000007       0.000000
     -0.000210      -0.000014       0.000000
     -0.000220      -0.000007       0.000000
     -0.000230      -0.000002       0.000000
     -0.000220      -0.000010       0.000000
     -0.000220      -0.000007       0.000000
     -0.000233       0.000000       0.000000
     -0.000243       0.000006       0.000000
     -0.000230      -0.000002       0.000000
     -0.000217      -0.000007       0.000000
     -0.000225      -0.000004       0.000000
     -0.000233       0.000001       0.000000
     -0.000226      -0.000003       0.000000
     -0.000225      -0.000004       0.000000
     -0.000233      -0.000001       0.000000
     -0.000243       0.000005       0.000000
     -0.000233       0.000001       0.000000
     -0.000226      -0.000003       0.000000
     -0.000233       0.000001       0.000000
     -0.000240       0.000005       0.000000
     -0.000233       0.000000       0.000000
     -0.000233       0.000001       0.000000
     -0.000243       0.000005       0.000000
     -0.000249       0.000010       0.000000
     -0.000240       0.000005       0.000000
     -0.000233      -0.000001       0.000000
     -0.000243       0.000003       0.000000
     -0.000253       0.000008       0.000000
     -0.000243       0.000005       0.000000
     -0.000243       0.000003       0.000000
     -0.000254       0.000007       0.000000
     -0.000266       0.000013       0.000000
     -0.000253       0.000008       0.000000
     -0.000243       0.000005       0.000000
     -0.000253       0.000008       0.000000
     -0.000260       0.000015       0.000000
     -0.000249       0.000010       0.000000
     -0.000253       0.000008       0.000000
     -0.000266       0.000013       0.000000
     -0.000274       0.000020       0.000000
     -0.000260       0.000015       0.000000
     -0.000233       0.000000       0.000000
     -0.000240       0.000005       0.000000
     -0.000245       0.000009       0.000000
     -0.000238       0.000004       0.000000
     -0.000240       0.000005       0.000000
     -0.000249       0.000010       0.000000
     -0.000252       0.000015       0.000000
     -0.000245       0.000009       0.000000
     -0.000238       0.000004       0.000000
     -0.000245       0.000009       0.000000
     -0.000250       0.000012       0.000000
     -0.000243       0.000006       0.000000
     -0.000245       0.000009       0.000000
     -0.000252       0.000015       0.000000
     -0.000256       0.000018       0.000000
     -0.000250       0.000012       0.000000
     -0.000249       0.000010       0.000000
     -0.000254       0.000012       0.000000
     -0.000255       0.000015       0.000000
     -0.000251       0.000013       0.000000
     -0.000254       0.000012       0.000000
     -0.000260       0.000015       0.000000
     -0.000261       0.000018       0.000000
     -0.000255       0.000015       0.000000
     -0.000251       0.000013       0.000000
     -0.000255       0.000015       0.000000
     -0.000256       0.000018       0.000000
     -0.000252       0.000015       0.000000
     -0.000255       0.000015       0.000000
     -0.000261       0.000018       0.000000
     -0.000261       0.000021       0.000000
     -0.000256       0.000018       0.000000
     -0.000260       0.000015       0.000000
     -0.000266       0.000017       0.000000
     -0.000268       0.000021       0.000000
     -0.000261       0.000018       0.000000
     -0.000266       0.000017       0.000000
     -0.000274       0.000020       0.000000
     -0.000276       0.000024       0.000000
     -0.000268       0.000021       0.000000
     -0.000261       0.000018       0.000000
     -0.000268       0.000021       0.000000
     -0.000267       0.000025       0.000000
     -0.000261       0.000021       0.000000
     -0.000268       0.000021       0.000000
     -0.000276       0.000024       0.000000
     -0.000277       0.000033       0.000000
     -0.000267       0.000025       0.000000
     -0.000252       0.000015       0.000000
     -0.000256       0.000018       0.000000
     -0.000257       0.000020       0.000000
     -0.000254       0.000016       0.000000
     -0.000256       0.000018       0.000000
     -0.000261       0.000021       0.000000
     -0.000259       0.000024       0.000000
     -0.000257       0.000020       0.000000
     -0.000254       0.000016       0.000000
     -0.000257       0.000020       0.000000
     -0.000259       0.000022       0.000000
     -0.000256       0.000018       0.000000
     -0.000257       0.000020       0.000000
     -0.000259       0.000024       0.000000
     -0.000260       0.000033       0.000000
     -0.000259       0.000022       0.000000
     -0.000261       0.000021       0.000000
     -0.000267       0.000025       0.000000
     -0.000262       0.000029       0.000000
     -0.000259       0.000024       0.000000
     -0.000267       0.000025       0.000000
     -0.000277       0.000033       0.000000
     -0.000273       0.000080       0.000000
     -0.000262       0.000029       0.000000
     -0.000259       0.000024       0.000000
     -0.000262       0.000029       0.000000
     -0.000259       0.000101       0.000000
     -0.000260       0.000033       0.000000
     -0.000262       0.000029       0.000000
     -0.000273       0.000080       0.000000
     -0.000330       0.005968       0.000000
     -0.000259       0.000101       0.000000
      0.000000       0.000000       0.000000
      0.000000       0.000000       0.000000
      0.000007       0.000012       0.000000
     -0.000007       0.000001       0.000000
      0.000000       0.000000       0.000000
      0.000000       0.000000       0.000000
      0.000023       0.000034       0.000000
      0.000007       0.000012       0.000000
     -0.000007       0.000001       0.000000
      0.000007       0.000012       0.000000
     -0.000028       0.000015       0.000000
     -0.000044      -0.000005       0.000000
      0.000007       0.000012       0.000000
      0.000023       0.000034       0.000000
     -0.000009       0.000058       0.000000
     -0.000028       0.000015       0.000000
      0.000000       0.000000       0.000000
      0.000000       0.000000       0.000000
      0.000033       0.000071       0.000000
      0.000023       0.000034       0.000000
      0.000000       0.000000       0.000000
      0.000000       0.000000       0.000000
      0.000022       0.000124       0.000000
      0.000033       0.000071       0.000000
      0.000023       0.000034       0.000000
      0.000033       0.000071       0.000000
      0.000004       0.000137       0.000000
     -0.000009       0.000058       0.000000
      0.000033       0.000071       0.000000
      0.000022       0.000124       0.000000
     -0.000008       0.000257       0.000000
      0.000004       0.000137       0.000000
      0.000000       0.000000       0.000000
      0.000000       0.000000       0.000000
     -0.000028       0.000187       0.000000
      0.000022       0.000124       0.000000
      0.000000       0.000000       0.000000
      0.000000       0.000000       0.000000
     -0.000120       0.000252       0.000000
     -0.000028       0.000187       0.000000
      0.000022       0.000124       0.000000
     -0.000028       0.000187       0.000000
     -0.000065       0.000403       0.000000
     -0.000008       0.000257       0.000000
     -0.000028       0.000187       0.000000
     -0.000120       0.000252       0.000000
     -0.000173       0.000513       0.000000
     -0.000065       0.000403       0.000000
     -0.000044      -0.000005       0.000000
     -0.000028       0.000015       0.000000
     -0.000102       0.000014       0.000000
     -0.000107      -0.000010       0.000000
     -0.000028       0.000015       0.000000
     -0.000009       0.000058       0.000000
     -0.000093       0.000072       0.000000
     -0.000102       0.000014       0.000000
     -0.000107      -0.000010       0.000000
     -0.000102       0.000014       0.000000
     -0.000204       0.000018       0.000000
     -0.000184      -0.000008       0.000000
     -0.000102       0.000014       0.000000
     -0.000093       0.000072       0.000000
     -0.000224       0.000083       0.000000
     -0.000204       0.000018       0.000000
     -0.000009       0.000058       0.000000
      0.000004       0.000137       0.000000
     -0.000083       0.000186       0.000000
     -0.000093       0.000072       0.000000
      0.000004       0.000137       0.000000
     -0.000008       0.000257       0.000000
     -0.000085       0.000378       0.000000
     -0.000083       0.000186       0.000000
     -0.000093       0.000072       0.000000
     -0.000083       0.000186       0.000000
     -0.000240       0.000217       0.000000
     -0.000224       0.000083       0.000000
     -0.000083       0.000186       0.000000
     -0.000085       0.000378       0.000000
     -0.000250       0.000467       0.000000
     -0.000240       0.000217       0.000000
     -0.000008       0.000257       0.000000
     -0.000065       0.000403       0.000000
     -0.000134       0.000631       0.000000
     -0.000085       0.000378       0.000000
     -0.000065       0.000403       0.000000
     -0.000173       0.000513       0.000000
     -0.000260       0.000837       0.000000
     -0.000134       0.000631       0.000000
     -0.000085       0.000378       0.000000
     -0.000134       0.000631       0.000000
     -0.000285       0.000870       0.000000
     -0.000250       0.000467       0.000000
     -0.000134       0.000631       0.000000
     -0.000260       0.000837       0.000000
     -0.000441       0.001278       0.000000
     -0.000285       0.000870       0.000000
     -0.000184      -0.000008       0.000000
     -0.000194       0.000002       0.000000
     -0.000239       0.000008       0.000000
     -0.000222      -0.000003       0.000000
     -0.000194       0.000002       0.000000
     -0.000204       0.000018       0.000000
     -0.000259       0.000025       0.000000
     -0.000239       0.000008       0.000000
     -0.000222      -0.000003       0.000000
     -0.000239       0.000008       0.000000
     -0.000279       0.000019       0.000000
     -0.000254       0.000007       0.000000
     -0.000239       0.000008       0.000000
     -0.000259       0.000025       0.000000
     -0.000310       0.000038       0.000000
     -0.000279       0.000019       0.000000
     -0.000204       0.000018       0.000000
     -0.000214       0.000044       0.000000
     -0.000280       0.000052       0.000000
     -0.000259       0.000025       0.000000
     -0.000214       0.000044       0.000000
     -0.000224       0.000083       0.000000
     -0.000303       0.000092       0.000000
     -0.000280       0.000052       0.000000
     -0.000259       0.000025       0.000000
     -0.000280       0.000052       0.000000
     -0.000345       0.000066       0.000000
     -0.000310       0.000038       0.000000
     -0.000280       0.000052       0.000000
     -0.000303       0.000092       0.000000
     -0.000383       0.000107       0.000000
     -0.000345       0.000066       0.000000
     -0.000254       0.000007       0.000000
     -0.000266       0.000012       0.000000
     -0.000280       0.000018       0.000000
     -0.000266       0.000013       0.000000
     -0.000266       0.000012       0.000000
     -0.000279       0.000019       0.000000
     -0.000296       0.000026       0.000000
     -0.000280       0.000018       0.000000
     -0.000266       0.000013       0.000000
     -0.000280       0.000018       0.000000
     -0.000291       0.000026       0.000000
     -0.000274       0.000020       0.000000
     -0.000280       0.000018       0.000000
     -0.000296       0.000026       0.000000
     -0.000311       0.000035       0.000000
     -0.000291       0.000026       0.000000
     -0.000279       0.000019       0.000000
     -0.000294       0.000027       0.000000
     -0.000314       0.000035       0.000000
     -0.000296       0.000026       0.000000
     -0.000294       0.000027       0.000000
     -0.000310       0.000038       0.000000
     -0.000333       0.000046       0.000000
     -0.000314       0.000035       0.000000
     -0.000296       0.000026       0.000000
     -0.000314       0.000035       0.000000
     -0.000331       0.000045       0.000000