# vtk DataFile Version 2.0
time_10.vtk
ASCII
DATASET UNSTRUCTURED_GRID
POINTS  1152 float
      0.000000       0.000000       0.000000
      0.083333       0.000000       0.000000
      0.083333       0.083333       0.000000
      0.000000       0.083333       0.000000
      0.083333       0.000000       0.000000
      0.166667       0.000000       0.000000
      0.166667       0.083333       0.000000
      0.083333       0.083333       0.000000
      0.000000       0.083333       0.000000
      0.083333       0.083333       0.000000
      0.083333       0.166667       0.000000
      0.000000       0.166667       0.000000
      0.083333       0.083333       0.000000
      0.166667       0.083333       0.000000
      0.166667       0.166667       0.000000
      0.083333       0.166667       0.000000
      0.166667       0.000000       0.000000
      0.250000       0.000000       0.000000
      0.250000       0.083333       0.000000
      0.166667       0.083333       0.000000
      0.250000       0.000000       0.000000
      0.333333       0.000000       0.000000
      0.333333       0.083333       0.000000
      0.250000       0.083333       0.000000
      0.166667       0.083333       0.000000
      0.250000       0.083333       0.000000
      0.250000       0.166667       0.000000
      0.166667       0.166667       0.000000
      0.250000       0.083333       0.000000
      0.333333       0.083333       0.000000
      0.333333       0.166667       0.000000
      0.250000       0.166667       0.000000
      0.333333       0.000000       0.000000
      0.416667      -0.000000       0.000000
      0.416667       0.083333       0.000000
      0.333333       0.083333       0.000000
      0.416667      -0.000000       0.000000
      0.500000       0.000000       0.000000
      0.500000       0.083333       0.000000
      0.416667       0.083333       0.000000
      0.333333       0.083333       0.000000
      0.416667       0.083333       0.000000
      0.416667       0.166667       0.000000
      0.333333       0.166667       0.000000
      0.416667       0.083333       0.000000
      0.500000       0.083333       0.000000
      0.500000       0.166667       0.000000
      0.416667       0.166667       0.000000
      0.000000       0.166667       0.000000
      0.083333       0.166667       0.000000
      0.083333       0.250000       0.000000
      0.000000       0.250000       0.000000
      0.083333       0.166667       0.000000
      0.166667       0.166667       0.000000
      0.166667       0.250000       0.000000
      0.083333       0.250000       0.000000
      0.000000       0.250000       0.000000
      0.083333       0.250000       0.000000
      0.083333       0.333333       0.000000
      0.000000       0.333333       0.000000
      0.083333       0.250000       0.000000
      0.166667       0.250000       0.000000
      0.166667       0.333333       0.000000
      0.083333       0.333333       0.000000
      0.166667       0.166667       0.000000
      0.250000       0.166667       0.000000
      0.250000       0.250000       0.000000
      0.166667       0.250000       0.000000
      0.250000       0.166667       0.000000
      0.333333       0.166667       0.000000
      0.333333       0.250000       0.000000
      0.250000       0.250000       0.000000
      0.166667       0.250000       0.000000
      0.250000       0.250000       0.000000
      0.250000       0.333333       0.000000
      0.166667       0.333333       0.000000
      0.250000       0.250000       0.000000
      0.333333       0.250000       0.000000
      0.333333       0.333333       0.000000
      0.250000       0.333333       0.000000
      0.333333       0.166667       0.000000
      0.416667       0.166667       0.000000
      0.416667       0.250000       0.000000
      0.333333       0.250000       0.000000
      0.416667       0.166667       0.000000
      0.500000       0.166667       0.000000
      0.500000       0.250000       0.000000
      0.416667       0.250000       0.000000
      0.333333       0.250000       0.000000
      0.416667       0.250000       0.000000
      0.416667       0.333333       0.000000
      0.333333       0.333333       0.000000
      0.416667       0.250000       0.000000
      0.500000       0.250000       0.000000
      0.500000       0.333333       0.000000
      0.416667       0.333333       0.000000
      0.000000       0.333333       0.000000
      0.083333       0.333333       0.000000
      0.083333       0.416667       0.000000
     -0.000000       0.416667       0.000000
      0.083333       0.333333       0.000000
      0.166667       0.333333       0.000000
      0.166667       0.416667       0.000000
      0.083333       0.416667       0.000000
     -0.000000       0.416667       0.000000
      0.083333       0.416667       0.000000
      0.083333       0.500000       0.000000
      0.000000       0.500000       0.000000
      0.083333       0.416667       0.000000
      0.166667       0.416667       0.000000
      0.166667       0.500000       0.000000
      0.083333       0.500000       0.000000
      0.166667       0.333333       0.000000
      0.250000       0.333333       0.000000
      0.250000       0.416667       0.000000
      0.166667       0.416667       0.000000
      0.250000       0.333333       0.000000
      0.333333       0.333333       0.000000
      0.333333       0.416667       0.000000
      0.250000       0.416667       0.000000
      0.166667       0.416667       0.000000
      0.250000       0.416667       0.000000
      0.250000       0.500000       0.000000
      0.166667       0.500000       0.000000
      0.250000       0.416667       0.000000
      0.333333       0.416667       0.000000
      0.333333       0.500000       0.000000
      0.250000       0.500000       0.000000
      0.333333       0.333333       0.000000
      0.375000       0.333333       0.000000
      0.375000       0.375000       0.000000
      0.333333       0.375000       0.000000
      0.375000       0.333333       0.000000
      0.416667       0.333333       0.000000
      0.416667       0.375000       0.000000
      0.375000       0.375000       0.000000
      0.333333       0.375000       0.000000
      0.375000       0.375000       0.000000
      0.375000       0.416667       0.000000
      0.333333       0.416667       0.000000
      0.375000       0.375000       0.000000
      0.416667       0.375000       0.000000
      0.416667       0.416667       0.000000
      0.375000       0.416667       0.000000
      0.416667       0.333333       0.000000
      0.458333       0.333333       0.000000
      0.458333       0.375000       0.000000
      0.416667       0.375000       0.000000
      0.458333       0.333333       0.000000
      0.500000       0.333333       0.000000
      0.500000       0.375000       0.000000
      0.458333       0.375000       0.000000
      0.416667       0.375000       0.000000
      0.458333       0.375000       0.000000
      0.458333       0.416667       0.000000
      0.416667       0.416667       0.000000
      0.458333       0.375000       0.000000
      0.500000       0.375000       0.000000
      0.500000       0.416667       0.000000
      0.458333       0.416667       0.000000
      0.333333       0.416667       0.000000
      0.375000       0.416667       0.000000
      0.375000       0.458333       0.000000
      0.333333       0.458333       0.000000
      0.375000       0.416667       0.000000
      0.416667       0.416667       0.000000
      0.416667       0.458333       0.000000
      0.375000       0.458333       0.000000
      0.333333       0.458333       0.000000
      0.375000       0.458333       0.000000
      0.375000       0.500000       0.000000
      0.333333       0.500000       0.000000
      0.375000       0.458333       0.000000
      0.416667       0.458333       0.000000
      0.416667       0.500000       0.000000
      0.375000       0.500000       0.000000
      0.416667       0.416667       0.000000
      0.437500       0.416667       0.000000
      0.437500       0.437500       0.000000
      0.416667       0.437500       0.000000
      0.437500       0.416667       0.000000
      0.458333       0.416667       0.000000
      0.458333       0.437500       0.000000
      0.437500       0.437500       0.000000
      0.416667       0.437500       0.000000
      0.437500       0.437500       0.000000
      0.437500       0.458333       0.000000
      0.416667       0.458333       0.000000
      0.437500       0.437500       0.000000
      0.458333       0.437500       0.000000
      0.458333       0.458333       0.000000
      0.437500       0.458333       0.000000
      0.458333       0.416667       0.000000
      0.479167       0.416667       0.000000
      0.479167       0.437500       0.000000
      0.458333       0.437500       0.000000
      0.479167       0.416667       0.000000
      0.500000       0.416667       0.000000
      0.500000       0.437500       0.000000
      0.479167       0.437500       0.000000
      0.458333       0.437500       0.000000
      0.479167       0.437500       0.000000
      0.479167       0.458333       0.000000
      0.458333       0.458333       0.000000
      0.479167       0.437500       0.000000
      0.500000       0.437500       0.000000
      0.500000       0.458333       0.000000
      0.479167       0.458333       0.000000
      0.416667       0.458333       0.000000
      0.437500       0.458333       0.000000
      0.437500       0.479167       0.000000
      0.416667       0.479167       0.000000
      0.437500       0.458333       0.000000
      0.458333       0.458333       0.000000
      0.458333       0.479167       0.000000
      0.437500       0.479167       0.000000
      0.416667       0.479167       0.000000
      0.437500       0.479167       0.000000
      0.437500       0.500000       0.000000
      0.416667       0.500000       0.000000
[...]
POINT_DATA  1152
VECTORS U float 
      0.000000       0.000000       0.000000
      0.000000       0.000000       0.000000
      0.000072      -0.000017       0.000000
      0.000052      -0.000020       0.000000
      0.000000       0.000000       0.000000
      0.000000       0.000000       0.000000
      0.000092       0.000013       0.000000
      0.000072      -0.000017       0.000000
      0.000052      -0.000020       0.000000
      0.000072      -0.000017       0.000000
      0.000077      -0.000045       0.000000
      0.000051      -0.000091       0.000000
      0.000072      -0.000017       0.000000
      0.000092       0.000013       0.000000
      0.000100       0.000016       0.000000
      0.000077      -0.000045       0.000000
      0.000000       0.000000       0.000000
      0.000000       0.000000       0.000000
      0.000111       0.000054       0.000000
      0.000092       0.000013       0.000000
      0.000000       0.000000       0.000000
      0.000000       0.000000       0.000000
      0.000122       0.000108       0.000000
      0.000111       0.000054       0.000000
      0.000092       0.000013       0.000000
      0.000111       0.000054       0.000000
      0.000125       0.000098       0.000000
      0.000100       0.000016       0.000000
      0.000111       0.000054       0.000000
      0.000122       0.000108       0.000000
      0.000140       0.000211       0.000000
      0.000125       0.000098       0.000000
      0.000000       0.000000       0.000000
      0.000000       0.000000       0.000000
      0.000114       0.000173       0.000000
      0.000122       0.000108       0.000000
      0.000000       0.000000       0.000000
      0.000000       0.000000       0.000000
      0.000081       0.000242       0.000000
      0.000114       0.000173       0.000000
      0.000122       0.000108       0.000000
      0.000114       0.000173       0.000000
      0.000127       0.000358       0.000000
      0.000140       0.000211       0.000000
      0.000114       0.000173       0.000000
      0.000081       0.000242       0.000000
      0.000066       0.000520       0.000000
      0.000127       0.000358       0.000000
      0.000051      -0.000091       0.000000
      0.000077      -0.000045       0.000000
      0.000001      -0.000077       0.000000
     -0.000023      -0.000170       0.000000
      0.000077      -0.000045       0.000000
      0.000100       0.000016       0.000000
      0.000022       0.000012       0.000000
      0.000001      -0.000077       0.000000
     -0.000023      -0.000170       0.000000
      0.000001      -0.000077       0.000000
     -0.000143      -0.000104       0.000000
     -0.000158      -0.000231       0.000000
      0.000001      -0.000077       0.000000
      0.000022       0.000012       0.000000
     -0.000131       0.000004       0.000000
     -0.000143      -0.000104       0.000000
      0.000100       0.000016       0.000000
      0.000125       0.000098       0.000000
      0.000048       0.000128       0.000000
      0.000022       0.000012       0.000000
      0.000125       0.000098       0.000000
      0.000140       0.000211       0.000000
      0.000069       0.000301       0.000000
      0.000048       0.000128       0.000000
      0.000022       0.000012       0.000000
      0.000048       0.000128       0.000000
     -0.000116       0.000142       0.000000
     -0.000131       0.000004       0.000000
      0.000048       0.000128       0.000000
      0.000069       0.000301       0.000000
     -0.000095       0.000363       0.000000
     -0.000116       0.000142       0.000000
      0.000140       0.000211       0.000000
      0.000127       0.000358       0.000000
      0.000059       0.000547       0.000000
      0.000069       0.000301       0.000000
      0.000127       0.000358       0.000000
      0.000066       0.000520       0.000000
     -0.000020       0.000833       0.000000
      0.000059       0.000547       0.000000
      0.000069       0.000301       0.000000
      0.000059       0.000547       0.000000
     -0.000090       0.000718       0.000000
     -0.000095       0.000363       0.000000
      0.000059       0.000547       0.000000
     -0.000020       0.000833       0.000000
     -0.000174       0.001185       0.000000
     -0.000090       0.000718       0.000000
     -0.000158      -0.000231       0.000000
     -0.000143      -0.000104       0.000000
     -0.000319      -0.000119       0.000000
     -0.000321      -0.000257       0.000000
     -0.000143      -0.000104       0.000000
     -0.000131       0.000004       0.000000
     -0.000328       0.000001       0.000000
     -0.000319      -0.000119       0.000000
     -0.000321      -0.000257       0.000000
     -0.000319      -0.000119       0.000000
     -0.000478      -0.000117       0.000000
     -0.000476      -0.000259       0.000000
     -0.000319      -0.000119       0.000000
     -0.000328       0.000001       0.000000
     -0.000506       0.000014       0.000000
     -0.000478      -0.000117       0.000000
     -0.000131       0.000004       0.000000
     -0.000116       0.000142       0.000000
     -0.000348       0.000149       0.000000
     -0.000328       0.000001       0.000000
     -0.000116       0.000142       0.000000
     -0.000095       0.000363       0.000000
     -0.000368       0.000390       0.000000
     -0.000348       0.000149       0.000000
     -0.000328       0.000001       0.000000
     -0.000348       0.000149       0.000000
     -0.000583       0.000175       0.000000
     -0.000506       0.000014       0.000000
     -0.000348       0.000149       0.000000
     -0.000368       0.000390       0.000000
     -0.000717       0.000427       0.000000
     -0.000583       0.000175       0.000000
     -0.000095       0.000363       0.000000
     -0.000087       0.000522       0.000000
     -0.000210       0.000557       0.000000
     -0.000217       0.000380       0.000000
     -0.000087       0.000522       0.000000
     -0.000090       0.000718       0.000000
     -0.000207       0.000786       0.000000
     -0.000210       0.000557       0.000000
     -0.000217       0.000380       0.000000
     -0.000210       0.000557       0.000000
     -0.000372       0.000576       0.000000
     -0.000368       0.000390       0.000000
     -0.000210       0.000557       0.000000
     -0.000207       0.000786       0.000000
     -0.000370       0.000832       0.000000
     -0.000372       0.000576       0.000000
     -0.000090       0.000718       0.000000
     -0.000116       0.000946       0.000000
     -0.000224       0.001070       0.000000
     -0.000207       0.000786       0.000000
     -0.000116       0.000946       0.000000
     -0.000174       0.001185       0.000000
     -0.000283       0.001382       0.000000
     -0.000224       0.001070       0.000000
     -0.000207       0.000786       0.000000
     -0.000224       0.001070       0.000000
     -0.000374       0.001180       0.000000
     -0.000370       0.000832       0.000000
     -0.000224       0.001070       0.000000
     -0.000283       0.001382       0.000000
     -0.000427       0.001602       0.000000
     -0.000374       0.001180       0.000000
     -0.000368       0.000390       0.000000
     -0.000372       0.000576       0.000000
     -0.000578       0.000590       0.000000
     -0.000542       0.000402       0.000000
     -0.000372       0.000576       0.000000
     -0.000370       0.000832       0.000000
     -0.000605       0.000854       0.000000
     -0.000578       0.000590       0.000000
     -0.000542       0.000402       0.000000
     -0.000578       0.000590       0.000000
     -0.000807       0.000618       0.000000
     -0.000717       0.000427       0.000000
     -0.000578       0.000590       0.000000
     -0.000605       0.000854       0.000000
     -0.000914       0.000883       0.000000
     -0.000807       0.000618       0.000000
     -0.000370       0.000832       0.000000
     -0.000369       0.000994       0.000000
     -0.000475       0.001017       0.000000
     -0.000476       0.000846       0.000000
     -0.000369       0.000994       0.000000
     -0.000374       0.001180       0.000000
     -0.000475       0.001223       0.000000
     -0.000475       0.001017       0.000000
     -0.000476       0.000846       0.000000
     -0.000475       0.001017       0.000000
     -0.000610       0.001031       0.000000
     -0.000605       0.000854       0.000000
     -0.000475       0.001017       0.000000
     -0.000475       0.001223       0.000000
     -0.000609       0.001253       0.000000
     -0.000610       0.001031       0.000000
     -0.000374       0.001180       0.000000
     -0.000391       0.001387       0.000000
     -0.000486       0.001465       0.000000
     -0.000475       0.001223       0.000000
     -0.000391       0.001387       0.000000
     -0.000427       0.001602       0.000000
     -0.000521       0.001727       0.000000
     -0.000486       0.001465       0.000000
     -0.000475       0.001223       0.000000
     -0.000486       0.001465       0.000000
     -0.000609       0.001536       0.000000
     -0.000609       0.001253       0.000000
     -0.000486       0.001465       0.000000
     -0.000521       0.001727       0.000000
     -0.000640       0.001873       0.000000
     -0.000609       0.001536       0.000000
     -0.000605       0.000854       0.000000
     -0.000610       0.001031       0.000000
     -0.000780       0.001040       0.000000
     -0.000754       0.000864       0.000000
     -0.000610       0.001031       0.000000
     -0.000609       0.001253       0.000000
     -0.000796       0.001266       0.000000
     -0.000780       0.001040       0.000000
     -0.000754       0.000864       0.000000
     -0.000780       0.001040       0.000000
     -0.000975       0.001059       0.000000
     -0.000914       0.000883       0.000000
     -0.000780       0.001040       0.000000
     -0.000796       0.001266       0.000000
     -0.001044       0.001283       0.000000
     -0.000975       0.001059       0.000000
     -0.000609       0.001253       0.000000
     -0.000608       0.001386       0.000000
     -0.000692       0.001400       0.000000
     -0.000695       0.001261       0.000000
     -0.000608       0.001386       0.000000
     -0.000609       0.001536       0.000000
     -0.000689       0.001564       0.000000
     -0.000692       0.001400       0.000000
     -0.000695       0.001261       0.000000
     -0.000692       0.001400       0.000000
     -0.000798       0.001408       0.000000
     -0.000796       0.001266       0.000000
     -0.000692       0.001400       0.000000
     -0.000689       0.001564       0.000000
     -0.000792       0.001584       0.000000
     -0.000798       0.001408       0.000000
     -0.000609       0.001536       0.000000
     -0.000618       0.001701       0.000000
     -0.000693       0.001755       0.000000
     -0.000689       0.001564       0.000000
     -0.000618       0.001701       0.000000
     -0.000640       0.001873       0.000000
     -0.000715       0.001962       0.000000
     -0.000693       0.001755       0.000000
     -0.000689       0.001564       0.000000
     -0.000693       0.001755       0.000000
     -0.000787       0.001808       0.000000
     -0.000792       0.001584       0.000000
     -0.000693       0.001755       0.000000
     -0.000715       0.001962       0.000000
     -0.000806       0.002076       0.000000
     -0.000787       0.001808       0.000000
     -0.000796       0.001266       0.000000
     -0.000798       0.001408       0.000000
     -0.000930       0.001413       0.000000
     -0.000915       0.001271       0.000000
     -0.000798       0.001408       0.000000
     -0.000792       0.001584       0.000000
     -0.000937       0.001591       0.000000
     -0.000930       0.001413       0.000000
     -0.000915       0.001271       0.000000
     -0.000930       0.001413       0.000000
     -0.001084       0.001425       0.000000
     -0.001044       0.001283       0.000000
     -0.000930       0.001413       0.000000
     -0.000937       0.001591       0.000000
     -0.001132       0.001604       0.000000
     -0.001084       0.001425       0.000000
     -0.000792       0.001584       0.000000
     -0.000787       0.001808       0.000000
     -0.000924       0.001846       0.000000
     -0.000937       0.001591       0.000000
     -0.000787       0.001808       0.000000
     -0.000806       0.002076       0.000000
     -0.000935       0.002257       0.000000
     -0.000924       0.001846       0.000000
     -0.000937       0.001591       0.000000
     -0.000924       0.001846       0.000000
     -0.001201       0.001874       0.000000
     -0.001132       0.001604       0.000000
     -0.000924       0.001846       0.000000
     -0.000935       0.002257       0.000000
     -0.001334       0.002884       0.000000
     -0.001201       0.001874       0.000000
      0.000000       0.000000       0.000000
      0.000000       0.000000       0.000000
      0.000019       0.000305       0.000000
      0.000081       0.000242       0.000000
      0.000000       0.000000       0.000000
      0.000000       0.000000       0.000000
     -0.000062       0.000353       0.000000
      0.000019       0.000305       0.000000
      0.000081       0.000242       0.000000
      0.000019       0.000305       0.000000
     -0.000046       0.000665       0.000000
      0.000066       0.000520       0.000000
      0.000019       0.000305       0.000000
     -0.000062       0.000353       0.000000
     -0.000197       0.000775       0.000000
     -0.000046       0.000665       0.000000
      0.000000       0.000000       0.000000
      0.000000       0.000000       0.000000
     -0.000157       0.000392       0.000000
     -0.000062       0.000353       0.000000
      0.000000       0.000000       0.000000
      0.000000       0.000000       0.000000
     -0.000266       0.000435       0.000000
     -0.000157       0.000392       0.000000
     -0.000062       0.000353       0.000000
     -0.000157       0.000392       0.000000
     -0.000368       0.000857       0.000000
     -0.000197       0.000775       0.000000
     -0.000157       0.000392       0.000000
     -0.000266       0.000435       0.000000
     -0.000556       0.000942       0.000000
     -0.000368       0.000857       0.000000
      0.000000       0.000000       0.000000
      0.000000       0.000000       0.000000
     -0.000418       0.000526       0.000000
     -0.000266       0.000435       0.000000
      0.000000       0.000000       0.000000
      0.000000       0.000000       0.000000
     -0.000648       0.000795       0.000000
     -0.000418       0.000526       0.000000
     -0.000266       0.000435       0.000000
     -0.000418       0.000526       0.000000
     -0.000767       0.001081       0.000000
     -0.000556       0.000942       0.000000
     -0.000418       0.000526       0.000000
     -0.000648       0.000795       0.000000
     -0.000987       0.001321       0.000000
     -0.000767       0.001081       0.000000
      0.000066       0.000520       0.000000
     -0.000046       0.000665       0.000000
     -0.000180       0.001087       0.000000
     -0.000020       0.000833       0.000000
     -0.000046       0.000665       0.000000
     -0.000197       0.000775       0.000000
     -0.000388       0.001262       0.000000
     -0.000180       0.001087       0.000000
     -0.000020       0.000833       0.000000
     -0.000180       0.001087       0.000000
     -0.000384       0.001587       0.000000
     -0.000174       0.001185       0.000000
     -0.000180       0.001087       0.000000
     -0.000388       0.001262       0.000000
     -0.000631       0.001806       0.000000
     -0.000384       0.001587       0.000000
     -0.000197       0.000775       0.000000
     -0.000368       0.000857       0.000000
     -0.000608       0.001373       0.000000
     -0.000388       0.001262       0.000000
     -0.000368       0.000857       0.000000
     -0.000556       0.000942       0.000000
     -0.000827       0.001469       0.000000
     -0.000608       0.001373       0.000000
     -0.000388       0.001262       0.000000
     -0.000608       0.001373       0.000000
     -0.000854       0.001909       0.000000
     -0.000631       0.001806       0.000000
     -0.000608       0.001373       0.000000
     -0.000827       0.001469       0.000000
     -0.001062       0.001985       0.000000
     -0.000854       0.001909       0.000000
     -0.000556       0.000942       0.000000
     -0.000767       0.001081       0.000000
     -0.001043       0.001598       0.000000
     -0.000827       0.001469       0.000000
     -0.000767       0.001081       0.000000
     -0.000987       0.001321       0.000000
     -0.001247       0.001793       0.000000
     -0.001043       0.001598       0.000000
     -0.000827       0.001469       0.000000
     -0.001043       0.001598       0.000000
     -0.001264       0.002081       0.000000
     -0.001062       0.001985       0.000000
     -0.001043       0.001598       0.000000
     -0.001247       0.001793       0.000000
     -0.001452       0.002225       0.000000
     -0.001264       0.002081       0.000000
     -0.000631       0.001806       0.000000
     -0.000854       0.001909       0.000000
     -0.001064       0.002428       0.000000
     -0.000900       0.002374       0.000000
     -0.000854       0.001909       0.000000
     -0.001062       0.001985       0.000000
     -0.001236       0.002473       0.000000
     -0.001064       0.002428       0.000000
     -0.000900       0.002374       0.000000
     -0.001064       0.002428       0.000000
     -0.001161       0.002909       0.000000
     -0.001053       0.002889       0.000000
     -0.001064       0.002428       0.000000
     -0.001236       0.002473       0.000000
     -0.001311       0.002937       0.000000
     -0.001161       0.002909       0.000000
     -0.001062       0.001985       0.000000
     -0.001264       0.002081       0.000000
     -0.001417       0.002534       0.000000
     -0.001236       0.002473       0.000000
     -0.001264       0.002081       0.000000
     -0.001452       0.002225       0.000000
     -0.001593       0.002621       0.000000
     -0.001417       0.002534       0.000000
     -0.001236       0.002473       0.000000
     -0.001417       0.002534       0.000000
     -0.001484       0.002970       0.000000
     -0.001311       0.002937       0.000000
     -0.001417       0.002534       0.000000
     -0.001593       0.002621       0.000000
     -0.001656       0.002998       0.000000
     -0.001484       0.002970       0.000000
     -0.000174       0.001185       0.000000
     -0.000267       0.001407       0.000000
     -0.000390       0.001667       0.000000
     -0.000283       0.001382       0.000000
     -0.000267       0.001407       0.000000
     -0.000384       0.001587       0.000000
     -0.000523       0.001880       0.000000
     -0.000390       0.001667       0.000000
     -0.000283       0.001382       0.000000
     -0.000390       0.001667       0.000000
     -0.000556       0.001979       0.000000
     -0.000427       0.001602       0.000000
     -0.000390       0.001667       0.000000
     -0.000523       0.001880       0.000000
     -0.000698       0.002208       0.000000
     -0.000556       0.001979       0.000000
     -0.000384       0.001587       0.000000
     -0.000509       0.001718       0.000000
     -0.000652       0.002014       0.000000
     -0.000523       0.001880       0.000000
     -0.000509       0.001718       0.000000
     -0.000631       0.001806       0.000000
     -0.000767       0.002092       0.000000
     -0.000652       0.002014       0.000000
     -0.000523       0.001880       0.000000
     -0.000652       0.002014       0.000000
     -0.000810       0.002319       0.000000