# vtk DataFile Version 2.0
time_10.vtk
ASCII
DATASET UNSTRUCTURED_GRID
POINTS  1152 float
      0.000000       0.000000       0.000000
      0.083333       0.000000       0.000000
      0.083333       0.083333       0.000000
      0.000000       0.083333       0.000000
      0.083333       0.000000       0.000000
      0.166667       0.000000       0.000000
      0.166667       0.083333       0.000000
      0.083333       0.083333       0.000000
      0.000000       0.083333       0.000000
      0.083333       0.083333       0.000000
      0.083333       0.166667       0.000000
      0.000000       0.166667       0.000000
      0.083333       0.083333       0.000000
      0.166667       0.083333       0.000000
      0.166667       0.166667       0.000000
      0.083333       0.166667       0.000000
      0.166667       0.000000       0.000000
      0.250000       0.000000       0.000000
      0.250000       0.083333       0.000000
      0.166667       0.083333       0.000000
      0.250000       0.000000       0.000000
      0.333333       0.000000       0.000000
      0.333333       0.083333       0.000000
      0.250000       0.083333       0.000000
      0.166667       0.083333       0.000000
      0.250000       0.083333       0.000000
      0.250000       0.166667       0.000000
      0.166667       0.166667       0.000000
      0.250000       0.083333       0.000000
      0.333333       0.083333       0.000000
      0.333333       0.166667       0.000000
      0.250000       0.166667       0.000000
      0.333333       0.000000       0.000000
      0.416667      -0.000000       0.000000
      0.416667       0.083333       0.000000
      0.333333       0.083333       0.000000
      0.416667      -0.000000       0.000000
      0.500000       0.000000       0.000000
      0.500000       0.083333       0.000000
      0.416667       0.083333       0.000000
      0.333333       0.083333       0.000000
      0.416667       0.083333       0.000000
      0.416667       0.166667       0.000000
      0.333333       0.166667       0.000000
      0.416667       0.083333       0.000000
      0.500000       0.083333       0.000000
      0.500000       0.166667       0.000000
      0.416667       0.166667       0.000000
      0.000000       0.166667       0.000000
      0.083333       0.166667       0.000000
      0.083333       0.250000       0.000000
      0.000000       0.250000       0.000000
      0.083333       0.166667       0.000000
      0.166667       0.166667       0.000000
      0.166667       0.250000       0.000000
      0.083333       0.250000       0.000000
      0.000000       0.250000       0.000000
      0.083333       0.250000       0.000000
      0.083333       0.333333       0.000000
      0.000000       0.333333       0.000000
      0.083333       0.250000       0.000000
      0.166667       0.250000       0.000000
      0.166667       0.333333       0.000000
      0.083333       0.333333       0.000000
      0.166667       0.166667       0.000000
      0.250000       0.166667       0.000000
      0.250000       0.250000       0.000000
      0.166667       0.250000       0.000000
      0.250000       0.166667       0.000000
      0.333333       0.166667       0.000000
      0.333333       0.250000       0.000000
      0.250000       0.250000       0.000000
      0.166667       0.250000       0.000000
      0.250000       0.250000       0.000000
      0.250000       0.333333       0.000000
      0.166667       0.333333       0.000000
      0.250000       0.250000       0.000000
      0.333333       0.250000       0.000000
      0.333333       0.333333       0.000000
      0.250000       0.333333       0.000000
      0.333333       0.166667       0.000000
      0.416667       0.166667       0.000000
      0.416667       0.250000       0.000000
      0.333333       0.250000       0.000000
      0.416667       0.166667       0.000000
      0.500000       0.166667       0.000000
      0.500000       0.250000       0.000000
      0.416667       0.250000       0.000000
      0.333333       0.250000       0.000000
      0.416667       0.250000       0.000000
      0.416667       0.333333       0.000000
      0.333333       0.333333       0.000000
      0.416667       0.250000       0.000000
      0.500000       0.250000       0.000000
      0.500000       0.333333       0.000000
      0.416667       0.333333       0.000000
      0.000000       0.333333       0.000000
      0.083333       0.333333       0.000000
      0.083333       0.416667       0.000000
     -0.000000       0.416667       0.000000
      0.083333       0.333333       0.000000
      0.166667       0.333333       0.000000
      0.166667       0.416667       0.000000
      0.083333       0.416667       0.000000
     -0.000000       0.416667       0.000000
      0.083333       0.416667       0.000000
      0.083333       0.500000       0.000000
      0.000000       0.500000       0.000000
      0.083333       0.416667       0.000000
      0.166667       0.416667       0.000000
      0.166667       0.500000       0.000000
      0.083333       0.500000       0.000000
      0.166667       0.333333       0.000000
      0.250000       0.333333       0.000000
      0.250000       0.416667       0.000000
      0.166667       0.416667       0.000000
      0.250000       0.333333       0.000000
      0.333333       0.333333       0.000000
      0.333333       0.416667       0.000000
      0.250000       0.416667       0.000000
      0.166667       0.416667       0.000000
      0.250000       0.416667       0.000000
      0.250000       0.500000       0.000000
      0.166667       0.500000       0.000000
      0.250000       0.416667       0.000000
      0.333333       0.416667       0.000000
      0.333333       0.500000       0.000000
      0.250000       0.500000       0.000000
      0.333333       0.333333       0.000000
      0.375000       0.333333       0.000000
      0.375000       0.375000       0.000000
      0.333333       0.375000       0.000000
      0.375000       0.333333       0.000000
      0.416667       0.333333       0.000000
      0.416667       0.375000       0.000000
      0.375000       0.375000       0.000000
      0.333333       0.375000       0.000000
      0.375000       0.375000       0.000000
      0.375000       0.416667       0.000000
      0.333333       0.416667       0.000000
      0.375000       0.375000       0.000000
      0.416667       0.375000       0.000000
      0.416667       0.416667       0.000000
      0.375000       0.416667       0.000000
      0.416667       0.333333       0.000000
      0.458333       0.333333       0.000000
      0.458333       0.375000       0.000000
      0.416667       0.375000       0.000000
      0.458333       0.333333       0.000000
      0.500000       0.333333       0.000000
      0.500000       0.375000       0.000000
      0.458333       0.375000       0.000000
      0.416667       0.375000       0.000000
      0.458333       0.375000       0.000000
      0.458333       0.416667       0.000000
      0.416667       0.416667       0.000000
      0.458333       0.375000       0.000000
      0.500000       0.375000       0.000000
      0.500000       0.416667       0.000000
      0.458333       0.416667       0.000000
      0.333333       0.416667       0.000000
      0.375000       0.416667       0.000000
      0.375000       0.458333       0.000000
      0.333333       0.458333       0.000000
      0.375000       0.416667       0.000000
      0.416667       0.416667       0.000000
      0.416667       0.458333       0.000000
      0.375000       0.458333       0.000000
      0.333333       0.458333       0.000000
      0.375000       0.458333       0.000000
      0.375000       0.500000       0.000000
      0.333333       0.500000       0.000000
      0.375000       0.458333       0.000000
      0.416667       0.458333       0.000000
      0.416667       0.500000       0.000000
      0.375000       0.500000       0.000000
      0.416667       0.416667       0.000000
      0.437500       0.416667       0.000000
      0.437500       0.437500       0.000000
      0.416667       0.437500       0.000000
      0.437500       0.416667       0.000000
      0.458333       0.416667       0.000000
      0.458333       0.437500       0.000000
      0.437500       0.437500       0.000000
      0.416667       0.437500       0.000000
      0.437500       0.437500       0.000000
      0.437500       0.458333       0.000000
      0.416667       0.458333       0.000000
      0.437500       0.437500       0.000000
      0.458333       0.437500       0.000000
      0.458333       0.458333       0.000000
      0.437500       0.458333       0.000000
      0.458333       0.416667       0.000000
      0.479167       0.416667       0.000000
      0.479167       0.437500       0.000000
      0.458333       0.437500       0.000000
      0.479167       0.416667       0.000000
      0.500000       0.416667       0.000000
      0.500000       0.437500       0.000000
      0.479167       0.437500       0.000000
      0.458333       0.437500       0.000000
      0.479167       0.437500       0.000000
      0.479167       0.458333       0.000000
      0.458333       0.458333       0.000000
      0.479167       0.437500       0.000000
      0.500000       0.437500       0.000000
      0.500000       0.458333       0.000000
      0.479167       0.458333       0.000000
      0.416667       0.458333       0.000000
      0.437500       0.458333       0.000000
      0.437500       0.479167       0.000000
      0.416667       0.479167       0.000000
      0.437500       0.458333       0.000000
      0.458333       0.458333       0.000000
      0.458333       0.479167       0.000000
      0.437500       0.479167       0.000000
      0.416667       0.479167       0.000000
      0.437500       0.479167       0.000000
      0.437500       0.500000       0.000000
      0.416667       0.500000       0.000000
[...]
POINT_DATA  1152
VECTORS U float 
      0.000000       0.000000       0.000000
      0.000000       0.000000       0.000000
      0.000073      -0.000016       0.000000
      0.000054      -0.000018       0.000000
      0.000000       0.000000       0.000000
      0.000000       0.000000       0.000000
      0.000093       0.000014       0.000000
      0.000073      -0.000016       0.000000
      0.000054      -0.000018       0.000000
      0.000073      -0.000016       0.000000
      0.000080      -0.000043       0.000000
      0.000055      -0.000087       0.000000
      0.000073      -0.000016       0.000000
      0.000093       0.000014       0.000000
      0.000102       0.000018       0.000000
      0.000080      -0.000043       0.000000
      0.000000       0.000000       0.000000
      0.000000       0.000000       0.000000
      0.000111       0.000055       0.000000
      0.000093       0.000014       0.000000
      0.000000       0.000000       0.000000
      0.000000       0.000000       0.000000
      0.000121       0.000108       0.000000
      0.000111       0.000055       0.000000
      0.000093       0.000014       0.000000
      0.000111       0.000055       0.000000
      0.000126       0.000099       0.000000
      0.000102       0.000018       0.000000
      0.000111       0.000055       0.000000
      0.000121       0.000108       0.000000
      0.000141       0.000212       0.000000
      0.000126       0.000099       0.000000
      0.000000       0.000000       0.000000
      0.000000       0.000000       0.000000
      0.000113       0.000172       0.000000
      0.000121       0.000108       0.000000
      0.000000       0.000000       0.000000
      0.000000       0.000000       0.000000
      0.000079       0.000240       0.000000
      0.000113       0.000172       0.000000
      0.000121       0.000108       0.000000
      0.000113       0.000172       0.000000
      0.000127       0.000357       0.000000
      0.000141       0.000212       0.000000
      0.000113       0.000172       0.000000
      0.000079       0.000240       0.000000
      0.000065       0.000516       0.000000
      0.000127       0.000357       0.000000
      0.000055      -0.000087       0.000000
      0.000080      -0.000043       0.000000
      0.000006      -0.000073       0.000000
     -0.000018      -0.000165       0.000000
      0.000080      -0.000043       0.000000
      0.000102       0.000018       0.000000
      0.000027       0.000014       0.000000
      0.000006      -0.000073       0.000000
     -0.000018      -0.000165       0.000000
      0.000006      -0.000073       0.000000
     -0.000135      -0.000100       0.000000
     -0.000150      -0.000225       0.000000
      0.000006      -0.000073       0.000000
      0.000027       0.000014       0.000000
     -0.000124       0.000007       0.000000
     -0.000135      -0.000100       0.000000
      0.000102       0.000018       0.000000
      0.000126       0.000099       0.000000
      0.000052       0.000130       0.000000
      0.000027       0.000014       0.000000
      0.000126       0.000099       0.000000
      0.000141       0.000212       0.000000
      0.000072       0.000303       0.000000
      0.000052       0.000130       0.000000
      0.000027       0.000014       0.000000
      0.000052       0.000130       0.000000
     -0.000108       0.000145       0.000000
     -0.000124       0.000007       0.000000
      0.000052       0.000130       0.000000
      0.000072       0.000303       0.000000
     -0.000087       0.000366       0.000000
     -0.000108       0.000145       0.000000
      0.000141       0.000212       0.000000
      0.000127       0.000357       0.000000
      0.000061       0.000546       0.000000
      0.000072       0.000303       0.000000
      0.000127       0.000357       0.000000
      0.000065       0.000516       0.000000
     -0.000020       0.000827       0.000000
      0.000061       0.000546       0.000000
      0.000072       0.000303       0.000000
      0.000061       0.000546       0.000000
     -0.000084       0.000720       0.000000
     -0.000087       0.000366       0.000000
      0.000061       0.000546       0.000000
     -0.000020       0.000827       0.000000
     -0.000169       0.001179       0.000000
     -0.000084       0.000720       0.000000
     -0.000150      -0.000225       0.000000
     -0.000135      -0.000100       0.000000
     -0.000309      -0.000114       0.000000
     -0.000311      -0.000252       0.000000
     -0.000135      -0.000100       0.000000
     -0.000124       0.000007       0.000000
     -0.000319       0.000004       0.000000
     -0.000309      -0.000114       0.000000
     -0.000311      -0.000252       0.000000
     -0.000309      -0.000114       0.000000
     -0.000466      -0.000113       0.000000
     -0.000465      -0.000254       0.000000
     -0.000309      -0.000114       0.000000
     -0.000319       0.000004       0.000000
     -0.000495       0.000018       0.000000
     -0.000466      -0.000113       0.000000
     -0.000124       0.000007       0.000000
     -0.000108       0.000145       0.000000
     -0.000337       0.000152       0.000000
     -0.000319       0.000004       0.000000
     -0.000108       0.000145       0.000000
     -0.000087       0.000366       0.000000
     -0.000356       0.000393       0.000000
     -0.000337       0.000152       0.000000
     -0.000319       0.000004       0.000000
     -0.000337       0.000152       0.000000
     -0.000571       0.000178       0.000000
     -0.000495       0.000018       0.000000
     -0.000337       0.000152       0.000000
     -0.000356       0.000393       0.000000
     -0.000704       0.000430       0.000000
     -0.000571       0.000178       0.000000
     -0.000087       0.000366       0.000000
     -0.000080       0.000525       0.000000
     -0.000199       0.000560       0.000000
     -0.000207       0.000383       0.000000
     -0.000080       0.000525       0.000000
     -0.000084       0.000720       0.000000
     -0.000197       0.000790       0.000000
     -0.000199       0.000560       0.000000
     -0.000207       0.000383       0.000000
     -0.000199       0.000560       0.000000
     -0.000359       0.000580       0.000000
     -0.000356       0.000393       0.000000
     -0.000199       0.000560       0.000000
     -0.000197       0.000790       0.000000
     -0.000356       0.000837       0.000000
     -0.000359       0.000580       0.000000
     -0.000084       0.000720       0.000000
     -0.000110       0.000945       0.000000
     -0.000215       0.001072       0.000000
     -0.000197       0.000790       0.000000
     -0.000110       0.000945       0.000000
     -0.000169       0.001179       0.000000
     -0.000276       0.001378       0.000000
     -0.000215       0.001072       0.000000
     -0.000197       0.000790       0.000000
     -0.000215       0.001072       0.000000
     -0.000360       0.001185       0.000000
     -0.000356       0.000837       0.000000
     -0.000215       0.001072       0.000000
     -0.000276       0.001378       0.000000
     -0.000416       0.001602       0.000000
     -0.000360       0.001185       0.000000
     -0.000356       0.000393       0.000000
     -0.000359       0.000580       0.000000
     -0.000564       0.000593       0.000000
     -0.000529       0.000405       0.000000
     -0.000359       0.000580       0.000000
     -0.000356       0.000837       0.000000
     -0.000589       0.000859       0.000000
     -0.000564       0.000593       0.000000
     -0.000529       0.000405       0.000000
     -0.000564       0.000593       0.000000
     -0.000793       0.000620       0.000000
     -0.000704       0.000430       0.000000
     -0.000564       0.000593       0.000000
     -0.000589       0.000859       0.000000
     -0.000899       0.000886       0.000000
     -0.000793       0.000620       0.000000
     -0.000356       0.000837       0.000000
     -0.000355       0.000999       0.000000
     -0.000459       0.001023       0.000000
     -0.000461       0.000850       0.000000
     -0.000355       0.000999       0.000000
     -0.000360       0.001185       0.000000
     -0.000459       0.001231       0.000000
     -0.000459       0.001023       0.000000
     -0.000461       0.000850       0.000000
     -0.000459       0.001023       0.000000
     -0.000593       0.001037       0.000000
     -0.000589       0.000859       0.000000
     -0.000459       0.001023       0.000000
     -0.000459       0.001231       0.000000
     -0.000590       0.001261       0.000000
     -0.000593       0.001037       0.000000
     -0.000360       0.001185       0.000000
     -0.000378       0.001391       0.000000
     -0.000470       0.001473       0.000000
     -0.000459       0.001231       0.000000
     -0.000378       0.001391       0.000000
     -0.000416       0.001602       0.000000
     -0.000508       0.001731       0.000000
     -0.000470       0.001473       0.000000
     -0.000459       0.001231       0.000000
     -0.000470       0.001473       0.000000
     -0.000590       0.001548       0.000000
     -0.000590       0.001261       0.000000
     -0.000470       0.001473       0.000000
     -0.000508       0.001731       0.000000
     -0.000623       0.001884       0.000000
     -0.000590       0.001548       0.000000
     -0.000589       0.000859       0.000000
     -0.000593       0.001037       0.000000
     -0.000764       0.001045       0.000000
     -0.000739       0.000868       0.000000
     -0.000593       0.001037       0.000000
     -0.000590       0.001261       0.000000
     -0.000778       0.001274       0.000000
     -0.000764       0.001045       0.000000
     -0.000739       0.000868       0.000000
     -0.000764       0.001045       0.000000
     -0.000960       0.001064       0.000000
     -0.000899       0.000886       0.000000
     -0.000764       0.001045       0.000000
     -0.000778       0.001274       0.000000
     -0.001030       0.001291       0.000000
     -0.000960       0.001064       0.000000
     -0.000590       0.001261       0.000000
     -0.000588       0.001396       0.000000
     -0.000672       0.001412       0.000000
     -0.000676       0.001270       0.000000
     -0.000588       0.001396       0.000000
     -0.000590       0.001548       0.000000
     -0.000668       0.001579       0.000000
     -0.000672       0.001412       0.000000
     -0.000676       0.001270       0.000000
     -0.000672       0.001412       0.000000
     -0.000778       0.001420       0.000000
     -0.000778       0.001274       0.000000
     -0.000672       0.001412       0.000000
     -0.000668       0.001579       0.000000
     -0.000771       0.001600       0.000000
     -0.000778       0.001420       0.000000
     -0.000590       0.001548       0.000000
     -0.000600       0.001714       0.000000
     -0.000673       0.001772       0.000000
     -0.000668       0.001579       0.000000
     -0.000600       0.001714       0.000000
     -0.000623       0.001884       0.000000
     -0.000696       0.001978       0.000000
     -0.000673       0.001772       0.000000
     -0.000668       0.001579       0.000000
     -0.000673       0.001772       0.000000
     -0.000765       0.001829       0.000000
     -0.000771       0.001600       0.000000
     -0.000673       0.001772       0.000000
     -0.000696       0.001978       0.000000
     -0.000786       0.002096       0.000000
     -0.000765       0.001829       0.000000
     -0.000778       0.001274       0.000000
     -0.000778       0.001420       0.000000
     -0.000913       0.001424       0.000000
     -0.000899       0.001279       0.000000
     -0.000778       0.001420       0.000000
     -0.000771       0.001600       0.000000
     -0.000918       0.001607       0.000000
     -0.000913       0.001424       0.000000
     -0.000899       0.001279       0.000000
     -0.000913       0.001424       0.000000
     -0.001070       0.001436       0.000000
     -0.001030       0.001291       0.000000
     -0.000913       0.001424       0.000000
     -0.000918       0.001607       0.000000
     -0.001118       0.001619       0.000000
     -0.001070       0.001436       0.000000
     -0.000771       0.001600       0.000000
     -0.000765       0.001829       0.000000
     -0.000904       0.001870       0.000000
     -0.000918       0.001607       0.000000
     -0.000765       0.001829       0.000000
     -0.000786       0.002096       0.000000
     -0.000914       0.002276       0.000000
     -0.000904       0.001870       0.000000
     -0.000918       0.001607       0.000000
     -0.000904       0.001870       0.000000
     -0.001185       0.001894       0.000000
     -0.001118       0.001619       0.000000
     -0.000904       0.001870       0.000000
     -0.000914       0.002276       0.000000
     -0.001280       0.002810       0.000000
     -0.001185       0.001894       0.000000
      0.000000       0.000000       0.000000
      0.000000       0.000000       0.000000
      0.000018       0.000300       0.000000
      0.000079       0.000240       0.000000
      0.000000       0.000000       0.000000
      0.000000       0.000000       0.000000
     -0.000063       0.000347       0.000000
      0.000018       0.000300       0.000000
      0.000079       0.000240       0.000000
      0.000018       0.000300       0.000000
     -0.000047       0.000656       0.000000
      0.000065       0.000516       0.000000
      0.000018       0.000300       0.000000
     -0.000063       0.000347       0.000000
     -0.000195       0.000761       0.000000
     -0.000047       0.000656       0.000000
      0.000000       0.000000       0.000000
      0.000000       0.000000       0.000000
     -0.000155       0.000384       0.000000
     -0.000063       0.000347       0.000000
      0.000000       0.000000       0.000000
      0.000000       0.000000       0.000000
     -0.000261       0.000425       0.000000
     -0.000155       0.000384       0.000000
     -0.000063       0.000347       0.000000
     -0.000155       0.000384       0.000000
     -0.000362       0.000838       0.000000
     -0.000195       0.000761       0.000000
     -0.000155       0.000384       0.000000
     -0.000261       0.000425       0.000000
     -0.000544       0.000919       0.000000
     -0.000362       0.000838       0.000000
      0.000000       0.000000       0.000000
      0.000000       0.000000       0.000000
     -0.000408       0.000512       0.000000
     -0.000261       0.000425       0.000000
      0.000000       0.000000       0.000000
      0.000000       0.000000       0.000000
     -0.000633       0.000773       0.000000
     -0.000408       0.000512       0.000000
     -0.000261       0.000425       0.000000
     -0.000408       0.000512       0.000000
     -0.000750       0.001052       0.000000
     -0.000544       0.000919       0.000000
     -0.000408       0.000512       0.000000
     -0.000633       0.000773       0.000000
     -0.000964       0.001285       0.000000
     -0.000750       0.001052       0.000000
      0.000065       0.000516       0.000000
     -0.000047       0.000656       0.000000
     -0.000178       0.001072       0.000000
     -0.000020       0.000827       0.000000
     -0.000047       0.000656       0.000000
     -0.000195       0.000761       0.000000
     -0.000382       0.001237       0.000000
     -0.000178       0.001072       0.000000
     -0.000020       0.000827       0.000000
     -0.000178       0.001072       0.000000
     -0.000378       0.001564       0.000000
     -0.000169       0.001179       0.000000
     -0.000178       0.001072       0.000000
     -0.000382       0.001237       0.000000
     -0.000617       0.001768       0.000000
     -0.000378       0.001564       0.000000
     -0.000195       0.000761       0.000000
     -0.000362       0.000838       0.000000
     -0.000594       0.001341       0.000000
     -0.000382       0.001237       0.000000
     -0.000362       0.000838       0.000000
     -0.000544       0.000919       0.000000
     -0.000807       0.001432       0.000000
     -0.000594       0.001341       0.000000
     -0.000382       0.001237       0.000000
     -0.000594       0.001341       0.000000
     -0.000832       0.001863       0.000000
     -0.000617       0.001768       0.000000
     -0.000594       0.001341       0.000000
     -0.000807       0.001432       0.000000
     -0.001034       0.001934       0.000000
     -0.000832       0.001863       0.000000
     -0.000544       0.000919       0.000000
     -0.000750       0.001052       0.000000
     -0.001017       0.001556       0.000000
     -0.000807       0.001432       0.000000
     -0.000750       0.001052       0.000000
     -0.000964       0.001285       0.000000
     -0.001216       0.001745       0.000000
     -0.001017       0.001556       0.000000
     -0.000807       0.001432       0.000000
     -0.001017       0.001556       0.000000
     -0.001231       0.002027       0.000000
     -0.001034       0.001934       0.000000
     -0.001017       0.001556       0.000000
     -0.001216       0.001745       0.000000
     -0.001414       0.002166       0.000000
     -0.001231       0.002027       0.000000
     -0.000617       0.001768       0.000000
     -0.000832       0.001863       0.000000
     -0.001033       0.002367       0.000000
     -0.000875       0.002318       0.000000
     -0.000832       0.001863       0.000000
     -0.001034       0.001934       0.000000
     -0.001201       0.002410       0.000000
     -0.001033       0.002367       0.000000
     -0.000875       0.002318       0.000000
     -0.001033       0.002367       0.000000
     -0.001126       0.002835       0.000000
     -0.001019       0.002815       0.000000
     -0.001033       0.002367       0.000000
     -0.001201       0.002410       0.000000
     -0.001273       0.002863       0.000000
     -0.001126       0.002835       0.000000
     -0.001034       0.001934       0.000000
     -0.001231       0.002027       0.000000
     -0.001379       0.002470       0.000000
     -0.001201       0.002410       0.000000
     -0.001231       0.002027       0.000000
     -0.001414       0.002166       0.000000
     -0.001550       0.002553       0.000000
     -0.001379       0.002470       0.000000
     -0.001201       0.002410       0.000000
     -0.001379       0.002470       0.000000
     -0.001442       0.002896       0.000000
     -0.001273       0.002863       0.000000
     -0.001379       0.002470       0.000000
     -0.001550       0.002553       0.000000
     -0.001611       0.002923       0.000000
     -0.001442       0.002896       0.000000
     -0.000169       0.001179       0.000000
     -0.000263       0.001393       0.000000
     -0.000384       0.001652       0.000000
     -0.000276       0.001378       0.000000
     -0.000263       0.001393       0.000000
     -0.000378       0.001564       0.000000
     -0.000514       0.001851       0.000000
     -0.000384       0.001652       0.000000
     -0.000276       0.001378       0.000000
     -0.000384       0.001652       0.000000
     -0.000546       0.001960       0.000000
     -0.000416       0.001602       0.000000
     -0.000384       0.001652       0.000000
     -0.000514       0.001851       0.000000
     -0.000683       0.002169       0.000000
     -0.000546       0.001960       0.000000
     -0.000378       0.001564       0.000000
     -0.000500       0.001686       0.000000
     -0.000638       0.001974       0.000000
     -0.000514       0.001851       0.000000
     -0.000500       0.001686       0.000000
     -0.000617       0.001768       0.000000
     -0.000748       0.002045       0.000000
     -0.000638       0.001974       0.000000
     -0.000514       0.001851       0.000000
     -0.000638       0.001974       0.000000
     -0.000789       0.002269       0.000000