# vtk DataFile Version 2.0
time_10.vtk
ASCII
DATASET UNSTRUCTURED_GRID
POINTS  1152 float
      0.000000       0.000000       0.000000
      0.083333       0.000000       0.000000
      0.083333       0.083333       0.000000
      0.000000       0.083333       0.000000
      0.083333       0.000000       0.000000
      0.166667       0.000000       0.000000
      0.166667       0.083333       0.000000
      0.083333       0.083333       0.000000
      0.000000       0.083333       0.000000
      0.083333       0.083333       0.000000
      0.083333       0.166667       0.000000
      0.000000       0.166667       0.000000
      0.083333       0.083333       0.000000
      0.166667       0.083333       0.000000
      0.166667       0.166667       0.000000
      0.083333       0.166667       0.000000
      0.166667       0.000000       0.000000
      0.250000       0.000000       0.000000
      0.250000       0.083333       0.000000
      0.166667       0.083333       0.000000
      0.250000       0.000000       0.000000
      0.333333       0.000000       0.000000
      0.333333       0.083333       0.000000
      0.250000       0.083333       0.000000
      0.166667       0.083333       0.000000
      0.250000       0.083333       0.000000
      0.250000       0.166667       0.000000
      0.166667       0.166667       0.000000
      0.250000       0.083333       0.000000
      0.333333       0.083333       0.000000
      0.333333       0.166667       0.000000
      0.250000       0.166667       0.000000
      0.333333       0.000000       0.000000
      0.416667      -0.000000       0.000000
      0.416667       0.083333       0.000000
      0.333333       0.083333       0.000000
      0.416667      -0.000000       0.000000
      0.500000       0.000000       0.000000
      0.500000       0.083333       0.000000
      0.416667       0.083333       0.000000
      0.333333       0.083333       0.000000
      0.416667       0.083333       0.000000
      0.416667       0.166667       0.000000
      0.333333       0.166667       0.000000
      0.416667       0.083333       0.000000
      0.500000       0.083333       0.000000
      0.500000       0.166667       0.000000
      0.416667       0.166667       0.000000
      0.000000       0.166667       0.000000
      0.083333       0.166667       0.000000
      0.083333       0.250000       0.000000
      0.000000       0.250000       0.000000
      0.083333       0.166667       0.000000
      0.166667       0.166667       0.000000
      0.166667       0.250000       0.000000
      0.083333       0.250000       0.000000
      0.000000       0.250000       0.000000
      0.083333       0.250000       0.000000
      0.083333       0.333333       0.000000
      0.000000       0.333333       0.000000
      0.083333       0.250000       0.000000
      0.166667       0.250000       0.000000
      0.166667       0.333333       0.000000
      0.083333       0.333333       0.000000
      0.166667       0.166667       0.000000
      0.250000       0.166667       0.000000
      0.250000       0.250000       0.000000
      0.166667       0.250000       0.000000
      0.250000       0.166667       0.000000
      0.333333       0.166667       0.000000
      0.333333       0.250000       0.000000
      0.250000       0.250000       0.000000
      0.166667       0.250000       0.000000
      0.250000       0.250000       0.000000
      0.250000       0.333333       0.000000
      0.166667       0.333333       0.000000
      0.250000       0.250000       0.000000
      0.333333       0.250000       0.000000
      0.333333       0.333333       0.000000
      0.250000       0.333333       0.000000
      0.333333       0.166667       0.000000
      0.416667       0.166667       0.000000
      0.416667       0.250000       0.000000
      0.333333       0.250000       0.000000
      0.416667       0.166667       0.000000
      0.500000       0.166667       0.000000
      0.500000       0.250000       0.000000
      0.416667       0.250000       0.000000
      0.333333       0.250000       0.000000
      0.416667       0.250000       0.000000
      0.416667       0.333333       0.000000
      0.333333       0.333333       0.000000
      0.416667       0.250000       0.000000
      0.500000       0.250000       0.000000
      0.500000       0.333333       0.000000
      0.416667       0.333333       0.000000
      0.000000       0.333333       0.000000
      0.083333       0.333333       0.000000
      0.083333       0.416667       0.000000
     -0.000000       0.416667       0.000000
      0.083333       0.333333       0.000000
      0.166667       0.333333       0.000000
      0.166667       0.416667       0.000000
      0.083333       0.416667       0.000000
     -0.000000       0.416667       0.000000
      0.083333       0.416667       0.000000
      0.083333       0.500000       0.000000
      0.000000       0.500000       0.000000
      0.083333       0.416667       0.000000
      0.166667       0.416667       0.000000
      0.166667       0.500000       0.000000
      0.083333       0.500000       0.000000
      0.166667       0.333333       0.000000
      0.250000       0.333333       0.000000
      0.250000       0.416667       0.000000
      0.166667       0.416667       0.000000
      0.250000       0.333333       0.000000
      0.333333       0.333333       0.000000
      0.333333       0.416667       0.000000
      0.250000       0.416667       0.000000
      0.166667       0.416667       0.000000
      0.250000       0.416667       0.000000
      0.250000       0.500000       0.000000
      0.166667       0.500000       0.000000
      0.250000       0.416667       0.000000
      0.333333       0.416667       0.000000
      0.333333       0.500000       0.000000
      0.250000       0.500000       0.000000
      0.333333       0.333333       0.000000
      0.375000       0.333333       0.000000
      0.375000       0.375000       0.000000
      0.333333       0.375000       0.000000
      0.375000       0.333333       0.000000
      0.416667       0.333333       0.000000
      0.416667       0.375000       0.000000
      0.375000       0.375000       0.000000
      0.333333       0.375000       0.000000
      0.375000       0.375000       0.000000
      0.375000       0.416667       0.000000
      0.333333       0.416667       0.000000
      0.375000       0.375000       0.000000
      0.416667       0.375000       0.000000
      0.416667       0.416667       0.000000
      0.375000       0.416667       0.000000
      0.416667       0.333333       0.000000
      0.458333       0.333333       0.000000
      0.458333       0.375000       0.000000
      0.416667       0.375000       0.000000
      0.458333       0.333333       0.000000
      0.500000       0.333333       0.000000
      0.500000       0.375000       0.000000
      0.458333       0.375000       0.000000
      0.416667       0.375000       0.000000
      0.458333       0.375000       0.000000
      0.458333       0.416667       0.000000
      0.416667       0.416667       0.000000
      0.458333       0.375000       0.000000
      0.500000       0.375000       0.000000
      0.500000       0.416667       0.000000
      0.458333       0.416667       0.000000
      0.333333       0.416667       0.000000
      0.375000       0.416667       0.000000
      0.375000       0.458333       0.000000
      0.333333       0.458333       0.000000
      0.375000       0.416667       0.000000
      0.416667       0.416667       0.000000
      0.416667       0.458333       0.000000
      0.375000       0.458333       0.000000
      0.333333       0.458333       0.000000
      0.375000       0.458333       0.000000
      0.375000       0.500000       0.000000
      0.333333       0.500000       0.000000
      0.375000       0.458333       0.000000
      0.416667       0.458333       0.000000
      0.416667       0.500000       0.000000
      0.375000       0.500000       0.000000
      0.416667       0.416667       0.000000
      0.437500       0.416667       0.000000
      0.437500       0.437500       0.000000
      0.416667       0.437500       0.000000
      0.437500       0.416667       0.000000
      0.458333       0.416667       0.000000
      0.458333       0.437500       0.000000
      0.437500       0.437500       0.000000
      0.416667       0.437500       0.000000
      0.437500       0.437500       0.000000
      0.437500       0.458333       0.000000
      0.416667       0.458333       0.000000
      0.437500       0.437500       0.000000
      0.458333       0.437500       0.000000
      0.458333       0.458333       0.000000
      0.437500       0.458333       0.000000
      0.458333       0.416667       0.000000
      0.479167       0.416667       0.000000
      0.479167       0.437500       0.000000
      0.458333       0.437500       0.000000
      0.479167       0.416667       0.000000
      0.500000       0.416667       0.000000
      0.500000       0.437500       0.000000
      0.479167       0.437500       0.000000
      0.458333       0.437500       0.000000
      0.479167       0.437500       0.000000
      0.479167       0.458333       0.000000
      0.458333       0.458333       0.000000
      0.479167       0.437500       0.000000
      0.500000       0.437500       0.000000
      0.500000       0.458333       0.000000
      0.479167       0.458333       0.000000
      0.416667       0.458333       0.000000
      0.437500       0.458333       0.000000
      0.437500       0.479167       0.000000
      0.416667       0.479167       0.000000
      0.437500       0.458333       0.000000
      0.458333       0.458333       0.000000
      0.458333       0.479167       0.000000
      0.437500       0.479167       0.000000
      0.416667       0.479167       0.000000
      0.437500       0.479167       0.000000
      0.437500       0.500000       0.000000
      0.416667       0.500000       0.000000
[...]
POINT_DATA  1152
VECTORS U float 
      0.000000       0.000000       0.000000
      0.000000       0.000000       0.000000
      0.000072      -0.000014       0.000000
      0.000054      -0.000014       0.000000
      0.000000       0.000000       0.000000
      0.000000       0.000000       0.000000
      0.000091       0.000015       0.000000
      0.000072      -0.000014       0.000000
      0.000054      -0.000014       0.000000
      0.000072      -0.000014       0.000000
      0.000081      -0.000039       0.000000
      0.000057      -0.000081       0.000000
      0.000072      -0.000014       0.000000
      0.000091       0.000015       0.000000
      0.000102       0.000019       0.000000
      0.000081      -0.000039       0.000000
      0.000000       0.000000       0.000000
      0.000000       0.000000       0.000000
      0.000109       0.000054       0.000000
      0.000091       0.000015       0.000000
      0.000000       0.000000       0.000000
      0.000000       0.000000       0.000000
      0.000118       0.000105       0.000000
      0.000109       0.000054       0.000000
      0.000091       0.000015       0.000000
      0.000109       0.000054       0.000000
      0.000125       0.000098       0.000000
      0.000102       0.000019       0.000000
      0.000109       0.000054       0.000000
      0.000118       0.000105       0.000000
      0.000138       0.000207       0.000000
      0.000125       0.000098       0.000000
      0.000000       0.000000       0.000000
      0.000000       0.000000       0.000000
      0.000109       0.000167       0.000000
      0.000118       0.000105       0.000000
      0.000000       0.000000       0.000000
      0.000000       0.000000       0.000000
      0.000075       0.000231       0.000000
      0.000109       0.000167       0.000000
      0.000118       0.000105       0.000000
      0.000109       0.000167       0.000000
      0.000123       0.000346       0.000000
      0.000138       0.000207       0.000000
      0.000109       0.000167       0.000000
      0.000075       0.000231       0.000000
      0.000063       0.000497       0.000000
      0.000123       0.000346       0.000000
      0.000057      -0.000081       0.000000
      0.000081      -0.000039       0.000000
      0.000012      -0.000068       0.000000
     -0.000011      -0.000155       0.000000
      0.000081      -0.000039       0.000000
      0.000102       0.000019       0.000000
      0.000032       0.000017       0.000000
      0.000012      -0.000068       0.000000
     -0.000011      -0.000155       0.000000
      0.000012      -0.000068       0.000000
     -0.000123      -0.000093       0.000000
     -0.000137      -0.000213       0.000000
      0.000012      -0.000068       0.000000
      0.000032       0.000017       0.000000
     -0.000112       0.000010       0.000000
     -0.000123      -0.000093       0.000000
      0.000102       0.000019       0.000000
      0.000125       0.000098       0.000000
      0.000056       0.000129       0.000000
      0.000032       0.000017       0.000000
      0.000125       0.000098       0.000000
      0.000138       0.000207       0.000000
      0.000075       0.000296       0.000000
      0.000056       0.000129       0.000000
      0.000032       0.000017       0.000000
      0.000056       0.000129       0.000000
     -0.000096       0.000144       0.000000
     -0.000112       0.000010       0.000000
      0.000056       0.000129       0.000000
      0.000075       0.000296       0.000000
     -0.000076       0.000358       0.000000
     -0.000096       0.000144       0.000000
      0.000138       0.000207       0.000000
      0.000123       0.000346       0.000000
      0.000063       0.000530       0.000000
      0.000075       0.000296       0.000000
      0.000123       0.000346       0.000000
      0.000063       0.000497       0.000000
     -0.000017       0.000798       0.000000
      0.000063       0.000530       0.000000
      0.000075       0.000296       0.000000
      0.000063       0.000530       0.000000
     -0.000073       0.000701       0.000000
     -0.000076       0.000358       0.000000
      0.000063       0.000530       0.000000
     -0.000017       0.000798       0.000000
     -0.000158       0.001140       0.000000
     -0.000073       0.000701       0.000000
     -0.000137      -0.000213       0.000000
     -0.000123      -0.000093       0.000000
     -0.000290      -0.000107       0.000000
     -0.000292      -0.000238       0.000000
     -0.000123      -0.000093       0.000000
     -0.000112       0.000010       0.000000
     -0.000298       0.000008       0.000000
     -0.000290      -0.000107       0.000000
     -0.000292      -0.000238       0.000000
     -0.000290      -0.000107       0.000000
     -0.000441      -0.000105       0.000000
     -0.000439      -0.000240       0.000000
     -0.000290      -0.000107       0.000000
     -0.000298       0.000008       0.000000
     -0.000469       0.000020       0.000000
     -0.000441      -0.000105       0.000000
     -0.000112       0.000010       0.000000
     -0.000096       0.000144       0.000000
     -0.000316       0.000150       0.000000
     -0.000298       0.000008       0.000000
     -0.000096       0.000144       0.000000
     -0.000076       0.000358       0.000000
     -0.000333       0.000385       0.000000
     -0.000316       0.000150       0.000000
     -0.000298       0.000008       0.000000
     -0.000316       0.000150       0.000000
     -0.000542       0.000175       0.000000
     -0.000469       0.000020       0.000000
     -0.000316       0.000150       0.000000
     -0.000333       0.000385       0.000000
     -0.000669       0.000420       0.000000
     -0.000542       0.000175       0.000000
     -0.000076       0.000358       0.000000
     -0.000069       0.000512       0.000000
     -0.000182       0.000547       0.000000
     -0.000190       0.000375       0.000000
     -0.000069       0.000512       0.000000
     -0.000073       0.000701       0.000000
     -0.000180       0.000770       0.000000
     -0.000182       0.000547       0.000000
     -0.000190       0.000375       0.000000
     -0.000182       0.000547       0.000000
     -0.000335       0.000566       0.000000
     -0.000333       0.000385       0.000000
     -0.000182       0.000547       0.000000
     -0.000180       0.000770       0.000000
     -0.000331       0.000817       0.000000
     -0.000335       0.000566       0.000000
     -0.000073       0.000701       0.000000
     -0.000100       0.000917       0.000000
     -0.000198       0.001042       0.000000
     -0.000180       0.000770       0.000000
     -0.000100       0.000917       0.000000
     -0.000158       0.001140       0.000000
     -0.000259       0.001334       0.000000
     -0.000198       0.001042       0.000000
     -0.000180       0.000770       0.000000
     -0.000198       0.001042       0.000000
     -0.000334       0.001155       0.000000
     -0.000331       0.000817       0.000000
     -0.000198       0.001042       0.000000
     -0.000259       0.001334       0.000000
     -0.000392       0.001554       0.000000
     -0.000334       0.001155       0.000000
     -0.000333       0.000385       0.000000
     -0.000335       0.000566       0.000000
     -0.000532       0.000579       0.000000
     -0.000500       0.000396       0.000000
     -0.000335       0.000566       0.000000
     -0.000331       0.000817       0.000000
     -0.000555       0.000838       0.000000
     -0.000532       0.000579       0.000000
     -0.000500       0.000396       0.000000
     -0.000532       0.000579       0.000000
     -0.000755       0.000605       0.000000
     -0.000669       0.000420       0.000000
     -0.000532       0.000579       0.000000
     -0.000555       0.000838       0.000000
     -0.000857       0.000864       0.000000
     -0.000755       0.000605       0.000000
     -0.000331       0.000817       0.000000
     -0.000329       0.000975       0.000000
     -0.000429       0.000999       0.000000
     -0.000432       0.000830       0.000000
     -0.000329       0.000975       0.000000
     -0.000334       0.001155       0.000000
     -0.000428       0.001201       0.000000
     -0.000429       0.000999       0.000000
     -0.000432       0.000830       0.000000
     -0.000429       0.000999       0.000000
     -0.000558       0.001012       0.000000
     -0.000555       0.000838       0.000000
     -0.000429       0.000999       0.000000
     -0.000428       0.001201       0.000000
     -0.000554       0.001232       0.000000
     -0.000558       0.001012       0.000000
     -0.000334       0.001155       0.000000
     -0.000353       0.001354       0.000000
     -0.000439       0.001436       0.000000
     -0.000428       0.001201       0.000000
     -0.000353       0.001354       0.000000
     -0.000392       0.001554       0.000000
     -0.000478       0.001683       0.000000
     -0.000439       0.001436       0.000000
     -0.000428       0.001201       0.000000
     -0.000439       0.001436       0.000000
     -0.000553       0.001513       0.000000
     -0.000554       0.001232       0.000000
     -0.000439       0.001436       0.000000
     -0.000478       0.001683       0.000000
     -0.000587       0.001835       0.000000
     -0.000553       0.001513       0.000000
     -0.000555       0.000838       0.000000
     -0.000558       0.001012       0.000000
     -0.000724       0.001020       0.000000
     -0.000701       0.000846       0.000000
     -0.000558       0.001012       0.000000
     -0.000554       0.001232       0.000000
     -0.000736       0.001245       0.000000
     -0.000724       0.001020       0.000000
     -0.000701       0.000846       0.000000
     -0.000724       0.001020       0.000000
     -0.000916       0.001037       0.000000
     -0.000857       0.000864       0.000000
     -0.000724       0.001020       0.000000
     -0.000736       0.001245       0.000000
     -0.000983       0.001260       0.000000
     -0.000916       0.001037       0.000000
     -0.000554       0.001232       0.000000
     -0.000551       0.001364       0.000000
     -0.000632       0.001380       0.000000
     -0.000636       0.001240       0.000000
     -0.000551       0.001364       0.000000
     -0.000553       0.001513       0.000000
     -0.000628       0.001544       0.000000
     -0.000632       0.001380       0.000000
     -0.000636       0.001240       0.000000
     -0.000632       0.001380       0.000000
     -0.000735       0.001388       0.000000
     -0.000736       0.001245       0.000000
     -0.000632       0.001380       0.000000
     -0.000628       0.001544       0.000000
     -0.000727       0.001565       0.000000
     -0.000735       0.001388       0.000000
     -0.000553       0.001513       0.000000
     -0.000563       0.001673       0.000000
     -0.000632       0.001732       0.000000
     -0.000628       0.001544       0.000000
     -0.000563       0.001673       0.000000
     -0.000587       0.001835       0.000000
     -0.000656       0.001928       0.000000
     -0.000632       0.001732       0.000000
     -0.000628       0.001544       0.000000
     -0.000632       0.001732       0.000000
     -0.000720       0.001789       0.000000
     -0.000727       0.001565       0.000000
     -0.000632       0.001732       0.000000
     -0.000656       0.001928       0.000000
     -0.000742       0.002044       0.000000
     -0.000720       0.001789       0.000000
     -0.000736       0.001245       0.000000
     -0.000735       0.001388       0.000000
     -0.000866       0.001392       0.000000
     -0.000854       0.001249       0.000000
     -0.000735       0.001388       0.000000
     -0.000727       0.001565       0.000000
     -0.000870       0.001572       0.000000
     -0.000866       0.001392       0.000000
     -0.000854       0.001249       0.000000
     -0.000866       0.001392       0.000000
     -0.001021       0.001403       0.000000
     -0.000983       0.001260       0.000000
     -0.000866       0.001392       0.000000
     -0.000870       0.001572       0.000000
     -0.001066       0.001583       0.000000
     -0.001021       0.001403       0.000000
     -0.000727       0.001565       0.000000
     -0.000720       0.001789       0.000000
     -0.000855       0.001829       0.000000
     -0.000870       0.001572       0.000000
     -0.000720       0.001789       0.000000
     -0.000742       0.002044       0.000000
     -0.000864       0.002211       0.000000
     -0.000855       0.001829       0.000000
     -0.000870       0.001572       0.000000
     -0.000855       0.001829       0.000000
     -0.001125       0.001849       0.000000
     -0.001066       0.001583       0.000000
     -0.000855       0.001829       0.000000
     -0.000864       0.002211       0.000000
     -0.001189       0.002654       0.000000
     -0.001125       0.001849       0.000000
      0.000000       0.000000       0.000000
      0.000000       0.000000       0.000000
      0.000016       0.000288       0.000000
      0.000075       0.000231       0.000000
      0.000000       0.000000       0.000000
      0.000000       0.000000       0.000000
     -0.000061       0.000332       0.000000
      0.000016       0.000288       0.000000
      0.000075       0.000231       0.000000
      0.000016       0.000288       0.000000
     -0.000045       0.000629       0.000000
      0.000063       0.000497       0.000000
      0.000016       0.000288       0.000000
     -0.000061       0.000332       0.000000
     -0.000186       0.000726       0.000000
     -0.000045       0.000629       0.000000
      0.000000       0.000000       0.000000
      0.000000       0.000000       0.000000
     -0.000148       0.000365       0.000000
     -0.000061       0.000332       0.000000
      0.000000       0.000000       0.000000
      0.000000       0.000000       0.000000
     -0.000249       0.000402       0.000000
     -0.000148       0.000365       0.000000
     -0.000061       0.000332       0.000000
     -0.000148       0.000365       0.000000
     -0.000344       0.000796       0.000000
     -0.000186       0.000726       0.000000
     -0.000148       0.000365       0.000000
     -0.000249       0.000402       0.000000
     -0.000515       0.000868       0.000000
     -0.000344       0.000796       0.000000
      0.000000       0.000000       0.000000
      0.000000       0.000000       0.000000
     -0.000386       0.000482       0.000000
     -0.000249       0.000402       0.000000
      0.000000       0.000000       0.000000
      0.000000       0.000000       0.000000
     -0.000597       0.000726       0.000000
     -0.000386       0.000482       0.000000
     -0.000249       0.000402       0.000000
     -0.000386       0.000482       0.000000
     -0.000708       0.000991       0.000000
     -0.000515       0.000868       0.000000
     -0.000386       0.000482       0.000000
     -0.000597       0.000726       0.000000
     -0.000910       0.001209       0.000000
     -0.000708       0.000991       0.000000
      0.000063       0.000497       0.000000
     -0.000045       0.000629       0.000000
     -0.000170       0.001027       0.000000
     -0.000017       0.000798       0.000000
     -0.000045       0.000629       0.000000
     -0.000186       0.000726       0.000000
     -0.000363       0.001178       0.000000
     -0.000170       0.001027       0.000000
     -0.000017       0.000798       0.000000
     -0.000170       0.001027       0.000000
     -0.000360       0.001497       0.000000
     -0.000158       0.001140       0.000000
     -0.000170       0.001027       0.000000
     -0.000363       0.001178       0.000000
     -0.000583       0.001679       0.000000
     -0.000360       0.001497       0.000000
     -0.000186       0.000726       0.000000
     -0.000344       0.000796       0.000000
     -0.000562       0.001271       0.000000
     -0.000363       0.001178       0.000000
     -0.000344       0.000796       0.000000
     -0.000515       0.000868       0.000000
     -0.000761       0.001353       0.000000
     -0.000562       0.001271       0.000000
     -0.000363       0.001178       0.000000
     -0.000562       0.001271       0.000000
     -0.000784       0.001762       0.000000
     -0.000583       0.001679       0.000000
     -0.000562       0.001271       0.000000
     -0.000761       0.001353       0.000000
     -0.000974       0.001827       0.000000
     -0.000784       0.001762       0.000000
     -0.000515       0.000868       0.000000
     -0.000708       0.000991       0.000000
     -0.000960       0.001467       0.000000
     -0.000761       0.001353       0.000000
     -0.000708       0.000991       0.000000
     -0.000910       0.001209       0.000000
     -0.001148       0.001644       0.000000
     -0.000960       0.001467       0.000000
     -0.000761       0.001353       0.000000
     -0.000960       0.001467       0.000000
     -0.001159       0.001913       0.000000
     -0.000974       0.001827       0.000000
     -0.000960       0.001467       0.000000
     -0.001148       0.001644       0.000000
     -0.001333       0.002043       0.000000
     -0.001159       0.001913       0.000000
     -0.000583       0.001679       0.000000
     -0.000784       0.001762       0.000000
     -0.000970       0.002237       0.000000
     -0.000822       0.002193       0.000000
     -0.000784       0.001762       0.000000
     -0.000974       0.001827       0.000000
     -0.001129       0.002277       0.000000
     -0.000970       0.002237       0.000000
     -0.000822       0.002193       0.000000
     -0.000970       0.002237       0.000000
     -0.001056       0.002678       0.000000
     -0.000953       0.002660       0.000000
     -0.000970       0.002237       0.000000
     -0.001129       0.002277       0.000000
     -0.001196       0.002706       0.000000
     -0.001056       0.002678       0.000000
     -0.000974       0.001827       0.000000
     -0.001159       0.001913       0.000000
     -0.001297       0.002332       0.000000
     -0.001129       0.002277       0.000000
     -0.001159       0.001913       0.000000
     -0.001333       0.002043       0.000000
     -0.001460       0.002411       0.000000
     -0.001297       0.002332       0.000000
     -0.001129       0.002277       0.000000
     -0.001297       0.002332       0.000000
     -0.001357       0.002737       0.000000
     -0.001196       0.002706       0.000000
     -0.001297       0.002332       0.000000
     -0.001460       0.002411       0.000000
     -0.001517       0.002763       0.000000
     -0.001357       0.002737       0.000000
     -0.000158       0.001140       0.000000
     -0.000249       0.001340       0.000000
     -0.000364       0.001589       0.000000
     -0.000259       0.001334       0.000000
     -0.000249       0.001340       0.000000
     -0.000360       0.001497       0.000000
     -0.000487       0.001768       0.000000
     -0.000364       0.001589       0.000000
     -0.000259       0.001334       0.000000
     -0.000364       0.001589       0.000000
     -0.000518       0.001884       0.000000
     -0.000392       0.001554       0.000000
     -0.000364       0.001589       0.000000
     -0.000487       0.001768       0.000000
     -0.000645       0.002067       0.000000
     -0.000518       0.001884       0.000000
     -0.000360       0.001497       0.000000
     -0.000473       0.001606       0.000000
     -0.000603       0.001876       0.000000
     -0.000487       0.001768       0.000000
     -0.000473       0.001606       0.000000
     -0.000583       0.001679       0.000000
     -0.000705       0.001938       0.000000
     -0.000603       0.001876       0.000000
     -0.000487       0.001768       0.000000
     -0.000603       0.001876       0.000000
     -0.000742       0.002152       0.000000