# vtk DataFile Version 2.0
time_10.vtk
ASCII
DATASET UNSTRUCTURED_GRID
POINTS  1152 float
      0.000000       0.000000       0.000000
      0.083333       0.000000       0.000000
      0.083333       0.083333       0.000000
      0.000000       0.083333       0.000000
      0.083333       0.000000       0.000000
      0.166667       0.000000       0.000000
      0.166667       0.083333       0.000000
      0.083333       0.083333       0.000000
      0.000000       0.083333       0.000000
      0.083333       0.083333       0.000000
      0.083333       0.166667       0.000000
      0.000000       0.166667       0.000000
      0.083333       0.083333       0.000000
      0.166667       0.083333       0.000000
      0.166667       0.166667       0.000000
      0.083333       0.166667       0.000000
      0.166667       0.000000       0.000000
      0.250000       0.000000       0.000000
      0.250000       0.083333       0.000000
      0.166667       0.083333       0.000000
      0.250000       0.000000       0.000000
      0.333333       0.000000       0.000000
      0.333333       0.083333       0.000000
      0.250000       0.083333       0.000000
      0.166667       0.083333       0.000000
      0.250000       0.083333       0.000000
      0.250000       0.166667       0.000000
      0.166667       0.166667       0.000000
      0.250000       0.083333       0.000000
      0.333333       0.083333       0.000000
      0.333333       0.166667       0.000000
      0.250000       0.166667       0.000000
      0.333333       0.000000       0.000000
      0.416667      -0.000000       0.000000
      0.416667       0.083333       0.000000
      0.333333       0.083333       0.000000
      0.416667      -0.000000       0.000000
      0.500000       0.000000       0.000000
      0.500000       0.083333       0.000000
      0.416667       0.083333       0.000000
      0.333333       0.083333       0.000000
      0.416667       0.083333       0.000000
      0.416667       0.166667       0.000000
      0.333333       0.166667       0.000000
      0.416667       0.083333       0.000000
      0.500000       0.083333       0.000000
      0.500000       0.166667       0.000000
      0.416667       0.166667       0.000000
      0.000000       0.166667       0.000000
      0.083333       0.166667       0.000000
      0.083333       0.250000       0.000000
      0.000000       0.250000       0.000000
      0.083333       0.166667       0.000000
      0.166667       0.166667       0.000000
      0.166667       0.250000       0.000000
      0.083333       0.250000       0.000000
      0.000000       0.250000       0.000000
      0.083333       0.250000       0.000000
      0.083333       0.333333       0.000000
      0.000000       0.333333       0.000000
      0.083333       0.250000       0.000000
      0.166667       0.250000       0.000000
      0.166667       0.333333       0.000000
      0.083333       0.333333       0.000000
      0.166667       0.166667       0.000000
      0.250000       0.166667       0.000000
      0.250000       0.250000       0.000000
      0.166667       0.250000       0.000000
      0.250000       0.166667       0.000000
      0.333333       0.166667       0.000000
      0.333333       0.250000       0.000000
      0.250000       0.250000       0.000000
      0.166667       0.250000       0.000000
      0.250000       0.250000       0.000000
      0.250000       0.333333       0.000000
      0.166667       0.333333       0.000000
      0.250000       0.250000       0.000000
      0.333333       0.250000       0.000000
      0.333333       0.333333       0.000000
      0.250000       0.333333       0.000000
      0.333333       0.166667       0.000000
      0.416667       0.166667       0.000000
      0.416667       0.250000       0.000000
      0.333333       0.250000       0.000000
      0.416667       0.166667       0.000000
      0.500000       0.166667       0.000000
      0.500000       0.250000       0.000000
      0.416667       0.250000       0.000000
      0.333333       0.250000       0.000000
      0.416667       0.250000       0.000000
      0.416667       0.333333       0.000000
      0.333333       0.333333       0.000000
      0.416667       0.250000       0.000000
      0.500000       0.250000       0.000000
      0.500000       0.333333       0.000000
      0.416667       0.333333       0.000000
      0.000000       0.333333       0.000000
      0.083333       0.333333       0.000000
      0.083333       0.416667       0.000000
     -0.000000       0.416667       0.000000
      0.083333       0.333333       0.000000
      0.166667       0.333333       0.000000
      0.166667       0.416667       0.000000
      0.083333       0.416667       0.000000
     -0.000000       0.416667       0.000000
      0.083333       0.416667       0.000000
      0.083333       0.500000       0.000000
      0.000000       0.500000       0.000000
      0.083333       0.416667       0.000000
      0.166667       0.416667       0.000000
      0.166667       0.500000       0.000000
      0.083333       0.500000       0.000000
      0.166667       0.333333       0.000000
      0.250000       0.333333       0.000000
      0.250000       0.416667       0.000000
      0.166667       0.416667       0.000000
      0.250000       0.333333       0.000000
      0.333333       0.333333       0.000000
      0.333333       0.416667       0.000000
      0.250000       0.416667       0.000000
      0.166667       0.416667       0.000000
      0.250000       0.416667       0.000000
      0.250000       0.500000       0.000000
      0.166667       0.500000       0.000000
      0.250000       0.416667       0.000000
      0.333333       0.416667       0.000000
      0.333333       0.500000       0.000000
      0.250000       0.500000       0.000000
      0.333333       0.333333       0.000000
      0.375000       0.333333       0.000000
      0.375000       0.375000       0.000000
      0.333333       0.375000       0.000000
      0.375000       0.333333       0.000000
      0.416667       0.333333       0.000000
      0.416667       0.375000       0.000000
      0.375000       0.375000       0.000000
      0.333333       0.375000       0.000000
      0.375000       0.375000       0.000000
      0.375000       0.416667       0.000000
      0.333333       0.416667       0.000000
      0.375000       0.375000       0.000000
      0.416667       0.375000       0.000000
      0.416667       0.416667       0.000000
      0.375000       0.416667       0.000000
      0.416667       0.333333       0.000000
      0.458333       0.333333       0.000000
      0.458333       0.375000       0.000000
      0.416667       0.375000       0.000000
      0.458333       0.333333       0.000000
      0.500000       0.333333       0.000000
      0.500000       0.375000       0.000000
      0.458333       0.375000       0.000000
      0.416667       0.375000       0.000000
      0.458333       0.375000       0.000000
      0.458333       0.416667       0.000000
      0.416667       0.416667       0.000000
      0.458333       0.375000       0.000000
      0.500000       0.375000       0.000000
      0.500000       0.416667       0.000000
      0.458333       0.416667       0.000000
      0.333333       0.416667       0.000000
      0.375000       0.416667       0.000000
      0.375000       0.458333       0.000000
      0.333333       0.458333       0.000000
      0.375000       0.416667       0.000000
      0.416667       0.416667       0.000000
      0.416667       0.458333       0.000000
      0.375000       0.458333       0.000000
      0.333333       0.458333       0.000000
      0.375000       0.458333       0.000000
      0.375000       0.500000       0.000000
      0.333333       0.500000       0.000000
      0.375000       0.458333       0.000000
      0.416667       0.458333       0.000000
      0.416667       0.500000       0.000000
      0.375000       0.500000       0.000000
      0.416667       0.416667       0.000000
      0.437500       0.416667       0.000000
      0.437500       0.437500       0.000000
      0.416667       0.437500       0.000000
      0.437500       0.416667       0.000000
      0.458333       0.416667       0.000000
      0.458333       0.437500       0.000000
      0.437500       0.437500       0.000000
      0.416667       0.437500       0.000000
      0.437500       0.437500       0.000000
      0.437500       0.458333       0.000000
      0.416667       0.458333       0.000000
      0.437500       0.437500       0.000000
      0.458333       0.437500       0.000000
      0.458333       0.458333       0.000000
      0.437500       0.458333       0.000000
      0.458333       0.416667       0.000000
      0.479167       0.416667       0.000000
      0.479167       0.437500       0.000000
      0.458333       0.437500       0.000000
      0.479167       0.416667       0.000000
      0.500000       0.416667       0.000000
      0.500000       0.437500       0.000000
      0.479167       0.437500       0.000000
      0.458333       0.437500       0.000000
      0.479167       0.437500       0.000000
      0.479167       0.458333       0.000000
      0.458333       0.458333       0.000000
      0.479167       0.437500       0.000000
      0.500000       0.437500       0.000000
      0.500000       0.458333       0.000000
      0.479167       0.458333       0.000000
      0.416667       0.458333       0.000000
      0.437500       0.458333       0.000000
      0.437500       0.479167       0.000000
      0.416667       0.479167       0.000000
      0.437500       0.458333       0.000000
      0.458333       0.458333       0.000000
      0.458333       0.479167       0.000000
      0.437500       0.479167       0.000000
      0.416667       0.479167       0.000000
      0.437500       0.479167       0.000000
      0.437500       0.500000       0.000000
      0.416667       0.500000       0.000000
[...]
POINT_DATA  1152
VECTORS U float 
      0.000000       0.000000       0.000000
      0.000000       0.000000       0.000000
      0.000073      -0.000015       0.000000
      0.000054      -0.000015       0.000000
      0.000000       0.000000       0.000000
      0.000000       0.000000       0.000000
      0.000092       0.000015       0.000000
      0.000073      -0.000015       0.000000
      0.000054      -0.000015       0.000000
      0.000073      -0.000015       0.000000
      0.000081      -0.000040       0.000000
      0.000057      -0.000082       0.000000
      0.000073      -0.000015       0.000000
      0.000092       0.000015       0.000000
      0.000103       0.000019       0.000000
      0.000081      -0.000040       0.000000
      0.000000       0.000000       0.000000
      0.000000       0.000000       0.000000
      0.000109       0.000054       0.000000
      0.000092       0.000015       0.000000
      0.000000       0.000000       0.000000
      0.000000       0.000000       0.000000
      0.000119       0.000106       0.000000
      0.000109       0.000054       0.000000
      0.000092       0.000015       0.000000
      0.000109       0.000054       0.000000
      0.000126       0.000098       0.000000
      0.000103       0.000019       0.000000
      0.000109       0.000054       0.000000
      0.000119       0.000106       0.000000
      0.000139       0.000208       0.000000
      0.000126       0.000098       0.000000
      0.000000       0.000000       0.000000
      0.000000       0.000000       0.000000
      0.000110       0.000168       0.000000
      0.000119       0.000106       0.000000
      0.000000       0.000000       0.000000
      0.000000       0.000000       0.000000
      0.000076       0.000234       0.000000
      0.000110       0.000168       0.000000
      0.000119       0.000106       0.000000
      0.000110       0.000168       0.000000
      0.000124       0.000349       0.000000
      0.000139       0.000208       0.000000
      0.000110       0.000168       0.000000
      0.000076       0.000234       0.000000
      0.000063       0.000502       0.000000
      0.000124       0.000349       0.000000
      0.000057      -0.000082       0.000000
      0.000081      -0.000040       0.000000
      0.000010      -0.000069       0.000000
     -0.000012      -0.000157       0.000000
      0.000081      -0.000040       0.000000
      0.000103       0.000019       0.000000
      0.000031       0.000016       0.000000
      0.000010      -0.000069       0.000000
     -0.000012      -0.000157       0.000000
      0.000010      -0.000069       0.000000
     -0.000126      -0.000095       0.000000
     -0.000140      -0.000216       0.000000
      0.000010      -0.000069       0.000000
      0.000031       0.000016       0.000000
     -0.000114       0.000009       0.000000
     -0.000126      -0.000095       0.000000
      0.000103       0.000019       0.000000
      0.000126       0.000098       0.000000
      0.000055       0.000130       0.000000
      0.000031       0.000016       0.000000
      0.000126       0.000098       0.000000
      0.000139       0.000208       0.000000
      0.000075       0.000299       0.000000
      0.000055       0.000130       0.000000
      0.000031       0.000016       0.000000
      0.000055       0.000130       0.000000
     -0.000099       0.000145       0.000000
     -0.000114       0.000009       0.000000
      0.000055       0.000130       0.000000
      0.000075       0.000299       0.000000
     -0.000078       0.000361       0.000000
     -0.000099       0.000145       0.000000
      0.000139       0.000208       0.000000
      0.000124       0.000349       0.000000
      0.000062       0.000535       0.000000
      0.000075       0.000299       0.000000
      0.000124       0.000349       0.000000
      0.000063       0.000502       0.000000
     -0.000018       0.000806       0.000000
      0.000062       0.000535       0.000000
      0.000075       0.000299       0.000000
      0.000062       0.000535       0.000000
     -0.000076       0.000707       0.000000
     -0.000078       0.000361       0.000000
      0.000062       0.000535       0.000000
     -0.000018       0.000806       0.000000
     -0.000161       0.001151       0.000000
     -0.000076       0.000707       0.000000
     -0.000140      -0.000216       0.000000
     -0.000126      -0.000095       0.000000
     -0.000295      -0.000108       0.000000
     -0.000297      -0.000242       0.000000
     -0.000126      -0.000095       0.000000
     -0.000114       0.000009       0.000000
     -0.000303       0.000007       0.000000
     -0.000295      -0.000108       0.000000
     -0.000297      -0.000242       0.000000
     -0.000295      -0.000108       0.000000
     -0.000447      -0.000107       0.000000
     -0.000445      -0.000244       0.000000
     -0.000295      -0.000108       0.000000
     -0.000303       0.000007       0.000000
     -0.000475       0.000020       0.000000
     -0.000447      -0.000107       0.000000
     -0.000114       0.000009       0.000000
     -0.000099       0.000145       0.000000
     -0.000321       0.000151       0.000000
     -0.000303       0.000007       0.000000
     -0.000099       0.000145       0.000000
     -0.000078       0.000361       0.000000
     -0.000338       0.000388       0.000000
     -0.000321       0.000151       0.000000
     -0.000303       0.000007       0.000000
     -0.000321       0.000151       0.000000
     -0.000550       0.000177       0.000000
     -0.000475       0.000020       0.000000
     -0.000321       0.000151       0.000000
     -0.000338       0.000388       0.000000
     -0.000678       0.000423       0.000000
     -0.000550       0.000177       0.000000
     -0.000078       0.000361       0.000000
     -0.000071       0.000516       0.000000
     -0.000186       0.000551       0.000000
     -0.000194       0.000378       0.000000
     -0.000071       0.000516       0.000000
     -0.000076       0.000707       0.000000
     -0.000184       0.000776       0.000000
     -0.000186       0.000551       0.000000
     -0.000194       0.000378       0.000000
     -0.000186       0.000551       0.000000
     -0.000341       0.000571       0.000000
     -0.000338       0.000388       0.000000
     -0.000186       0.000551       0.000000
     -0.000184       0.000776       0.000000
     -0.000337       0.000823       0.000000
     -0.000341       0.000571       0.000000
     -0.000076       0.000707       0.000000
     -0.000102       0.000926       0.000000
     -0.000202       0.001051       0.000000
     -0.000184       0.000776       0.000000
     -0.000102       0.000926       0.000000
     -0.000161       0.001151       0.000000
     -0.000263       0.001347       0.000000
     -0.000202       0.001051       0.000000
     -0.000184       0.000776       0.000000
     -0.000202       0.001051       0.000000
     -0.000340       0.001165       0.000000
     -0.000337       0.000823       0.000000
     -0.000202       0.001051       0.000000
     -0.000263       0.001347       0.000000
     -0.000398       0.001569       0.000000
     -0.000340       0.001165       0.000000
     -0.000338       0.000388       0.000000
     -0.000341       0.000571       0.000000
     -0.000540       0.000583       0.000000
     -0.000507       0.000399       0.000000
     -0.000341       0.000571       0.000000
     -0.000337       0.000823       0.000000
     -0.000563       0.000845       0.000000
     -0.000540       0.000583       0.000000
     -0.000507       0.000399       0.000000
     -0.000540       0.000583       0.000000
     -0.000765       0.000610       0.000000
     -0.000678       0.000423       0.000000
     -0.000540       0.000583       0.000000
     -0.000563       0.000845       0.000000
     -0.000869       0.000871       0.000000
     -0.000765       0.000610       0.000000
     -0.000337       0.000823       0.000000
     -0.000335       0.000983       0.000000
     -0.000436       0.001007       0.000000
     -0.000439       0.000836       0.000000
     -0.000335       0.000983       0.000000
     -0.000340       0.001165       0.000000
     -0.000435       0.001211       0.000000
     -0.000436       0.001007       0.000000
     -0.000439       0.000836       0.000000
     -0.000436       0.001007       0.000000
     -0.000567       0.001020       0.000000
     -0.000563       0.000845       0.000000
     -0.000436       0.001007       0.000000
     -0.000435       0.001211       0.000000
     -0.000563       0.001242       0.000000
     -0.000567       0.001020       0.000000
     -0.000340       0.001165       0.000000
     -0.000359       0.001366       0.000000
     -0.000447       0.001448       0.000000
     -0.000435       0.001211       0.000000
     -0.000359       0.001366       0.000000
     -0.000398       0.001569       0.000000
     -0.000485       0.001698       0.000000
     -0.000447       0.001448       0.000000
     -0.000435       0.001211       0.000000
     -0.000447       0.001448       0.000000
     -0.000562       0.001525       0.000000
     -0.000563       0.001242       0.000000
     -0.000447       0.001448       0.000000
     -0.000485       0.001698       0.000000
     -0.000596       0.001851       0.000000
     -0.000562       0.001525       0.000000
     -0.000563       0.000845       0.000000
     -0.000567       0.001020       0.000000
     -0.000734       0.001028       0.000000
     -0.000711       0.000853       0.000000
     -0.000567       0.001020       0.000000
     -0.000563       0.001242       0.000000
     -0.000747       0.001255       0.000000
     -0.000734       0.001028       0.000000
     -0.000711       0.000853       0.000000
     -0.000734       0.001028       0.000000
     -0.000928       0.001046       0.000000
     -0.000869       0.000871       0.000000
     -0.000734       0.001028       0.000000
     -0.000747       0.001255       0.000000
     -0.000996       0.001271       0.000000
     -0.000928       0.001046       0.000000
     -0.000563       0.001242       0.000000
     -0.000560       0.001375       0.000000
     -0.000642       0.001391       0.000000
     -0.000646       0.001250       0.000000
     -0.000560       0.001375       0.000000
     -0.000562       0.001525       0.000000
     -0.000638       0.001556       0.000000
     -0.000642       0.001391       0.000000
     -0.000646       0.001250       0.000000
     -0.000642       0.001391       0.000000
     -0.000746       0.001399       0.000000
     -0.000747       0.001255       0.000000
     -0.000642       0.001391       0.000000
     -0.000638       0.001556       0.000000
     -0.000738       0.001577       0.000000
     -0.000746       0.001399       0.000000
     -0.000562       0.001525       0.000000
     -0.000572       0.001687       0.000000
     -0.000642       0.001746       0.000000
     -0.000638       0.001556       0.000000
     -0.000572       0.001687       0.000000
     -0.000596       0.001851       0.000000
     -0.000666       0.001945       0.000000
     -0.000642       0.001746       0.000000
     -0.000638       0.001556       0.000000
     -0.000642       0.001746       0.000000
     -0.000731       0.001803       0.000000
     -0.000738       0.001577       0.000000
     -0.000642       0.001746       0.000000
     -0.000666       0.001945       0.000000
     -0.000753       0.002062       0.000000
     -0.000731       0.001803       0.000000
     -0.000747       0.001255       0.000000
     -0.000746       0.001399       0.000000
     -0.000879       0.001403       0.000000
     -0.000866       0.001260       0.000000
     -0.000746       0.001399       0.000000
     -0.000738       0.001577       0.000000
     -0.000882       0.001585       0.000000
     -0.000879       0.001403       0.000000
     -0.000866       0.001260       0.000000
     -0.000879       0.001403       0.000000
     -0.001034       0.001414       0.000000
     -0.000996       0.001271       0.000000
     -0.000879       0.001403       0.000000
     -0.000882       0.001585       0.000000
     -0.001080       0.001596       0.000000
     -0.001034       0.001414       0.000000
     -0.000738       0.001577       0.000000
     -0.000731       0.001803       0.000000
     -0.000867       0.001844       0.000000
     -0.000882       0.001585       0.000000
     -0.000731       0.001803       0.000000
     -0.000753       0.002062       0.000000
     -0.000876       0.002233       0.000000
     -0.000867       0.001844       0.000000
     -0.000882       0.001585       0.000000
     -0.000867       0.001844       0.000000
     -0.001141       0.001865       0.000000
     -0.001080       0.001596       0.000000
     -0.000867       0.001844       0.000000
     -0.000876       0.002233       0.000000
     -0.001210       0.002693       0.000000
     -0.001141       0.001865       0.000000
      0.000000       0.000000       0.000000
      0.000000       0.000000       0.000000
      0.000017       0.000291       0.000000
      0.000076       0.000234       0.000000
      0.000000       0.000000       0.000000
      0.000000       0.000000       0.000000
     -0.000061       0.000336       0.000000
      0.000017       0.000291       0.000000
      0.000076       0.000234       0.000000
      0.000017       0.000291       0.000000
     -0.000046       0.000636       0.000000
      0.000063       0.000502       0.000000
      0.000017       0.000291       0.000000
     -0.000061       0.000336       0.000000
     -0.000188       0.000735       0.000000
     -0.000046       0.000636       0.000000
      0.000000       0.000000       0.000000
      0.000000       0.000000       0.000000
     -0.000150       0.000370       0.000000
     -0.000061       0.000336       0.000000
      0.000000       0.000000       0.000000
      0.000000       0.000000       0.000000
     -0.000252       0.000408       0.000000
     -0.000150       0.000370       0.000000
     -0.000061       0.000336       0.000000
     -0.000150       0.000370       0.000000
     -0.000348       0.000806       0.000000
     -0.000188       0.000735       0.000000
     -0.000150       0.000370       0.000000
     -0.000252       0.000408       0.000000
     -0.000523       0.000881       0.000000
     -0.000348       0.000806       0.000000
      0.000000       0.000000       0.000000
      0.000000       0.000000       0.000000
     -0.000392       0.000489       0.000000
     -0.000252       0.000408       0.000000
      0.000000       0.000000       0.000000
      0.000000       0.000000       0.000000
     -0.000606       0.000738       0.000000
     -0.000392       0.000489       0.000000
     -0.000252       0.000408       0.000000
     -0.000392       0.000489       0.000000
     -0.000719       0.001006       0.000000
     -0.000523       0.000881       0.000000
     -0.000392       0.000489       0.000000
     -0.000606       0.000738       0.000000
     -0.000924       0.001228       0.000000
     -0.000719       0.001006       0.000000
      0.000063       0.000502       0.000000
     -0.000046       0.000636       0.000000
     -0.000172       0.001039       0.000000
     -0.000018       0.000806       0.000000
     -0.000046       0.000636       0.000000
     -0.000188       0.000735       0.000000
     -0.000368       0.001193       0.000000
     -0.000172       0.001039       0.000000
     -0.000018       0.000806       0.000000
     -0.000172       0.001039       0.000000
     -0.000365       0.001515       0.000000
     -0.000161       0.001151       0.000000
     -0.000172       0.001039       0.000000
     -0.000368       0.001193       0.000000
     -0.000592       0.001702       0.000000
     -0.000365       0.001515       0.000000
     -0.000188       0.000735       0.000000
     -0.000348       0.000806       0.000000
     -0.000571       0.001289       0.000000
     -0.000368       0.001193       0.000000
     -0.000348       0.000806       0.000000
     -0.000523       0.000881       0.000000
     -0.000773       0.001372       0.000000
     -0.000571       0.001289       0.000000
     -0.000368       0.001193       0.000000
     -0.000571       0.001289       0.000000
     -0.000796       0.001788       0.000000
     -0.000592       0.001702       0.000000
     -0.000571       0.001289       0.000000
     -0.000773       0.001372       0.000000
     -0.000989       0.001853       0.000000
     -0.000796       0.001788       0.000000
     -0.000523       0.000881       0.000000
     -0.000719       0.001006       0.000000
     -0.000974       0.001490       0.000000
     -0.000773       0.001372       0.000000
     -0.000719       0.001006       0.000000
     -0.000924       0.001228       0.000000
     -0.001165       0.001669       0.000000
     -0.000974       0.001490       0.000000
     -0.000773       0.001372       0.000000
     -0.000974       0.001490       0.000000
     -0.001177       0.001941       0.000000
     -0.000989       0.001853       0.000000
     -0.000974       0.001490       0.000000
     -0.001165       0.001669       0.000000
     -0.001353       0.002073       0.000000
     -0.001177       0.001941       0.000000
     -0.000592       0.001702       0.000000
     -0.000796       0.001788       0.000000
     -0.000986       0.002269       0.000000
     -0.000835       0.002225       0.000000
     -0.000796       0.001788       0.000000
     -0.000989       0.001853       0.000000
     -0.001147       0.002310       0.000000
     -0.000986       0.002269       0.000000
     -0.000835       0.002225       0.000000
     -0.000986       0.002269       0.000000
     -0.001073       0.002717       0.000000
     -0.000969       0.002699       0.000000
     -0.000986       0.002269       0.000000
     -0.001147       0.002310       0.000000
     -0.001215       0.002745       0.000000
     -0.001073       0.002717       0.000000
     -0.000989       0.001853       0.000000
     -0.001177       0.001941       0.000000
     -0.001317       0.002366       0.000000
     -0.001147       0.002310       0.000000
     -0.001177       0.001941       0.000000
     -0.001353       0.002073       0.000000
     -0.001483       0.002446       0.000000
     -0.001317       0.002366       0.000000
     -0.001147       0.002310       0.000000
     -0.001317       0.002366       0.000000
     -0.001378       0.002777       0.000000
     -0.001215       0.002745       0.000000
     -0.001317       0.002366       0.000000
     -0.001483       0.002446       0.000000
     -0.001541       0.002803       0.000000
     -0.001378       0.002777       0.000000
     -0.000161       0.001151       0.000000
     -0.000253       0.001354       0.000000
     -0.000369       0.001606       0.000000
     -0.000263       0.001347       0.000000
     -0.000253       0.001354       0.000000
     -0.000365       0.001515       0.000000
     -0.000494       0.001790       0.000000
     -0.000369       0.001606       0.000000
     -0.000263       0.001347       0.000000
     -0.000369       0.001606       0.000000
     -0.000525       0.001905       0.000000
     -0.000398       0.001569       0.000000
     -0.000369       0.001606       0.000000
     -0.000494       0.001790       0.000000
     -0.000655       0.002093       0.000000
     -0.000525       0.001905       0.000000
     -0.000365       0.001515       0.000000
     -0.000480       0.001627       0.000000
     -0.000612       0.001901       0.000000
     -0.000494       0.001790       0.000000
     -0.000480       0.001627       0.000000
     -0.000592       0.001702       0.000000
     -0.000716       0.001965       0.000000
     -0.000612       0.001901       0.000000
     -0.000494       0.001790       0.000000
     -0.000612       0.001901       0.000000
     -0.000754       0.002181       0.000000