# vtk DataFile Version 2.0
time_10.vtk
ASCII
DATASET UNSTRUCTURED_GRID
POINTS  1152 float
      0.000000       0.000000       0.000000
      0.083333       0.000000       0.000000
      0.083333       0.083333       0.000000
      0.000000       0.083333       0.000000
      0.083333       0.000000       0.000000
      0.166667       0.000000       0.000000
      0.166667       0.083333       0.000000
      0.083333       0.083333       0.000000
      0.000000       0.083333       0.000000
      0.083333       0.083333       0.000000
      0.083333       0.166667       0.000000
      0.000000       0.166667       0.000000
      0.083333       0.083333       0.000000
      0.166667       0.083333       0.000000
      0.166667       0.166667       0.000000
      0.083333       0.166667       0.000000
      0.166667       0.000000       0.000000
      0.250000       0.000000       0.000000
      0.250000       0.083333       0.000000
      0.166667       0.083333       0.000000
      0.250000       0.000000       0.000000
      0.333333       0.000000       0.000000
      0.333333       0.083333       0.000000
      0.250000       0.083333       0.000000
      0.166667       0.083333       0.000000
      0.250000       0.083333       0.000000
      0.250000       0.166667       0.000000
      0.166667       0.166667       0.000000
      0.250000       0.083333       0.000000
      0.333333       0.083333       0.000000
      0.333333       0.166667       0.000000
      0.250000       0.166667       0.000000
      0.333333       0.000000       0.000000
      0.416667      -0.000000       0.000000
      0.416667       0.083333       0.000000
      0.333333       0.083333       0.000000
      0.416667      -0.000000       0.000000
      0.500000       0.000000       0.000000
      0.500000       0.083333       0.000000
      0.416667       0.083333       0.000000
      0.333333       0.083333       0.000000
      0.416667       0.083333       0.000000
      0.416667       0.166667       0.000000
      0.333333       0.166667       0.000000
      0.416667       0.083333       0.000000
      0.500000       0.083333       0.000000
      0.500000       0.166667       0.000000
      0.416667       0.166667       0.000000
      0.000000       0.166667       0.000000
      0.083333       0.166667       0.000000
      0.083333       0.250000       0.000000
      0.000000       0.250000       0.000000
      0.083333       0.166667       0.000000
      0.166667       0.166667       0.000000
      0.166667       0.250000       0.000000
      0.083333       0.250000       0.000000
      0.000000       0.250000       0.000000
      0.083333       0.250000       0.000000
      0.083333       0.333333       0.000000
      0.000000       0.333333       0.000000
      0.083333       0.250000       0.000000
      0.166667       0.250000       0.000000
      0.166667       0.333333       0.000000
      0.083333       0.333333       0.000000
      0.166667       0.166667       0.000000
      0.250000       0.166667       0.000000
      0.250000       0.250000       0.000000
      0.166667       0.250000       0.000000
      0.250000       0.166667       0.000000
      0.333333       0.166667       0.000000
      0.333333       0.250000       0.000000
      0.250000       0.250000       0.000000
      0.166667       0.250000       0.000000
      0.250000       0.250000       0.000000
      0.250000       0.333333       0.000000
      0.166667       0.333333       0.000000
      0.250000       0.250000       0.000000
      0.333333       0.250000       0.000000
      0.333333       0.333333       0.000000
      0.250000       0.333333       0.000000
      0.333333       0.166667       0.000000
      0.416667       0.166667       0.000000
      0.416667       0.250000       0.000000
      0.333333       0.250000       0.000000
      0.416667       0.166667       0.000000
      0.500000       0.166667       0.000000
      0.500000       0.250000       0.000000
      0.416667       0.250000       0.000000
      0.333333       0.250000       0.000000
      0.416667       0.250000       0.000000
      0.416667       0.333333       0.000000
      0.333333       0.333333       0.000000
      0.416667       0.250000       0.000000
      0.500000       0.250000       0.000000
      0.500000       0.333333       0.000000
      0.416667       0.333333       0.000000
      0.000000       0.333333       0.000000
      0.083333       0.333333       0.000000
      0.083333       0.416667       0.000000
     -0.000000       0.416667       0.000000
      0.083333       0.333333       0.000000
      0.166667       0.333333       0.000000
      0.166667       0.416667       0.000000
      0.083333       0.416667       0.000000
     -0.000000       0.416667       0.000000
      0.083333       0.416667       0.000000
      0.083333       0.500000       0.000000
      0.000000       0.500000       0.000000
      0.083333       0.416667       0.000000
      0.166667       0.416667       0.000000
      0.166667       0.500000       0.000000
      0.083333       0.500000       0.000000
      0.166667       0.333333       0.000000
      0.250000       0.333333       0.000000
      0.250000       0.416667       0.000000
      0.166667       0.416667       0.000000
      0.250000       0.333333       0.000000
      0.333333       0.333333       0.000000
      0.333333       0.416667       0.000000
      0.250000       0.416667       0.000000
      0.166667       0.416667       0.000000
      0.250000       0.416667       0.000000
      0.250000       0.500000       0.000000
      0.166667       0.500000       0.000000
      0.250000       0.416667       0.000000
      0.333333       0.416667       0.000000
      0.333333       0.500000       0.000000
      0.250000       0.500000       0.000000
      0.333333       0.333333       0.000000
      0.375000       0.333333       0.000000
      0.375000       0.375000       0.000000
      0.333333       0.375000       0.000000
      0.375000       0.333333       0.000000
      0.416667       0.333333       0.000000
      0.416667       0.375000       0.000000
      0.375000       0.375000       0.000000
      0.333333       0.375000       0.000000
      0.375000       0.375000       0.000000
      0.375000       0.416667       0.000000
      0.333333       0.416667       0.000000
      0.375000       0.375000       0.000000
      0.416667       0.375000       0.000000
      0.416667       0.416667       0.000000
      0.375000       0.416667       0.000000
      0.416667       0.333333       0.000000
      0.458333       0.333333       0.000000
      0.458333       0.375000       0.000000
      0.416667       0.375000       0.000000
      0.458333       0.333333       0.000000
      0.500000       0.333333       0.000000
      0.500000       0.375000       0.000000
      0.458333       0.375000       0.000000
      0.416667       0.375000       0.000000
      0.458333       0.375000       0.000000
      0.458333       0.416667       0.000000
      0.416667       0.416667       0.000000
      0.458333       0.375000       0.000000
      0.500000       0.375000       0.000000
      0.500000       0.416667       0.000000
      0.458333       0.416667       0.000000
      0.333333       0.416667       0.000000
      0.375000       0.416667       0.000000
      0.375000       0.458333       0.000000
      0.333333       0.458333       0.000000
      0.375000       0.416667       0.000000
      0.416667       0.416667       0.000000
      0.416667       0.458333       0.000000
      0.375000       0.458333       0.000000
      0.333333       0.458333       0.000000
      0.375000       0.458333       0.000000
      0.375000       0.500000       0.000000
      0.333333       0.500000       0.000000
      0.375000       0.458333       0.000000
      0.416667       0.458333       0.000000
      0.416667       0.500000       0.000000
      0.375000       0.500000       0.000000
      0.416667       0.416667       0.000000
      0.437500       0.416667       0.000000
      0.437500       0.437500       0.000000
      0.416667       0.437500       0.000000
      0.437500       0.416667       0.000000
      0.458333       0.416667       0.000000
      0.458333       0.437500       0.000000
      0.437500       0.437500       0.000000
      0.416667       0.437500       0.000000
      0.437500       0.437500       0.000000
      0.437500       0.458333       0.000000
      0.416667       0.458333       0.000000
      0.437500       0.437500       0.000000
      0.458333       0.437500       0.000000
      0.458333       0.458333       0.000000
      0.437500       0.458333       0.000000
      0.458333       0.416667       0.000000
      0.479167       0.416667       0.000000
      0.479167       0.437500       0.000000
      0.458333       0.437500       0.000000
      0.479167       0.416667       0.000000
      0.500000       0.416667       0.000000
      0.500000       0.437500       0.000000
      0.479167       0.437500       0.000000
      0.458333       0.437500       0.000000
      0.479167       0.437500       0.000000
      0.479167       0.458333       0.000000
      0.458333       0.458333       0.000000
      0.479167       0.437500       0.000000
      0.500000       0.437500       0.000000
      0.500000       0.458333       0.000000
      0.479167       0.458333       0.000000
      0.416667       0.458333       0.000000
      0.437500       0.458333       0.000000
      0.437500       0.479167       0.000000
      0.416667       0.479167       0.000000
      0.437500       0.458333       0.000000
      0.458333       0.458333       0.000000
      0.458333       0.479167       0.000000
      0.437500       0.479167       0.000000
      0.416667       0.479167       0.000000
      0.437500       0.479167       0.000000
      0.437500       0.500000       0.000000
      0.416667       0.500000       0.000000
[...]
POINT_DATA  1152
VECTORS U float 
      0.000000       0.000000       0.000000
      0.000000       0.000000       0.000000
      0.000072      -0.000017       0.000000
      0.000052      -0.000019       0.000000
      0.000000       0.000000       0.000000
      0.000000       0.000000       0.000000
      0.000093       0.000014       0.000000
      0.000072      -0.000017       0.000000
      0.000052      -0.000019       0.000000
      0.000072      -0.000017       0.000000
      0.000077      -0.000045       0.000000
      0.000052      -0.000090       0.000000
      0.000072      -0.000017       0.000000
      0.000093       0.000014       0.000000
      0.000101       0.000016       0.000000
      0.000077      -0.000045       0.000000
      0.000000       0.000000       0.000000
      0.000000       0.000000       0.000000
      0.000111       0.000055       0.000000
      0.000093       0.000014       0.000000
      0.000000       0.000000       0.000000
      0.000000       0.000000       0.000000
      0.000122       0.000108       0.000000
      0.000111       0.000055       0.000000
      0.000093       0.000014       0.000000
      0.000111       0.000055       0.000000
      0.000125       0.000098       0.000000
      0.000101       0.000016       0.000000
      0.000111       0.000055       0.000000
      0.000122       0.000108       0.000000
      0.000141       0.000212       0.000000
      0.000125       0.000098       0.000000
      0.000000       0.000000       0.000000
      0.000000       0.000000       0.000000
      0.000114       0.000173       0.000000
      0.000122       0.000108       0.000000
      0.000000       0.000000       0.000000
      0.000000       0.000000       0.000000
      0.000080       0.000242       0.000000
      0.000114       0.000173       0.000000
      0.000122       0.000108       0.000000
      0.000114       0.000173       0.000000
      0.000127       0.000359       0.000000
      0.000141       0.000212       0.000000
      0.000114       0.000173       0.000000
      0.000080       0.000242       0.000000
      0.000066       0.000520       0.000000
      0.000127       0.000359       0.000000
      0.000052      -0.000090       0.000000
      0.000077      -0.000045       0.000000
      0.000002      -0.000076       0.000000
     -0.000022      -0.000169       0.000000
      0.000077      -0.000045       0.000000
      0.000101       0.000016       0.000000
      0.000023       0.000012       0.000000
      0.000002      -0.000076       0.000000
     -0.000022      -0.000169       0.000000
      0.000002      -0.000076       0.000000
     -0.000142      -0.000104       0.000000
     -0.000157      -0.000230       0.000000
      0.000002      -0.000076       0.000000
      0.000023       0.000012       0.000000
     -0.000130       0.000004       0.000000
     -0.000142      -0.000104       0.000000
      0.000101       0.000016       0.000000
      0.000125       0.000098       0.000000
      0.000049       0.000129       0.000000
      0.000023       0.000012       0.000000
      0.000125       0.000098       0.000000
      0.000141       0.000212       0.000000
      0.000070       0.000302       0.000000
      0.000049       0.000129       0.000000
      0.000023       0.000012       0.000000
      0.000049       0.000129       0.000000
     -0.000114       0.000143       0.000000
     -0.000130       0.000004       0.000000
      0.000049       0.000129       0.000000
      0.000070       0.000302       0.000000
     -0.000094       0.000365       0.000000
     -0.000114       0.000143       0.000000
      0.000141       0.000212       0.000000
      0.000127       0.000359       0.000000
      0.000059       0.000547       0.000000
      0.000070       0.000302       0.000000
      0.000127       0.000359       0.000000
      0.000066       0.000520       0.000000
     -0.000020       0.000833       0.000000
      0.000059       0.000547       0.000000
      0.000070       0.000302       0.000000
      0.000059       0.000547       0.000000
     -0.000089       0.000720       0.000000
     -0.000094       0.000365       0.000000
      0.000059       0.000547       0.000000
     -0.000020       0.000833       0.000000
     -0.000173       0.001186       0.000000
     -0.000089       0.000720       0.000000
     -0.000157      -0.000230       0.000000
     -0.000142      -0.000104       0.000000
     -0.000318      -0.000118       0.000000
     -0.000320      -0.000257       0.000000
     -0.000142      -0.000104       0.000000
     -0.000130       0.000004       0.000000
     -0.000327       0.000002       0.000000
     -0.000318      -0.000118       0.000000
     -0.000320      -0.000257       0.000000
     -0.000318      -0.000118       0.000000
     -0.000476      -0.000117       0.000000
     -0.000474      -0.000259       0.000000
     -0.000318      -0.000118       0.000000
     -0.000327       0.000002       0.000000
     -0.000505       0.000015       0.000000
     -0.000476      -0.000117       0.000000
     -0.000130       0.000004       0.000000
     -0.000114       0.000143       0.000000
     -0.000346       0.000150       0.000000
     -0.000327       0.000002       0.000000
     -0.000114       0.000143       0.000000
     -0.000094       0.000365       0.000000
     -0.000366       0.000391       0.000000
     -0.000346       0.000150       0.000000
     -0.000327       0.000002       0.000000
     -0.000346       0.000150       0.000000
     -0.000582       0.000176       0.000000
     -0.000505       0.000015       0.000000
     -0.000346       0.000150       0.000000
     -0.000366       0.000391       0.000000
     -0.000716       0.000429       0.000000
     -0.000582       0.000176       0.000000
     -0.000094       0.000365       0.000000
     -0.000086       0.000524       0.000000
     -0.000208       0.000558       0.000000
     -0.000215       0.000381       0.000000
     -0.000086       0.000524       0.000000
     -0.000089       0.000720       0.000000
     -0.000205       0.000789       0.000000
     -0.000208       0.000558       0.000000
     -0.000215       0.000381       0.000000
     -0.000208       0.000558       0.000000
     -0.000370       0.000578       0.000000
     -0.000366       0.000391       0.000000
     -0.000208       0.000558       0.000000
     -0.000205       0.000789       0.000000
     -0.000367       0.000835       0.000000
     -0.000370       0.000578       0.000000
     -0.000089       0.000720       0.000000
     -0.000115       0.000948       0.000000
     -0.000222       0.001073       0.000000
     -0.000205       0.000789       0.000000
     -0.000115       0.000948       0.000000
     -0.000173       0.001186       0.000000
     -0.000282       0.001384       0.000000
     -0.000222       0.001073       0.000000
     -0.000205       0.000789       0.000000
     -0.000222       0.001073       0.000000
     -0.000371       0.001184       0.000000
     -0.000367       0.000835       0.000000
     -0.000222       0.001073       0.000000
     -0.000282       0.001384       0.000000
     -0.000426       0.001605       0.000000
     -0.000371       0.001184       0.000000
     -0.000366       0.000391       0.000000
     -0.000370       0.000578       0.000000
     -0.000576       0.000592       0.000000
     -0.000540       0.000403       0.000000
     -0.000370       0.000578       0.000000
     -0.000367       0.000835       0.000000
     -0.000602       0.000857       0.000000
     -0.000576       0.000592       0.000000
     -0.000540       0.000403       0.000000
     -0.000576       0.000592       0.000000
     -0.000805       0.000620       0.000000
     -0.000716       0.000429       0.000000
     -0.000576       0.000592       0.000000
     -0.000602       0.000857       0.000000
     -0.000913       0.000885       0.000000
     -0.000805       0.000620       0.000000
     -0.000367       0.000835       0.000000
     -0.000367       0.000997       0.000000
     -0.000473       0.001021       0.000000
     -0.000474       0.000848       0.000000
     -0.000367       0.000997       0.000000
     -0.000371       0.001184       0.000000
     -0.000473       0.001227       0.000000
     -0.000473       0.001021       0.000000
     -0.000474       0.000848       0.000000
     -0.000473       0.001021       0.000000
     -0.000608       0.001034       0.000000
     -0.000602       0.000857       0.000000
     -0.000473       0.001021       0.000000
     -0.000473       0.001227       0.000000
     -0.000607       0.001257       0.000000
     -0.000608       0.001034       0.000000
     -0.000371       0.001184       0.000000
     -0.000389       0.001391       0.000000
     -0.000483       0.001470       0.000000
     -0.000473       0.001227       0.000000
     -0.000389       0.001391       0.000000
     -0.000426       0.001605       0.000000
     -0.000519       0.001731       0.000000
     -0.000483       0.001470       0.000000
     -0.000473       0.001227       0.000000
     -0.000483       0.001470       0.000000
     -0.000606       0.001541       0.000000
     -0.000607       0.001257       0.000000
     -0.000483       0.001470       0.000000
     -0.000519       0.001731       0.000000
     -0.000638       0.001879       0.000000
     -0.000606       0.001541       0.000000
     -0.000602       0.000857       0.000000
     -0.000608       0.001034       0.000000
     -0.000778       0.001043       0.000000
     -0.000752       0.000867       0.000000
     -0.000608       0.001034       0.000000
     -0.000607       0.001257       0.000000
     -0.000794       0.001270       0.000000
     -0.000778       0.001043       0.000000
     -0.000752       0.000867       0.000000
     -0.000778       0.001043       0.000000
     -0.000974       0.001062       0.000000
     -0.000913       0.000885       0.000000
     -0.000778       0.001043       0.000000
     -0.000794       0.001270       0.000000
     -0.001043       0.001287       0.000000
     -0.000974       0.001062       0.000000
     -0.000607       0.001257       0.000000
     -0.000605       0.001391       0.000000
     -0.000689       0.001406       0.000000
     -0.000692       0.001265       0.000000
     -0.000605       0.001391       0.000000
     -0.000606       0.001541       0.000000
     -0.000686       0.001571       0.000000
     -0.000689       0.001406       0.000000
     -0.000692       0.001265       0.000000
     -0.000689       0.001406       0.000000
     -0.000795       0.001413       0.000000
     -0.000794       0.001270       0.000000
     -0.000689       0.001406       0.000000
     -0.000686       0.001571       0.000000
     -0.000790       0.001590       0.000000
     -0.000795       0.001413       0.000000
     -0.000606       0.001541       0.000000
     -0.000616       0.001707       0.000000
     -0.000690       0.001763       0.000000
     -0.000686       0.001571       0.000000
     -0.000616       0.001707       0.000000
     -0.000638       0.001879       0.000000
     -0.000712       0.001970       0.000000
     -0.000690       0.001763       0.000000
     -0.000686       0.001571       0.000000
     -0.000690       0.001763       0.000000
     -0.000784       0.001816       0.000000
     -0.000790       0.001590       0.000000
     -0.000690       0.001763       0.000000
     -0.000712       0.001970       0.000000
     -0.000803       0.002085       0.000000
     -0.000784       0.001816       0.000000
     -0.000794       0.001270       0.000000
     -0.000795       0.001413       0.000000
     -0.000928       0.001418       0.000000
     -0.000913       0.001275       0.000000
     -0.000795       0.001413       0.000000
     -0.000790       0.001590       0.000000
     -0.000935       0.001598       0.000000
     -0.000928       0.001418       0.000000
     -0.000913       0.001275       0.000000
     -0.000928       0.001418       0.000000
     -0.001083       0.001430       0.000000
     -0.001043       0.001287       0.000000
     -0.000928       0.001418       0.000000
     -0.000935       0.001598       0.000000
     -0.001131       0.001611       0.000000
     -0.001083       0.001430       0.000000
     -0.000790       0.001590       0.000000
     -0.000784       0.001816       0.000000
     -0.000922       0.001856       0.000000
     -0.000935       0.001598       0.000000
     -0.000784       0.001816       0.000000
     -0.000803       0.002085       0.000000
     -0.000933       0.002267       0.000000
     -0.000922       0.001856       0.000000
     -0.000935       0.001598       0.000000
     -0.000922       0.001856       0.000000
     -0.001201       0.001883       0.000000
     -0.001131       0.001611       0.000000
     -0.000922       0.001856       0.000000
     -0.000933       0.002267       0.000000
     -0.001325       0.002874       0.000000
     -0.001201       0.001883       0.000000
      0.000000       0.000000       0.000000
      0.000000       0.000000       0.000000
      0.000019       0.000304       0.000000
      0.000080       0.000242       0.000000
      0.000000       0.000000       0.000000
      0.000000       0.000000       0.000000
     -0.000063       0.000353       0.000000
      0.000019       0.000304       0.000000
      0.000080       0.000242       0.000000
      0.000019       0.000304       0.000000
     -0.000047       0.000665       0.000000
      0.000066       0.000520       0.000000
      0.000019       0.000304       0.000000
     -0.000063       0.000353       0.000000
     -0.000197       0.000774       0.000000
     -0.000047       0.000665       0.000000
      0.000000       0.000000       0.000000
      0.000000       0.000000       0.000000
     -0.000157       0.000391       0.000000
     -0.000063       0.000353       0.000000
      0.000000       0.000000       0.000000
      0.000000       0.000000       0.000000
     -0.000266       0.000434       0.000000
     -0.000157       0.000391       0.000000
     -0.000063       0.000353       0.000000
     -0.000157       0.000391       0.000000
     -0.000367       0.000854       0.000000
     -0.000197       0.000774       0.000000
     -0.000157       0.000391       0.000000
     -0.000266       0.000434       0.000000
     -0.000555       0.000939       0.000000
     -0.000367       0.000854       0.000000
      0.000000       0.000000       0.000000
      0.000000       0.000000       0.000000
     -0.000416       0.000524       0.000000
     -0.000266       0.000434       0.000000
      0.000000       0.000000       0.000000
      0.000000       0.000000       0.000000
     -0.000646       0.000792       0.000000
     -0.000416       0.000524       0.000000
     -0.000266       0.000434       0.000000
     -0.000416       0.000524       0.000000
     -0.000765       0.001077       0.000000
     -0.000555       0.000939       0.000000
     -0.000416       0.000524       0.000000
     -0.000646       0.000792       0.000000
     -0.000984       0.001316       0.000000
     -0.000765       0.001077       0.000000
      0.000066       0.000520       0.000000
     -0.000047       0.000665       0.000000
     -0.000180       0.001086       0.000000
     -0.000020       0.000833       0.000000
     -0.000047       0.000665       0.000000
     -0.000197       0.000774       0.000000
     -0.000388       0.001259       0.000000
     -0.000180       0.001086       0.000000
     -0.000020       0.000833       0.000000
     -0.000180       0.001086       0.000000
     -0.000384       0.001586       0.000000
     -0.000173       0.001186       0.000000
     -0.000180       0.001086       0.000000
     -0.000388       0.001259       0.000000
     -0.000629       0.001802       0.000000
     -0.000384       0.001586       0.000000
     -0.000197       0.000774       0.000000
     -0.000367       0.000854       0.000000
     -0.000606       0.001369       0.000000
     -0.000388       0.001259       0.000000
     -0.000367       0.000854       0.000000
     -0.000555       0.000939       0.000000
     -0.000824       0.001464       0.000000
     -0.000606       0.001369       0.000000
     -0.000388       0.001259       0.000000
     -0.000606       0.001369       0.000000
     -0.000851       0.001903       0.000000
     -0.000629       0.001802       0.000000
     -0.000606       0.001369       0.000000
     -0.000824       0.001464       0.000000
     -0.001059       0.001978       0.000000
     -0.000851       0.001903       0.000000
     -0.000555       0.000939       0.000000
     -0.000765       0.001077       0.000000
     -0.001040       0.001593       0.000000
     -0.000824       0.001464       0.000000
     -0.000765       0.001077       0.000000
     -0.000984       0.001316       0.000000
     -0.001243       0.001787       0.000000
     -0.001040       0.001593       0.000000
     -0.000824       0.001464       0.000000
     -0.001040       0.001593       0.000000
     -0.001260       0.002074       0.000000
     -0.001059       0.001978       0.000000
     -0.001040       0.001593       0.000000
     -0.001243       0.001787       0.000000
     -0.001447       0.002217       0.000000
     -0.001260       0.002074       0.000000
     -0.000629       0.001802       0.000000
     -0.000851       0.001903       0.000000
     -0.001060       0.002420       0.000000
     -0.000897       0.002367       0.000000
     -0.000851       0.001903       0.000000
     -0.001059       0.001978       0.000000
     -0.001231       0.002465       0.000000
     -0.001060       0.002420       0.000000
     -0.000897       0.002367       0.000000
     -0.001060       0.002420       0.000000
     -0.001156       0.002899       0.000000
     -0.001048       0.002879       0.000000
     -0.001060       0.002420       0.000000
     -0.001231       0.002465       0.000000
     -0.001306       0.002928       0.000000
     -0.001156       0.002899       0.000000
     -0.001059       0.001978       0.000000
     -0.001260       0.002074       0.000000
     -0.001412       0.002526       0.000000
     -0.001231       0.002465       0.000000
     -0.001260       0.002074       0.000000
     -0.001447       0.002217       0.000000
     -0.001587       0.002612       0.000000
     -0.001412       0.002526       0.000000
     -0.001231       0.002465       0.000000
     -0.001412       0.002526       0.000000
     -0.001478       0.002961       0.000000
     -0.001306       0.002928       0.000000
     -0.001412       0.002526       0.000000
     -0.001587       0.002612       0.000000
     -0.001650       0.002988       0.000000
     -0.001478       0.002961       0.000000
     -0.000173       0.001186       0.000000
     -0.000267       0.001406       0.000000
     -0.000390       0.001667       0.000000
     -0.000282       0.001384       0.000000
     -0.000267       0.001406       0.000000
     -0.000384       0.001586       0.000000
     -0.000522       0.001877       0.000000
     -0.000390       0.001667       0.000000
     -0.000282       0.001384       0.000000
     -0.000390       0.001667       0.000000
     -0.000555       0.001979       0.000000
     -0.000426       0.001605       0.000000
     -0.000390       0.001667       0.000000
     -0.000522       0.001877       0.000000
     -0.000696       0.002204       0.000000
     -0.000555       0.001979       0.000000
     -0.000384       0.001586       0.000000
     -0.000508       0.001715       0.000000
     -0.000651       0.002009       0.000000
     -0.000522       0.001877       0.000000
     -0.000508       0.001715       0.000000
     -0.000629       0.001802       0.000000
     -0.000765       0.002086       0.000000
     -0.000651       0.002009       0.000000
     -0.000522       0.001877       0.000000
     -0.000651       0.002009       0.000000
     -0.000807       0.002313       0.000000