# vtk DataFile Version 2.0
time_10.vtk
ASCII
DATASET UNSTRUCTURED_GRID
POINTS  1608 float
      0.000000       0.000000       0.000000
      0.083333       0.000000       0.000000
      0.083333       0.083333       0.000000
      0.000000       0.083333       0.000000
      0.083333       0.000000       0.000000
      0.166667       0.000000       0.000000
      0.166667       0.083333       0.000000
      0.083333       0.083333       0.000000
      0.000000       0.083333       0.000000
      0.083333       0.083333       0.000000
      0.083333       0.166667       0.000000
      0.000000       0.166667       0.000000
      0.083333       0.083333       0.000000
      0.166667       0.083333       0.000000
      0.166667       0.166667       0.000000
      0.083333       0.166667       0.000000
      0.166667       0.000000       0.000000
      0.250000       0.000000       0.000000
      0.250000       0.083333       0.000000
      0.166667       0.083333       0.000000
      0.250000       0.000000       0.000000
      0.333333       0.000000       0.000000
      0.333333       0.083333       0.000000
      0.250000       0.083333       0.000000
      0.166667       0.083333       0.000000
      0.250000       0.083333       0.000000
      0.250000       0.166667       0.000000
      0.166667       0.166667       0.000000
      0.250000       0.083333       0.000000
      0.333333       0.083333       0.000000
      0.333333       0.166667       0.000000
      0.250000       0.166667       0.000000
      0.333333       0.000000       0.000000
      0.416667      -0.000000       0.000000
      0.416667       0.083333       0.000000
      0.333333       0.083333       0.000000
      0.416667      -0.000000       0.000000
      0.500000       0.000000       0.000000
      0.500000       0.083333       0.000000
      0.416667       0.083333       0.000000
      0.333333       0.083333       0.000000
      0.416667       0.083333       0.000000
      0.416667       0.166667       0.000000
      0.333333       0.166667       0.000000
      0.416667       0.083333       0.000000
      0.500000       0.083333       0.000000
      0.500000       0.166667       0.000000
      0.416667       0.166667       0.000000
      0.000000       0.166667       0.000000
      0.083333       0.166667       0.000000
      0.083333       0.250000       0.000000
      0.000000       0.250000       0.000000
      0.083333       0.166667       0.000000
      0.166667       0.166667       0.000000
      0.166667       0.250000       0.000000
      0.083333       0.250000       0.000000
      0.000000       0.250000       0.000000
      0.083333       0.250000       0.000000
      0.083333       0.333333       0.000000
      0.000000       0.333333       0.000000
      0.083333       0.250000       0.000000
      0.166667       0.250000       0.000000
      0.166667       0.333333       0.000000
      0.083333       0.333333       0.000000
      0.166667       0.166667       0.000000
      0.250000       0.166667       0.000000
      0.250000       0.250000       0.000000
      0.166667       0.250000       0.000000
      0.250000       0.166667       0.000000
      0.333333       0.166667       0.000000
      0.333333       0.250000       0.000000
      0.250000       0.250000       0.000000
      0.166667       0.250000       0.000000
      0.250000       0.250000       0.000000
      0.250000       0.333333       0.000000
      0.166667       0.333333       0.000000
      0.250000       0.250000       0.000000
      0.333333       0.250000       0.000000
      0.333333       0.333333       0.000000
      0.250000       0.333333       0.000000
      0.333333       0.166667       0.000000
      0.416667       0.166667       0.000000
      0.416667       0.250000       0.000000
      0.333333       0.250000       0.000000
      0.416667       0.166667       0.000000
      0.500000       0.166667       0.000000
      0.500000       0.250000       0.000000
      0.416667       0.250000       0.000000
      0.333333       0.250000       0.000000
      0.416667       0.250000       0.000000
      0.416667       0.333333       0.000000
      0.333333       0.333333       0.000000
      0.416667       0.250000       0.000000
      0.500000       0.250000       0.000000
      0.500000       0.333333       0.000000
      0.416667       0.333333       0.000000
      0.000000       0.333333       0.000000
      0.083333       0.333333       0.000000
      0.083333       0.416667       0.000000
     -0.000000       0.416667       0.000000
      0.083333       0.333333       0.000000
      0.166667       0.333333       0.000000
      0.166667       0.416667       0.000000
      0.083333       0.416667       0.000000
     -0.000000       0.416667       0.000000
      0.083333       0.416667       0.000000
      0.083333       0.500000       0.000000
      0.000000       0.500000       0.000000
      0.083333       0.416667       0.000000
      0.166667       0.416667       0.000000
      0.166667       0.500000       0.000000
      0.083333       0.500000       0.000000
      0.166667       0.333333       0.000000
      0.250000       0.333333       0.000000
      0.250000       0.416667       0.000000
      0.166667       0.416667       0.000000
      0.250000       0.333333       0.000000
      0.333333       0.333333       0.000000
      0.333333       0.416667       0.000000
      0.250000       0.416667       0.000000
      0.166667       0.416667       0.000000
      0.250000       0.416667       0.000000
      0.250000       0.500000       0.000000
      0.166667       0.500000       0.000000
      0.250000       0.416667       0.000000
      0.333333       0.416667       0.000000
      0.333333       0.500000       0.000000
      0.250000       0.500000       0.000000
      0.333333       0.333333       0.000000
      0.375000       0.333333       0.000000
      0.375000       0.375000       0.000000
      0.333333       0.375000       0.000000
      0.375000       0.333333       0.000000
      0.416667       0.333333       0.000000
      0.416667       0.375000       0.000000
      0.375000       0.375000       0.000000
      0.333333       0.375000       0.000000
      0.375000       0.375000       0.000000
      0.375000       0.416667       0.000000
      0.333333       0.416667       0.000000
      0.375000       0.375000       0.000000
      0.416667       0.375000       0.000000
      0.416667       0.416667       0.000000
      0.375000       0.416667       0.000000
      0.416667       0.333333       0.000000
      0.458333       0.333333       0.000000
      0.458333       0.375000       0.000000
      0.416667       0.375000       0.000000
      0.458333       0.333333       0.000000
      0.500000       0.333333       0.000000
      0.500000       0.375000       0.000000
      0.458333       0.375000       0.000000
      0.416667       0.375000       0.000000
      0.458333       0.375000       0.000000
      0.458333       0.416667       0.000000
      0.416667       0.416667       0.000000
      0.458333       0.375000       0.000000
      0.500000       0.375000       0.000000
      0.500000       0.416667       0.000000
      0.458333       0.416667       0.000000
      0.333333       0.416667       0.000000
      0.375000       0.416667       0.000000
      0.375000       0.458333       0.000000
      0.333333       0.458333       0.000000
      0.375000       0.416667       0.000000
      0.416667       0.416667       0.000000
      0.416667       0.458333       0.000000
      0.375000       0.458333       0.000000
      0.333333       0.458333       0.000000
      0.375000       0.458333       0.000000
      0.375000       0.500000       0.000000
      0.333333       0.500000       0.000000
      0.375000       0.458333       0.000000
      0.416667       0.458333       0.000000
      0.416667       0.500000       0.000000
      0.375000       0.500000       0.000000
      0.416667       0.416667       0.000000
      0.437500       0.416667       0.000000
      0.437500       0.437500       0.000000
      0.416667       0.437500       0.000000
      0.437500       0.416667       0.000000
      0.458333       0.416667       0.000000
      0.458333       0.437500       0.000000
      0.437500       0.437500       0.000000
      0.416667       0.437500       0.000000
      0.437500       0.437500       0.000000
      0.437500       0.458333       0.000000
      0.416667       0.458333       0.000000
      0.437500       0.437500       0.000000
      0.458333       0.437500       0.000000
      0.458333       0.458333       0.000000
      0.437500       0.458333       0.000000
      0.458333       0.416667       0.000000
      0.479167       0.416667       0.000000
      0.479167       0.437500       0.000000
      0.458333       0.437500       0.000000
      0.479167       0.416667       0.000000
      0.500000       0.416667       0.000000
      0.500000       0.437500       0.000000
      0.479167       0.437500       0.000000
      0.458333       0.437500       0.000000
      0.479167       0.437500       0.000000
      0.479167       0.458333       0.000000
      0.458333       0.458333       0.000000
      0.479167       0.437500       0.000000
      0.500000       0.437500       0.000000
      0.500000       0.458333       0.000000
      0.479167       0.458333       0.000000
      0.416667       0.458333       0.000000
      0.437500       0.458333       0.000000
      0.437500       0.479167       0.000000
      0.416667       0.479167       0.000000
      0.437500       0.458333       0.000000
      0.458333       0.458333       0.000000
      0.458333       0.479167       0.000000
      0.437500       0.479167       0.000000
      0.416667       0.479167       0.000000
      0.437500       0.479167       0.000000
      0.437500       0.500000       0.000000
      0.416667       0.500000       0.000000
[...]
POINT_DATA  1608
VECTORS U float 
      0.000000       0.000000       0.000000
      0.000000       0.000000       0.000000
     -0.000005      -0.000033       0.000000
     -0.000026      -0.000059       0.000000
      0.000000       0.000000       0.000000
      0.000000       0.000000       0.000000
      0.000012      -0.000013       0.000000
     -0.000005      -0.000033       0.000000
     -0.000026      -0.000059       0.000000
     -0.000005      -0.000033       0.000000
     -0.000045      -0.000071       0.000000
     -0.000066      -0.000119       0.000000
     -0.000005      -0.000033       0.000000
      0.000012      -0.000013       0.000000
     -0.000026      -0.000034       0.000000
     -0.000045      -0.000071       0.000000
      0.000000       0.000000       0.000000
      0.000000       0.000000       0.000000
      0.000029       0.000007       0.000000
      0.000012      -0.000013       0.000000
      0.000000       0.000000       0.000000
      0.000000       0.000000       0.000000
      0.000049       0.000033       0.000000
      0.000029       0.000007       0.000000
      0.000012      -0.000013       0.000000
      0.000029       0.000007       0.000000
     -0.000003       0.000003       0.000000
     -0.000026      -0.000034       0.000000
      0.000029       0.000007       0.000000
      0.000049       0.000033       0.000000
      0.000023       0.000053       0.000000
     -0.000003       0.000003       0.000000
      0.000000       0.000000       0.000000
      0.000000       0.000000       0.000000
      0.000067       0.000072       0.000000
      0.000049       0.000033       0.000000
      0.000000       0.000000       0.000000
      0.000000       0.000000       0.000000
      0.000075       0.000126       0.000000
      0.000067       0.000072       0.000000
      0.000049       0.000033       0.000000
      0.000067       0.000072       0.000000
      0.000047       0.000133       0.000000
      0.000023       0.000053       0.000000
      0.000067       0.000072       0.000000
      0.000075       0.000126       0.000000
      0.000054       0.000252       0.000000
      0.000047       0.000133       0.000000
     -0.000066      -0.000119       0.000000
     -0.000045      -0.000071       0.000000
     -0.000123      -0.000103       0.000000
     -0.000139      -0.000172       0.000000
     -0.000045      -0.000071       0.000000
     -0.000026      -0.000034       0.000000
     -0.000108      -0.000055       0.000000
     -0.000123      -0.000103       0.000000
     -0.000139      -0.000172       0.000000
     -0.000123      -0.000103       0.000000
     -0.000226      -0.000126       0.000000
     -0.000234      -0.000206       0.000000
     -0.000123      -0.000103       0.000000
     -0.000108      -0.000055       0.000000
     -0.000221      -0.000069       0.000000
     -0.000226      -0.000126       0.000000
     -0.000026      -0.000034       0.000000
     -0.000003       0.000003       0.000000
     -0.000090      -0.000005       0.000000
     -0.000108      -0.000055       0.000000
     -0.000003       0.000003       0.000000
      0.000023       0.000053       0.000000
     -0.000070       0.000065       0.000000
     -0.000090      -0.000005       0.000000
     -0.000108      -0.000055       0.000000
     -0.000090      -0.000005       0.000000
     -0.000219      -0.000011       0.000000
     -0.000221      -0.000069       0.000000
     -0.000090      -0.000005       0.000000
     -0.000070       0.000065       0.000000
     -0.000218       0.000073       0.000000
     -0.000219      -0.000011       0.000000
      0.000023       0.000053       0.000000
      0.000047       0.000133       0.000000
     -0.000050       0.000181       0.000000
     -0.000070       0.000065       0.000000
      0.000047       0.000133       0.000000
      0.000054       0.000252       0.000000
     -0.000044       0.000369       0.000000
     -0.000050       0.000181       0.000000
     -0.000070       0.000065       0.000000
     -0.000050       0.000181       0.000000
     -0.000218       0.000214       0.000000
     -0.000218       0.000073       0.000000
     -0.000050       0.000181       0.000000
     -0.000044       0.000369       0.000000
     -0.000220       0.000461       0.000000
     -0.000218       0.000214       0.000000
     -0.000234      -0.000206       0.000000
     -0.000226      -0.000126       0.000000
     -0.000334      -0.000136       0.000000
     -0.000335      -0.000219       0.000000
     -0.000226      -0.000126       0.000000
     -0.000221      -0.000069       0.000000
     -0.000342      -0.000072       0.000000
     -0.000334      -0.000136       0.000000
     -0.000335      -0.000219       0.000000
     -0.000334      -0.000136       0.000000
     -0.000425      -0.000136       0.000000
     -0.000425      -0.000219       0.000000
     -0.000334      -0.000136       0.000000
     -0.000342      -0.000072       0.000000
     -0.000438      -0.000064       0.000000
     -0.000425      -0.000136       0.000000
     -0.000221      -0.000069       0.000000
     -0.000219      -0.000011       0.000000
     -0.000362      -0.000007       0.000000
     -0.000342      -0.000072       0.000000
     -0.000219      -0.000011       0.000000
     -0.000218       0.000073       0.000000
     -0.000395       0.000086       0.000000
     -0.000362      -0.000007       0.000000
     -0.000342      -0.000072       0.000000
     -0.000362      -0.000007       0.000000
     -0.000479       0.000011       0.000000
     -0.000438      -0.000064       0.000000
     -0.000362      -0.000007       0.000000
     -0.000395       0.000086       0.000000
     -0.000555       0.000115       0.000000
     -0.000479       0.000011       0.000000
     -0.000218       0.000073       0.000000
     -0.000218       0.000134       0.000000
     -0.000315       0.000143       0.000000
     -0.000305       0.000078       0.000000
     -0.000218       0.000134       0.000000
     -0.000218       0.000214       0.000000
     -0.000325       0.000227       0.000000
     -0.000315       0.000143       0.000000
     -0.000305       0.000078       0.000000
     -0.000315       0.000143       0.000000
     -0.000416       0.000154       0.000000
     -0.000395       0.000086       0.000000
     -0.000315       0.000143       0.000000
     -0.000325       0.000227       0.000000
     -0.000441       0.000243       0.000000
     -0.000416       0.000154       0.000000
     -0.000218       0.000214       0.000000
     -0.000218       0.000320       0.000000
     -0.000336       0.000339       0.000000
     -0.000325       0.000227       0.000000
     -0.000218       0.000320       0.000000
     -0.000220       0.000461       0.000000
     -0.000345       0.000491       0.000000
     -0.000336       0.000339       0.000000
     -0.000325       0.000227       0.000000
     -0.000336       0.000339       0.000000
     -0.000470       0.000358       0.000000
     -0.000441       0.000243       0.000000
     -0.000336       0.000339       0.000000
     -0.000345       0.000491       0.000000
     -0.000498       0.000512       0.000000
     -0.000470       0.000358       0.000000
     -0.000395       0.000086       0.000000
     -0.000416       0.000154       0.000000
     -0.000516       0.000169       0.000000
     -0.000481       0.000098       0.000000
     -0.000416       0.000154       0.000000
     -0.000441       0.000243       0.000000
     -0.000556       0.000263       0.000000
     -0.000516       0.000169       0.000000
     -0.000481       0.000098       0.000000
     -0.000516       0.000169       0.000000
     -0.000606       0.000189       0.000000
     -0.000555       0.000115       0.000000
     -0.000516       0.000169       0.000000
     -0.000556       0.000263       0.000000
     -0.000665       0.000286       0.000000
     -0.000606       0.000189       0.000000
     -0.000441       0.000243       0.000000
     -0.000455       0.000297       0.000000
     -0.000518       0.000308       0.000000
     -0.000499       0.000252       0.000000
     -0.000455       0.000297       0.000000
     -0.000470       0.000358       0.000000
     -0.000538       0.000369       0.000000
     -0.000518       0.000308       0.000000
     -0.000499       0.000252       0.000000
     -0.000518       0.000308       0.000000
     -0.000578       0.000320       0.000000
     -0.000556       0.000263       0.000000
     -0.000518       0.000308       0.000000
     -0.000538       0.000369       0.000000
     -0.000603       0.000383       0.000000
     -0.000578       0.000320       0.000000
     -0.000470       0.000358       0.000000
     -0.000484       0.000428       0.000000
     -0.000560       0.000439       0.000000
     -0.000538       0.000369       0.000000
     -0.000484       0.000428       0.000000
     -0.000498       0.000512       0.000000
     -0.000583       0.000522       0.000000
     -0.000560       0.000439       0.000000
     -0.000538       0.000369       0.000000
     -0.000560       0.000439       0.000000
     -0.000633       0.000454       0.000000
     -0.000603       0.000383       0.000000
     -0.000560       0.000439       0.000000
     -0.000583       0.000522       0.000000
     -0.000667       0.000534       0.000000
     -0.000633       0.000454       0.000000
     -0.000556       0.000263       0.000000
     -0.000578       0.000320       0.000000
     -0.000635       0.000332       0.000000
     -0.000610       0.000274       0.000000
     -0.000578       0.000320       0.000000
     -0.000603       0.000383       0.000000
     -0.000662       0.000398       0.000000
     -0.000635       0.000332       0.000000
     -0.000610       0.000274       0.000000
     -0.000635       0.000332       0.000000
     -0.000695       0.000344       0.000000
     -0.000665       0.000286       0.000000
     -0.000635       0.000332       0.000000
     -0.000662       0.000398       0.000000
     -0.000724       0.000410       0.000000
     -0.000695       0.000344       0.000000
     -0.000603       0.000383       0.000000
     -0.000617       0.000418       0.000000
     -0.000648       0.000426       0.000000
     -0.000633       0.000391       0.000000
     -0.000617       0.000418       0.000000
     -0.000633       0.000454       0.000000
     -0.000665       0.000462       0.000000
     -0.000648       0.000426       0.000000
     -0.000633       0.000391       0.000000
     -0.000648       0.000426       0.000000
     -0.000676       0.000434       0.000000
     -0.000662       0.000398       0.000000
     -0.000648       0.000426       0.000000
     -0.000665       0.000462       0.000000
     -0.000692       0.000472       0.000000
     -0.000676       0.000434       0.000000
     -0.000633       0.000454       0.000000
     -0.000649       0.000492       0.000000
     -0.000684       0.000501       0.000000
     -0.000665       0.000462       0.000000
     -0.000649       0.000492       0.000000
     -0.000667       0.000534       0.000000
     -0.000707       0.000543       0.000000
     -0.000684       0.000501       0.000000
     -0.000665       0.000462       0.000000
     -0.000684       0.000501       0.000000
     -0.000713       0.000511       0.000000
     -0.000692       0.000472       0.000000
     -0.000684       0.000501       0.000000
     -0.000707       0.000543       0.000000
     -0.000742       0.000557       0.000000
     -0.000713       0.000511       0.000000
     -0.000662       0.000398       0.000000
     -0.000676       0.000434       0.000000
     -0.000704       0.000441       0.000000
     -0.000691       0.000404       0.000000
     -0.000676       0.000434       0.000000
     -0.000692       0.000472       0.000000
     -0.000717       0.000480       0.000000
     -0.000704       0.000441       0.000000
     -0.000691       0.000404       0.000000
     -0.000704       0.000441       0.000000
     -0.000737       0.000448       0.000000
     -0.000724       0.000410       0.000000
     -0.000704       0.000441       0.000000
     -0.000717       0.000480       0.000000
     -0.000748       0.000493       0.000000
     -0.000737       0.000448       0.000000
     -0.000692       0.000472       0.000000
     -0.000713       0.000511       0.000000
     -0.000732       0.000522       0.000000
     -0.000717       0.000480       0.000000
     -0.000713       0.000511       0.000000
     -0.000742       0.000557       0.000000
     -0.000767       0.000607       0.000000
     -0.000732       0.000522       0.000000
     -0.000717       0.000480       0.000000
     -0.000732       0.000522       0.000000
     -0.000755       0.000594       0.000000
     -0.000748       0.000493       0.000000
     -0.000732       0.000522       0.000000
     -0.000767       0.000607       0.000000
     -0.000938       0.005232       0.000000
     -0.000755       0.000594       0.000000
      0.000000       0.000000       0.000000
      0.000000       0.000000       0.000000
      0.000060       0.000193       0.000000
      0.000075       0.000126       0.000000
      0.000000       0.000000       0.000000
      0.000000       0.000000       0.000000
      0.000015       0.000265       0.000000
      0.000060       0.000193       0.000000
      0.000075       0.000126       0.000000
      0.000060       0.000193       0.000000
      0.000023       0.000407       0.000000
      0.000054       0.000252       0.000000
      0.000060       0.000193       0.000000
      0.000015       0.000265       0.000000
     -0.000065       0.000576       0.000000
      0.000023       0.000407       0.000000
      0.000000       0.000000       0.000000
      0.000000       0.000000       0.000000
     -0.000061       0.000333       0.000000
      0.000015       0.000265       0.000000
      0.000000       0.000000       0.000000
      0.000000       0.000000       0.000000
     -0.000167       0.000402       0.000000
     -0.000061       0.000333       0.000000
      0.000015       0.000265       0.000000
     -0.000061       0.000333       0.000000
     -0.000210       0.000733       0.000000
     -0.000065       0.000576       0.000000
     -0.000061       0.000333       0.000000
     -0.000167       0.000402       0.000000
     -0.000398       0.000880       0.000000
     -0.000210       0.000733       0.000000
      0.000000       0.000000       0.000000
      0.000000       0.000000       0.000000
     -0.000320       0.000504       0.000000
     -0.000167       0.000402       0.000000
      0.000000       0.000000       0.000000
      0.000000       0.000000       0.000000
     -0.000552       0.000746       0.000000
     -0.000320       0.000504       0.000000
     -0.000167       0.000402       0.000000
     -0.000320       0.000504       0.000000
     -0.000618       0.001056       0.000000
     -0.000398       0.000880       0.000000
     -0.000320       0.000504       0.000000
     -0.000552       0.000746       0.000000
     -0.000851       0.001302       0.000000
     -0.000618       0.001056       0.000000
      0.000054       0.000252       0.000000
      0.000023       0.000407       0.000000
     -0.000085       0.000636       0.000000
     -0.000044       0.000369       0.000000
      0.000023       0.000407       0.000000
     -0.000065       0.000576       0.000000
     -0.000211       0.000937       0.000000
     -0.000085       0.000636       0.000000
     -0.000044       0.000369       0.000000
     -0.000085       0.000636       0.000000
     -0.000257       0.000866       0.000000
     -0.000220       0.000461       0.000000
     -0.000085       0.000636       0.000000
     -0.000211       0.000937       0.000000
     -0.000417       0.001363       0.000000
     -0.000257       0.000866       0.000000
     -0.000065       0.000576       0.000000
     -0.000210       0.000733       0.000000
     -0.000419       0.001198       0.000000
     -0.000211       0.000937       0.000000
     -0.000210       0.000733       0.000000
     -0.000398       0.000880       0.000000
     -0.000665       0.001401       0.000000
     -0.000419       0.001198       0.000000
     -0.000211       0.000937       0.000000
     -0.000419       0.001198       0.000000
     -0.000691       0.001742       0.000000
     -0.000417       0.001363       0.000000
     -0.000419       0.001198       0.000000
     -0.000665       0.001401       0.000000
     -0.000965       0.001951       0.000000
     -0.000691       0.001742       0.000000
     -0.000398       0.000880       0.000000
     -0.000618       0.001056       0.000000
     -0.000906       0.001589       0.000000
     -0.000665       0.001401       0.000000
     -0.000618       0.001056       0.000000
     -0.000851       0.001302       0.000000
     -0.001128       0.001825       0.000000
     -0.000906       0.001589       0.000000
     -0.000665       0.001401       0.000000
     -0.000906       0.001589       0.000000
     -0.001198       0.002099       0.000000
     -0.000965       0.001951       0.000000
     -0.000906       0.001589       0.000000
     -0.001128       0.001825       0.000000
     -0.001397       0.002294       0.000000
     -0.001198       0.002099       0.000000
     -0.000417       0.001363       0.000000
     -0.000691       0.001742       0.000000
     -0.001044       0.002372       0.000000
     -0.000737       0.001926       0.000000
     -0.000691       0.001742       0.000000
     -0.000965       0.001951       0.000000
     -0.001255       0.002495       0.000000
     -0.001044       0.002372       0.000000
     -0.001044       0.002372       0.000000
     -0.001255       0.002495       0.000000
     -0.001395       0.002990       0.000000
     -0.001294       0.002975       0.000000
     -0.000965       0.001951       0.000000
     -0.001198       0.002099       0.000000
     -0.001440       0.002571       0.000000
     -0.001255       0.002495       0.000000
     -0.001198       0.002099       0.000000
     -0.001397       0.002294       0.000000
     -0.001611       0.002687       0.000000
     -0.001440       0.002571       0.000000
     -0.001255       0.002495       0.000000
     -0.001440       0.002571       0.000000
     -0.001545       0.003007       0.000000
     -0.001395       0.002990       0.000000
     -0.001440       0.002571       0.000000
     -0.001611       0.002687       0.000000
     -0.001702       0.003023       0.000000
     -0.001545       0.003007       0.000000
     -0.000220       0.000461       0.000000
     -0.000230       0.000643       0.000000
     -0.000355       0.000699       0.000000
     -0.000345       0.000491       0.000000
     -0.000230       0.000643       0.000000
     -0.000257       0.000866       0.000000
     -0.000380       0.000972       0.000000
     -0.000355       0.000699       0.000000
     -0.000345       0.000491       0.000000
     -0.000355       0.000699       0.000000
     -0.000523       0.000737       0.000000
     -0.000498       0.000512       0.000000
     -0.000355       0.000699       0.000000
     -0.000380       0.000972       0.000000
     -0.000549       0.001059       0.000000
     -0.000523       0.000737       0.000000
     -0.000257       0.000866       0.000000
     -0.000318       0.001116       0.000000
     -0.000440       0.001295       0.000000
     -0.000380       0.000972       0.000000
     -0.000318       0.001116       0.000000
     -0.000417       0.001363       0.000000
     -0.000554       0.001617       0.000000
     -0.000440       0.001295       0.000000
     -0.000380       0.000972       0.000000
     -0.000440       0.001295       0.000000
     -0.000603       0.001486       0.000000
     -0.000549       0.001059       0.000000
     -0.000440       0.001295       0.000000
     -0.000554       0.001617       0.000000
     -0.000737       0.001926       0.000000