# vtk DataFile Version 2.0
time_10.vtk
ASCII
DATASET UNSTRUCTURED_GRID
POINTS  1152 float
      0.000000       0.000000       0.000000
      0.083333       0.000000       0.000000
      0.083333       0.083333       0.000000
      0.000000       0.083333       0.000000
      0.083333       0.000000       0.000000
      0.166667       0.000000       0.000000
      0.166667       0.083333       0.000000
      0.083333       0.083333       0.000000
      0.000000       0.083333       0.000000
      0.083333       0.083333       0.000000
      0.083333       0.166667       0.000000
      0.000000       0.166667       0.000000
      0.083333       0.083333       0.000000
      0.166667       0.083333       0.000000
      0.166667       0.166667       0.000000
      0.083333       0.166667       0.000000
      0.166667       0.000000       0.000000
      0.250000       0.000000       0.000000
      0.250000       0.083333       0.000000
      0.166667       0.083333       0.000000
      0.250000       0.000000       0.000000
      0.333333       0.000000       0.000000
      0.333333       0.083333       0.000000
      0.250000       0.083333       0.000000
      0.166667       0.083333       0.000000
      0.250000       0.083333       0.000000
      0.250000       0.166667       0.000000
      0.166667       0.166667       0.000000
      0.250000       0.083333       0.000000
      0.333333       0.083333       0.000000
      0.333333       0.166667       0.000000
      0.250000       0.166667       0.000000
      0.333333       0.000000       0.000000
      0.416667      -0.000000       0.000000
      0.416667       0.083333       0.000000
      0.333333       0.083333       0.000000
      0.416667      -0.000000       0.000000
      0.500000       0.000000       0.000000
      0.500000       0.083333       0.000000
      0.416667       0.083333       0.000000
      0.333333       0.083333       0.000000
      0.416667       0.083333       0.000000
      0.416667       0.166667       0.000000
      0.333333       0.166667       0.000000
      0.416667       0.083333       0.000000
      0.500000       0.083333       0.000000
      0.500000       0.166667       0.000000
      0.416667       0.166667       0.000000
      0.000000       0.166667       0.000000
      0.083333       0.166667       0.000000
      0.083333       0.250000       0.000000
      0.000000       0.250000       0.000000
      0.083333       0.166667       0.000000
      0.166667       0.166667       0.000000
      0.166667       0.250000       0.000000
      0.083333       0.250000       0.000000
      0.000000       0.250000       0.000000
      0.083333       0.250000       0.000000
      0.083333       0.333333       0.000000
      0.000000       0.333333       0.000000
      0.083333       0.250000       0.000000
      0.166667       0.250000       0.000000
      0.166667       0.333333       0.000000
      0.083333       0.333333       0.000000
      0.166667       0.166667       0.000000
      0.250000       0.166667       0.000000
      0.250000       0.250000       0.000000
      0.166667       0.250000       0.000000
      0.250000       0.166667       0.000000
      0.333333       0.166667       0.000000
      0.333333       0.250000       0.000000
      0.250000       0.250000       0.000000
      0.166667       0.250000       0.000000
      0.250000       0.250000       0.000000
      0.250000       0.333333       0.000000
      0.166667       0.333333       0.000000
      0.250000       0.250000       0.000000
      0.333333       0.250000       0.000000
      0.333333       0.333333       0.000000
      0.250000       0.333333       0.000000
      0.333333       0.166667       0.000000
      0.416667       0.166667       0.000000
      0.416667       0.250000       0.000000
      0.333333       0.250000       0.000000
      0.416667       0.166667       0.000000
      0.500000       0.166667       0.000000
      0.500000       0.250000       0.000000
      0.416667       0.250000       0.000000
      0.333333       0.250000       0.000000
      0.416667       0.250000       0.000000
      0.416667       0.333333       0.000000
      0.333333       0.333333       0.000000
      0.416667       0.250000       0.000000
      0.500000       0.250000       0.000000
      0.500000       0.333333       0.000000
      0.416667       0.333333       0.000000
      0.000000       0.333333       0.000000
      0.083333       0.333333       0.000000
      0.083333       0.416667       0.000000
     -0.000000       0.416667       0.000000
      0.083333       0.333333       0.000000
      0.166667       0.333333       0.000000
      0.166667       0.416667       0.000000
      0.083333       0.416667       0.000000
     -0.000000       0.416667       0.000000
      0.083333       0.416667       0.000000
      0.083333       0.500000       0.000000
      0.000000       0.500000       0.000000
      0.083333       0.416667       0.000000
      0.166667       0.416667       0.000000
      0.166667       0.500000       0.000000
      0.083333       0.500000       0.000000
      0.166667       0.333333       0.000000
      0.250000       0.333333       0.000000
      0.250000       0.416667       0.000000
      0.166667       0.416667       0.000000
      0.250000       0.333333       0.000000
      0.333333       0.333333       0.000000
      0.333333       0.416667       0.000000
      0.250000       0.416667       0.000000
      0.166667       0.416667       0.000000
      0.250000       0.416667       0.000000
      0.250000       0.500000       0.000000
      0.166667       0.500000       0.000000
      0.250000       0.416667       0.000000
      0.333333       0.416667       0.000000
      0.333333       0.500000       0.000000
      0.250000       0.500000       0.000000
      0.333333       0.333333       0.000000
      0.375000       0.333333       0.000000
      0.375000       0.375000       0.000000
      0.333333       0.375000       0.000000
      0.375000       0.333333       0.000000
      0.416667       0.333333       0.000000
      0.416667       0.375000       0.000000
      0.375000       0.375000       0.000000
      0.333333       0.375000       0.000000
      0.375000       0.375000       0.000000
      0.375000       0.416667       0.000000
      0.333333       0.416667       0.000000
      0.375000       0.375000       0.000000
      0.416667       0.375000       0.000000
      0.416667       0.416667       0.000000
      0.375000       0.416667       0.000000
      0.416667       0.333333       0.000000
      0.458333       0.333333       0.000000
      0.458333       0.375000       0.000000
      0.416667       0.375000       0.000000
      0.458333       0.333333       0.000000
      0.500000       0.333333       0.000000
      0.500000       0.375000       0.000000
      0.458333       0.375000       0.000000
      0.416667       0.375000       0.000000
      0.458333       0.375000       0.000000
      0.458333       0.416667       0.000000
      0.416667       0.416667       0.000000
      0.458333       0.375000       0.000000
      0.500000       0.375000       0.000000
      0.500000       0.416667       0.000000
      0.458333       0.416667       0.000000
      0.333333       0.416667       0.000000
      0.375000       0.416667       0.000000
      0.375000       0.458333       0.000000
      0.333333       0.458333       0.000000
      0.375000       0.416667       0.000000
      0.416667       0.416667       0.000000
      0.416667       0.458333       0.000000
      0.375000       0.458333       0.000000
      0.333333       0.458333       0.000000
      0.375000       0.458333       0.000000
      0.375000       0.500000       0.000000
      0.333333       0.500000       0.000000
      0.375000       0.458333       0.000000
      0.416667       0.458333       0.000000
      0.416667       0.500000       0.000000
      0.375000       0.500000       0.000000
      0.416667       0.416667       0.000000
      0.437500       0.416667       0.000000
      0.437500       0.437500       0.000000
      0.416667       0.437500       0.000000
      0.437500       0.416667       0.000000
      0.458333       0.416667       0.000000
      0.458333       0.437500       0.000000
      0.437500       0.437500       0.000000
      0.416667       0.437500       0.000000
      0.437500       0.437500       0.000000
      0.437500       0.458333       0.000000
      0.416667       0.458333       0.000000
      0.437500       0.437500       0.000000
      0.458333       0.437500       0.000000
      0.458333       0.458333       0.000000
      0.437500       0.458333       0.000000
      0.458333       0.416667       0.000000
      0.479167       0.416667       0.000000
      0.479167       0.437500       0.000000
      0.458333       0.437500       0.000000
      0.479167       0.416667       0.000000
      0.500000       0.416667       0.000000
      0.500000       0.437500       0.000000
      0.479167       0.437500       0.000000
      0.458333       0.437500       0.000000
      0.479167       0.437500       0.000000
      0.479167       0.458333       0.000000
      0.458333       0.458333       0.000000
      0.479167       0.437500       0.000000
      0.500000       0.437500       0.000000
      0.500000       0.458333       0.000000
      0.479167       0.458333       0.000000
      0.416667       0.458333       0.000000
      0.437500       0.458333       0.000000
      0.437500       0.479167       0.000000
      0.416667       0.479167       0.000000
      0.437500       0.458333       0.000000
      0.458333       0.458333       0.000000
      0.458333       0.479167       0.000000
      0.437500       0.479167       0.000000
      0.416667       0.479167       0.000000
      0.437500       0.479167       0.000000
      0.437500       0.500000       0.000000
      0.416667       0.500000       0.000000
[...]
POINT_DATA  1152
VECTORS U float 
      0.000000       0.000000       0.000000
      0.000000       0.000000       0.000000
      0.000073      -0.000015       0.000000
      0.000054      -0.000015       0.000000
      0.000000       0.000000       0.000000
      0.000000       0.000000       0.000000
      0.000092       0.000015       0.000000
      0.000073      -0.000015       0.000000
      0.000054      -0.000015       0.000000
      0.000073      -0.000015       0.000000
      0.000081      -0.000040       0.000000
      0.000057      -0.000082       0.000000
      0.000073      -0.000015       0.000000
      0.000092       0.000015       0.000000
      0.000103       0.000019       0.000000
      0.000081      -0.000040       0.000000
      0.000000       0.000000       0.000000
      0.000000       0.000000       0.000000
      0.000109       0.000054       0.000000
      0.000092       0.000015       0.000000
      0.000000       0.000000       0.000000
      0.000000       0.000000       0.000000
      0.000119       0.000106       0.000000
      0.000109       0.000054       0.000000
      0.000092       0.000015       0.000000
      0.000109       0.000054       0.000000
      0.000126       0.000098       0.000000
      0.000103       0.000019       0.000000
      0.000109       0.000054       0.000000
      0.000119       0.000106       0.000000
      0.000139       0.000209       0.000000
      0.000126       0.000098       0.000000
      0.000000       0.000000       0.000000
      0.000000       0.000000       0.000000
      0.000110       0.000169       0.000000
      0.000119       0.000106       0.000000
      0.000000       0.000000       0.000000
      0.000000       0.000000       0.000000
      0.000076       0.000234       0.000000
      0.000110       0.000169       0.000000
      0.000119       0.000106       0.000000
      0.000110       0.000169       0.000000
      0.000124       0.000350       0.000000
      0.000139       0.000209       0.000000
      0.000110       0.000169       0.000000
      0.000076       0.000234       0.000000
      0.000063       0.000503       0.000000
      0.000124       0.000350       0.000000
      0.000057      -0.000082       0.000000
      0.000081      -0.000040       0.000000
      0.000010      -0.000069       0.000000
     -0.000012      -0.000158       0.000000
      0.000081      -0.000040       0.000000
      0.000103       0.000019       0.000000
      0.000031       0.000016       0.000000
      0.000010      -0.000069       0.000000
     -0.000012      -0.000158       0.000000
      0.000010      -0.000069       0.000000
     -0.000126      -0.000095       0.000000
     -0.000141      -0.000216       0.000000
      0.000010      -0.000069       0.000000
      0.000031       0.000016       0.000000
     -0.000115       0.000009       0.000000
     -0.000126      -0.000095       0.000000
      0.000103       0.000019       0.000000
      0.000126       0.000098       0.000000
      0.000055       0.000130       0.000000
      0.000031       0.000016       0.000000
      0.000126       0.000098       0.000000
      0.000139       0.000209       0.000000
      0.000075       0.000299       0.000000
      0.000055       0.000130       0.000000
      0.000031       0.000016       0.000000
      0.000055       0.000130       0.000000
     -0.000099       0.000145       0.000000
     -0.000115       0.000009       0.000000
      0.000055       0.000130       0.000000
      0.000075       0.000299       0.000000
     -0.000079       0.000361       0.000000
     -0.000099       0.000145       0.000000
      0.000139       0.000209       0.000000
      0.000124       0.000350       0.000000
      0.000062       0.000536       0.000000
      0.000075       0.000299       0.000000
      0.000124       0.000350       0.000000
      0.000063       0.000503       0.000000
     -0.000018       0.000807       0.000000
      0.000062       0.000536       0.000000
      0.000075       0.000299       0.000000
      0.000062       0.000536       0.000000
     -0.000076       0.000708       0.000000
     -0.000079       0.000361       0.000000
      0.000062       0.000536       0.000000
     -0.000018       0.000807       0.000000
     -0.000162       0.001152       0.000000
     -0.000076       0.000708       0.000000
     -0.000141      -0.000216       0.000000
     -0.000126      -0.000095       0.000000
     -0.000295      -0.000109       0.000000
     -0.000297      -0.000242       0.000000
     -0.000126      -0.000095       0.000000
     -0.000115       0.000009       0.000000
     -0.000304       0.000007       0.000000
     -0.000295      -0.000109       0.000000
     -0.000297      -0.000242       0.000000
     -0.000295      -0.000109       0.000000
     -0.000448      -0.000107       0.000000
     -0.000446      -0.000244       0.000000
     -0.000295      -0.000109       0.000000
     -0.000304       0.000007       0.000000
     -0.000476       0.000020       0.000000
     -0.000448      -0.000107       0.000000
     -0.000115       0.000009       0.000000
     -0.000099       0.000145       0.000000
     -0.000322       0.000151       0.000000
     -0.000304       0.000007       0.000000
     -0.000099       0.000145       0.000000
     -0.000079       0.000361       0.000000
     -0.000339       0.000388       0.000000
     -0.000322       0.000151       0.000000
     -0.000304       0.000007       0.000000
     -0.000322       0.000151       0.000000
     -0.000551       0.000177       0.000000
     -0.000476       0.000020       0.000000
     -0.000322       0.000151       0.000000
     -0.000339       0.000388       0.000000
     -0.000679       0.000423       0.000000
     -0.000551       0.000177       0.000000
     -0.000079       0.000361       0.000000
     -0.000072       0.000517       0.000000
     -0.000187       0.000552       0.000000
     -0.000195       0.000378       0.000000
     -0.000072       0.000517       0.000000
     -0.000076       0.000708       0.000000
     -0.000184       0.000777       0.000000
     -0.000187       0.000552       0.000000
     -0.000195       0.000378       0.000000
     -0.000187       0.000552       0.000000
     -0.000341       0.000571       0.000000
     -0.000339       0.000388       0.000000
     -0.000187       0.000552       0.000000
     -0.000184       0.000777       0.000000
     -0.000337       0.000824       0.000000
     -0.000341       0.000571       0.000000
     -0.000076       0.000708       0.000000
     -0.000102       0.000927       0.000000
     -0.000203       0.001052       0.000000
     -0.000184       0.000777       0.000000
     -0.000102       0.000927       0.000000
     -0.000162       0.001152       0.000000
     -0.000264       0.001348       0.000000
     -0.000203       0.001052       0.000000
     -0.000184       0.000777       0.000000
     -0.000203       0.001052       0.000000
     -0.000341       0.001166       0.000000
     -0.000337       0.000824       0.000000
     -0.000203       0.001052       0.000000
     -0.000264       0.001348       0.000000
     -0.000399       0.001570       0.000000
     -0.000341       0.001166       0.000000
     -0.000339       0.000388       0.000000
     -0.000341       0.000571       0.000000
     -0.000541       0.000584       0.000000
     -0.000508       0.000399       0.000000
     -0.000341       0.000571       0.000000
     -0.000337       0.000824       0.000000
     -0.000564       0.000845       0.000000
     -0.000541       0.000584       0.000000
     -0.000508       0.000399       0.000000
     -0.000541       0.000584       0.000000
     -0.000766       0.000610       0.000000
     -0.000679       0.000423       0.000000
     -0.000541       0.000584       0.000000
     -0.000564       0.000845       0.000000
     -0.000870       0.000872       0.000000
     -0.000766       0.000610       0.000000
     -0.000337       0.000824       0.000000
     -0.000336       0.000984       0.000000
     -0.000437       0.001008       0.000000
     -0.000440       0.000837       0.000000
     -0.000336       0.000984       0.000000
     -0.000341       0.001166       0.000000
     -0.000436       0.001212       0.000000
     -0.000437       0.001008       0.000000
     -0.000440       0.000837       0.000000
     -0.000437       0.001008       0.000000
     -0.000568       0.001021       0.000000
     -0.000564       0.000845       0.000000
     -0.000437       0.001008       0.000000
     -0.000436       0.001212       0.000000
     -0.000564       0.001243       0.000000
     -0.000568       0.001021       0.000000
     -0.000341       0.001166       0.000000
     -0.000360       0.001367       0.000000
     -0.000448       0.001450       0.000000
     -0.000436       0.001212       0.000000
     -0.000360       0.001367       0.000000
     -0.000399       0.001570       0.000000
     -0.000486       0.001700       0.000000
     -0.000448       0.001450       0.000000
     -0.000436       0.001212       0.000000
     -0.000448       0.001450       0.000000
     -0.000563       0.001526       0.000000
     -0.000564       0.001243       0.000000
     -0.000448       0.001450       0.000000
     -0.000486       0.001700       0.000000
     -0.000597       0.001853       0.000000
     -0.000563       0.001526       0.000000
     -0.000564       0.000845       0.000000
     -0.000568       0.001021       0.000000
     -0.000735       0.001029       0.000000
     -0.000712       0.000854       0.000000
     -0.000568       0.001021       0.000000
     -0.000564       0.001243       0.000000
     -0.000748       0.001256       0.000000
     -0.000735       0.001029       0.000000
     -0.000712       0.000854       0.000000
     -0.000735       0.001029       0.000000
     -0.000929       0.001047       0.000000
     -0.000870       0.000872       0.000000
     -0.000735       0.001029       0.000000
     -0.000748       0.001256       0.000000
     -0.000997       0.001272       0.000000
     -0.000929       0.001047       0.000000
     -0.000564       0.001243       0.000000
     -0.000562       0.001377       0.000000
     -0.000643       0.001392       0.000000
     -0.000647       0.001251       0.000000
     -0.000562       0.001377       0.000000
     -0.000563       0.001526       0.000000
     -0.000639       0.001558       0.000000
     -0.000643       0.001392       0.000000
     -0.000647       0.001251       0.000000
     -0.000643       0.001392       0.000000
     -0.000747       0.001400       0.000000
     -0.000748       0.001256       0.000000
     -0.000643       0.001392       0.000000
     -0.000639       0.001558       0.000000
     -0.000739       0.001579       0.000000
     -0.000747       0.001400       0.000000
     -0.000563       0.001526       0.000000
     -0.000573       0.001689       0.000000
     -0.000643       0.001748       0.000000
     -0.000639       0.001558       0.000000
     -0.000573       0.001689       0.000000
     -0.000597       0.001853       0.000000
     -0.000667       0.001947       0.000000
     -0.000643       0.001748       0.000000
     -0.000639       0.001558       0.000000
     -0.000643       0.001748       0.000000
     -0.000733       0.001805       0.000000
     -0.000739       0.001579       0.000000
     -0.000643       0.001748       0.000000
     -0.000667       0.001947       0.000000
     -0.000754       0.002064       0.000000
     -0.000733       0.001805       0.000000
     -0.000748       0.001256       0.000000
     -0.000747       0.001400       0.000000
     -0.000880       0.001404       0.000000
     -0.000867       0.001261       0.000000
     -0.000747       0.001400       0.000000
     -0.000739       0.001579       0.000000
     -0.000884       0.001586       0.000000
     -0.000880       0.001404       0.000000
     -0.000867       0.001261       0.000000
     -0.000880       0.001404       0.000000
     -0.001036       0.001415       0.000000
     -0.000997       0.001272       0.000000
     -0.000880       0.001404       0.000000
     -0.000884       0.001586       0.000000
     -0.001082       0.001597       0.000000
     -0.001036       0.001415       0.000000
     -0.000739       0.001579       0.000000
     -0.000733       0.001805       0.000000
     -0.000869       0.001846       0.000000
     -0.000884       0.001586       0.000000
     -0.000733       0.001805       0.000000
     -0.000754       0.002064       0.000000
     -0.000878       0.002235       0.000000
     -0.000869       0.001846       0.000000
     -0.000884       0.001586       0.000000
     -0.000869       0.001846       0.000000
     -0.001143       0.001867       0.000000
     -0.001082       0.001597       0.000000
     -0.000869       0.001846       0.000000
     -0.000878       0.002235       0.000000
     -0.001213       0.002698       0.000000
     -0.001143       0.001867       0.000000
      0.000000       0.000000       0.000000
      0.000000       0.000000       0.000000
      0.000017       0.000292       0.000000
      0.000076       0.000234       0.000000
      0.000000       0.000000       0.000000
      0.000000       0.000000       0.000000
     -0.000061       0.000336       0.000000
      0.000017       0.000292       0.000000
      0.000076       0.000234       0.000000
      0.000017       0.000292       0.000000
     -0.000046       0.000637       0.000000
      0.000063       0.000503       0.000000
      0.000017       0.000292       0.000000
     -0.000061       0.000336       0.000000
     -0.000189       0.000736       0.000000
     -0.000046       0.000637       0.000000
      0.000000       0.000000       0.000000
      0.000000       0.000000       0.000000
     -0.000150       0.000370       0.000000
     -0.000061       0.000336       0.000000
      0.000000       0.000000       0.000000
      0.000000       0.000000       0.000000
     -0.000252       0.000409       0.000000
     -0.000150       0.000370       0.000000
     -0.000061       0.000336       0.000000
     -0.000150       0.000370       0.000000
     -0.000349       0.000808       0.000000
     -0.000189       0.000736       0.000000
     -0.000150       0.000370       0.000000
     -0.000252       0.000409       0.000000
     -0.000524       0.000882       0.000000
     -0.000349       0.000808       0.000000
      0.000000       0.000000       0.000000
      0.000000       0.000000       0.000000
     -0.000392       0.000490       0.000000
     -0.000252       0.000409       0.000000
      0.000000       0.000000       0.000000
      0.000000       0.000000       0.000000
     -0.000607       0.000739       0.000000
     -0.000392       0.000490       0.000000
     -0.000252       0.000409       0.000000
     -0.000392       0.000490       0.000000
     -0.000720       0.001008       0.000000
     -0.000524       0.000882       0.000000
     -0.000392       0.000490       0.000000
     -0.000607       0.000739       0.000000
     -0.000925       0.001230       0.000000
     -0.000720       0.001008       0.000000
      0.000063       0.000503       0.000000
     -0.000046       0.000637       0.000000
     -0.000173       0.001040       0.000000
     -0.000018       0.000807       0.000000
     -0.000046       0.000637       0.000000
     -0.000189       0.000736       0.000000
     -0.000368       0.001195       0.000000
     -0.000173       0.001040       0.000000
     -0.000018       0.000807       0.000000
     -0.000173       0.001040       0.000000
     -0.000365       0.001517       0.000000
     -0.000162       0.001152       0.000000
     -0.000173       0.001040       0.000000
     -0.000368       0.001195       0.000000
     -0.000593       0.001704       0.000000
     -0.000365       0.001517       0.000000
     -0.000189       0.000736       0.000000
     -0.000349       0.000808       0.000000
     -0.000572       0.001291       0.000000
     -0.000368       0.001195       0.000000
     -0.000349       0.000808       0.000000
     -0.000524       0.000882       0.000000
     -0.000774       0.001375       0.000000
     -0.000572       0.001291       0.000000
     -0.000368       0.001195       0.000000
     -0.000572       0.001291       0.000000
     -0.000797       0.001791       0.000000
     -0.000593       0.001704       0.000000
     -0.000572       0.001291       0.000000
     -0.000774       0.001375       0.000000
     -0.000991       0.001857       0.000000
     -0.000797       0.001791       0.000000
     -0.000524       0.000882       0.000000
     -0.000720       0.001008       0.000000
     -0.000976       0.001492       0.000000
     -0.000774       0.001375       0.000000
     -0.000720       0.001008       0.000000
     -0.000925       0.001230       0.000000
     -0.001167       0.001672       0.000000
     -0.000976       0.001492       0.000000
     -0.000774       0.001375       0.000000
     -0.000976       0.001492       0.000000
     -0.001179       0.001945       0.000000
     -0.000991       0.001857       0.000000
     -0.000976       0.001492       0.000000
     -0.001167       0.001672       0.000000
     -0.001356       0.002077       0.000000
     -0.001179       0.001945       0.000000
     -0.000593       0.001704       0.000000
     -0.000797       0.001791       0.000000
     -0.000988       0.002273       0.000000
     -0.000837       0.002229       0.000000
     -0.000797       0.001791       0.000000
     -0.000991       0.001857       0.000000
     -0.001149       0.002314       0.000000
     -0.000988       0.002273       0.000000
     -0.000837       0.002229       0.000000
     -0.000988       0.002273       0.000000
     -0.001075       0.002722       0.000000
     -0.000971       0.002704       0.000000
     -0.000988       0.002273       0.000000
     -0.001149       0.002314       0.000000
     -0.001218       0.002750       0.000000
     -0.001075       0.002722       0.000000
     -0.000991       0.001857       0.000000
     -0.001179       0.001945       0.000000
     -0.001320       0.002371       0.000000
     -0.001149       0.002314       0.000000
     -0.001179       0.001945       0.000000
     -0.001356       0.002077       0.000000
     -0.001485       0.002451       0.000000
     -0.001320       0.002371       0.000000
     -0.001149       0.002314       0.000000
     -0.001320       0.002371       0.000000
     -0.001381       0.002782       0.000000
     -0.001218       0.002750       0.000000
     -0.001320       0.002371       0.000000
     -0.001485       0.002451       0.000000
     -0.001543       0.002808       0.000000
     -0.001381       0.002782       0.000000
     -0.000162       0.001152       0.000000
     -0.000253       0.001356       0.000000
     -0.000370       0.001608       0.000000
     -0.000264       0.001348       0.000000
     -0.000253       0.001356       0.000000
     -0.000365       0.001517       0.000000
     -0.000495       0.001793       0.000000
     -0.000370       0.001608       0.000000
     -0.000264       0.001348       0.000000
     -0.000370       0.001608       0.000000
     -0.000526       0.001908       0.000000
     -0.000399       0.001570       0.000000
     -0.000370       0.001608       0.000000
     -0.000495       0.001793       0.000000
     -0.000656       0.002097       0.000000
     -0.000526       0.001908       0.000000
     -0.000365       0.001517       0.000000
     -0.000481       0.001630       0.000000
     -0.000613       0.001904       0.000000
     -0.000495       0.001793       0.000000
     -0.000481       0.001630       0.000000
     -0.000593       0.001704       0.000000
     -0.000717       0.001969       0.000000
     -0.000613       0.001904       0.000000
     -0.000495       0.001793       0.000000
     -0.000613       0.001904       0.000000
     -0.000755       0.002185       0.000000