# vtk DataFile Version 2.0
time_10.vtk
ASCII
DATASET UNSTRUCTURED_GRID
POINTS  1416 float
      0.000000       0.000000       0.000000
      0.083333       0.000000       0.000000
      0.083333       0.083333       0.000000
      0.000000       0.083333       0.000000
      0.083333       0.000000       0.000000
      0.166667       0.000000       0.000000
      0.166667       0.083333       0.000000
      0.083333       0.083333       0.000000
      0.000000       0.083333       0.000000
      0.083333       0.083333       0.000000
      0.083333       0.166667       0.000000
      0.000000       0.166667       0.000000
      0.083333       0.083333       0.000000
      0.166667       0.083333       0.000000
      0.166667       0.166667       0.000000
      0.083333       0.166667       0.000000
      0.166667       0.000000       0.000000
      0.250000       0.000000       0.000000
      0.250000       0.083333       0.000000
      0.166667       0.083333       0.000000
      0.250000       0.000000       0.000000
      0.333333       0.000000       0.000000
      0.333333       0.083333       0.000000
      0.250000       0.083333       0.000000
      0.166667       0.083333       0.000000
      0.250000       0.083333       0.000000
      0.250000       0.166667       0.000000
      0.166667       0.166667       0.000000
      0.250000       0.083333       0.000000
      0.333333       0.083333       0.000000
      0.333333       0.166667       0.000000
      0.250000       0.166667       0.000000
      0.333333       0.000000       0.000000
      0.416667      -0.000000       0.000000
      0.416667       0.083333       0.000000
      0.333333       0.083333       0.000000
      0.416667      -0.000000       0.000000
      0.500000       0.000000       0.000000
      0.500000       0.083333       0.000000
      0.416667       0.083333       0.000000
      0.333333       0.083333       0.000000
      0.416667       0.083333       0.000000
      0.416667       0.166667       0.000000
      0.333333       0.166667       0.000000
      0.416667       0.083333       0.000000
      0.500000       0.083333       0.000000
      0.500000       0.166667       0.000000
      0.416667       0.166667       0.000000
      0.000000       0.166667       0.000000
      0.083333       0.166667       0.000000
      0.083333       0.250000       0.000000
      0.000000       0.250000       0.000000
      0.083333       0.166667       0.000000
      0.166667       0.166667       0.000000
      0.166667       0.250000       0.000000
      0.083333       0.250000       0.000000
      0.000000       0.250000       0.000000
      0.083333       0.250000       0.000000
      0.083333       0.333333       0.000000
      0.000000       0.333333       0.000000
      0.083333       0.250000       0.000000
      0.166667       0.250000       0.000000
      0.166667       0.333333       0.000000
      0.083333       0.333333       0.000000
      0.166667       0.166667       0.000000
      0.250000       0.166667       0.000000
      0.250000       0.250000       0.000000
      0.166667       0.250000       0.000000
      0.250000       0.166667       0.000000
      0.333333       0.166667       0.000000
      0.333333       0.250000       0.000000
      0.250000       0.250000       0.000000
      0.166667       0.250000       0.000000
      0.250000       0.250000       0.000000
      0.250000       0.333333       0.000000
      0.166667       0.333333       0.000000
      0.250000       0.250000       0.000000
      0.333333       0.250000       0.000000
      0.333333       0.333333       0.000000
      0.250000       0.333333       0.000000
      0.333333       0.166667       0.000000
      0.416667       0.166667       0.000000
      0.416667       0.250000       0.000000
      0.333333       0.250000       0.000000
      0.416667       0.166667       0.000000
      0.500000       0.166667       0.000000
      0.500000       0.250000       0.000000
      0.416667       0.250000       0.000000
      0.333333       0.250000       0.000000
      0.416667       0.250000       0.000000
      0.416667       0.333333       0.000000
      0.333333       0.333333       0.000000
      0.416667       0.250000       0.000000
      0.500000       0.250000       0.000000
      0.500000       0.333333       0.000000
      0.416667       0.333333       0.000000
      0.000000       0.333333       0.000000
      0.083333       0.333333       0.000000
      0.083333       0.416667       0.000000
     -0.000000       0.416667       0.000000
      0.083333       0.333333       0.000000
      0.166667       0.333333       0.000000
      0.166667       0.416667       0.000000
      0.083333       0.416667       0.000000
     -0.000000       0.416667       0.000000
      0.083333       0.416667       0.000000
      0.083333       0.500000       0.000000
      0.000000       0.500000       0.000000
      0.083333       0.416667       0.000000
      0.166667       0.416667       0.000000
      0.166667       0.500000       0.000000
      0.083333       0.500000       0.000000
      0.166667       0.333333       0.000000
      0.250000       0.333333       0.000000
      0.250000       0.416667       0.000000
      0.166667       0.416667       0.000000
      0.250000       0.333333       0.000000
      0.333333       0.333333       0.000000
      0.333333       0.416667       0.000000
      0.250000       0.416667       0.000000
      0.166667       0.416667       0.000000
      0.250000       0.416667       0.000000
      0.250000       0.500000       0.000000
      0.166667       0.500000       0.000000
      0.250000       0.416667       0.000000
      0.333333       0.416667       0.000000
      0.333333       0.500000       0.000000
      0.250000       0.500000       0.000000
      0.333333       0.333333       0.000000
      0.375000       0.333333       0.000000
      0.375000       0.375000       0.000000
      0.333333       0.375000       0.000000
      0.375000       0.333333       0.000000
      0.416667       0.333333       0.000000
      0.416667       0.375000       0.000000
      0.375000       0.375000       0.000000
      0.333333       0.375000       0.000000
      0.375000       0.375000       0.000000
      0.375000       0.416667       0.000000
      0.333333       0.416667       0.000000
      0.375000       0.375000       0.000000
      0.416667       0.375000       0.000000
      0.416667       0.416667       0.000000
      0.375000       0.416667       0.000000
      0.416667       0.333333       0.000000
      0.458333       0.333333       0.000000
      0.458333       0.375000       0.000000
      0.416667       0.375000       0.000000
      0.458333       0.333333       0.000000
      0.500000       0.333333       0.000000
      0.500000       0.375000       0.000000
      0.458333       0.375000       0.000000
      0.416667       0.375000       0.000000
      0.458333       0.375000       0.000000
      0.458333       0.416667       0.000000
      0.416667       0.416667       0.000000
      0.458333       0.375000       0.000000
      0.500000       0.375000       0.000000
      0.500000       0.416667       0.000000
      0.458333       0.416667       0.000000
      0.333333       0.416667       0.000000
      0.375000       0.416667       0.000000
      0.375000       0.458333       0.000000
      0.333333       0.458333       0.000000
      0.375000       0.416667       0.000000
      0.416667       0.416667       0.000000
      0.416667       0.458333       0.000000
      0.375000       0.458333       0.000000
      0.333333       0.458333       0.000000
      0.375000       0.458333       0.000000
      0.375000       0.500000       0.000000
      0.333333       0.500000       0.000000
      0.375000       0.458333       0.000000
      0.416667       0.458333       0.000000
      0.416667       0.500000       0.000000
      0.375000       0.500000       0.000000
      0.416667       0.416667       0.000000
      0.437500       0.416667       0.000000
      0.437500       0.437500       0.000000
      0.416667       0.437500       0.000000
      0.437500       0.416667       0.000000
      0.458333       0.416667       0.000000
      0.458333       0.437500       0.000000
      0.437500       0.437500       0.000000
      0.416667       0.437500       0.000000
      0.437500       0.437500       0.000000
      0.437500       0.458333       0.000000
      0.416667       0.458333       0.000000
      0.437500       0.437500       0.000000
      0.458333       0.437500       0.000000
      0.458333       0.458333       0.000000
      0.437500       0.458333       0.000000
      0.458333       0.416667       0.000000
      0.479167       0.416667       0.000000
      0.479167       0.437500       0.000000
      0.458333       0.437500       0.000000
      0.479167       0.416667       0.000000
      0.500000       0.416667       0.000000
      0.500000       0.437500       0.000000
      0.479167       0.437500       0.000000
      0.458333       0.437500       0.000000
      0.479167       0.437500       0.000000
      0.479167       0.458333       0.000000
      0.458333       0.458333       0.000000
      0.479167       0.437500       0.000000
      0.500000       0.437500       0.000000
      0.500000       0.458333       0.000000
      0.479167       0.458333       0.000000
      0.416667       0.458333       0.000000
      0.437500       0.458333       0.000000
      0.437500       0.479167       0.000000
      0.416667       0.479167       0.000000
      0.437500       0.458333       0.000000
      0.458333       0.458333       0.000000
      0.458333       0.479167       0.000000
      0.437500       0.479167       0.000000
      0.416667       0.479167       0.000000
      0.437500       0.479167       0.000000
      0.437500       0.500000       0.000000
      0.416667       0.500000       0.000000
[...]
POINT_DATA  1416
VECTORS U float 
      0.000000       0.000000       0.000000
      0.000000       0.000000       0.000000
      0.000024      -0.000029       0.000000
      0.000003      -0.000046       0.000000
      0.000000       0.000000       0.000000
      0.000000       0.000000       0.000000
      0.000043      -0.000005       0.000000
      0.000024      -0.000029       0.000000
      0.000003      -0.000046       0.000000
      0.000024      -0.000029       0.000000
      0.000000      -0.000065       0.000000
     -0.000023      -0.000112       0.000000
      0.000024      -0.000029       0.000000
      0.000043      -0.000005       0.000000
      0.000023      -0.000020       0.000000
      0.000000      -0.000065       0.000000
      0.000000       0.000000       0.000000
      0.000000       0.000000       0.000000
      0.000063       0.000023       0.000000
      0.000043      -0.000005       0.000000
      0.000000       0.000000       0.000000
      0.000000       0.000000       0.000000
      0.000082       0.000060       0.000000
      0.000063       0.000023       0.000000
      0.000043      -0.000005       0.000000
      0.000063       0.000023       0.000000
      0.000049       0.000033       0.000000
      0.000023      -0.000020       0.000000
      0.000063       0.000023       0.000000
      0.000082       0.000060       0.000000
      0.000075       0.000109       0.000000
      0.000049       0.000033       0.000000
      0.000000       0.000000       0.000000
      0.000000       0.000000       0.000000
      0.000093       0.000112       0.000000
      0.000082       0.000060       0.000000
      0.000000       0.000000       0.000000
      0.000000       0.000000       0.000000
      0.000085       0.000177       0.000000
      0.000093       0.000112       0.000000
      0.000082       0.000060       0.000000
      0.000093       0.000112       0.000000
      0.000089       0.000219       0.000000
      0.000075       0.000109       0.000000
      0.000093       0.000112       0.000000
      0.000085       0.000177       0.000000
      0.000073       0.000367       0.000000
      0.000089       0.000219       0.000000
     -0.000023      -0.000112       0.000000
      0.000000      -0.000065       0.000000
     -0.000077      -0.000099       0.000000
     -0.000097      -0.000176       0.000000
      0.000000      -0.000065       0.000000
      0.000023      -0.000020       0.000000
     -0.000059      -0.000036       0.000000
     -0.000077      -0.000099       0.000000
     -0.000097      -0.000176       0.000000
     -0.000077      -0.000099       0.000000
     -0.000197      -0.000124       0.000000
     -0.000208      -0.000221       0.000000
     -0.000077      -0.000099       0.000000
     -0.000059      -0.000036       0.000000
     -0.000190      -0.000049       0.000000
     -0.000197      -0.000124       0.000000
      0.000023      -0.000020       0.000000
      0.000049       0.000033       0.000000
     -0.000037       0.000036       0.000000
     -0.000059      -0.000036       0.000000
      0.000049       0.000033       0.000000
      0.000075       0.000109       0.000000
     -0.000013       0.000144       0.000000
     -0.000037       0.000036       0.000000
     -0.000059      -0.000036       0.000000
     -0.000037       0.000036       0.000000
     -0.000183       0.000035       0.000000
     -0.000190      -0.000049       0.000000
     -0.000037       0.000036       0.000000
     -0.000013       0.000144       0.000000
     -0.000174       0.000166       0.000000
     -0.000183       0.000035       0.000000
      0.000075       0.000109       0.000000
      0.000089       0.000219       0.000000
      0.000004       0.000315       0.000000
     -0.000013       0.000144       0.000000
      0.000089       0.000219       0.000000
      0.000073       0.000367       0.000000
     -0.000015       0.000563       0.000000
      0.000004       0.000315       0.000000
     -0.000013       0.000144       0.000000
      0.000004       0.000315       0.000000
     -0.000165       0.000386       0.000000
     -0.000174       0.000166       0.000000
      0.000004       0.000315       0.000000
     -0.000015       0.000563       0.000000
     -0.000176       0.000745       0.000000
     -0.000165       0.000386       0.000000
     -0.000208      -0.000221       0.000000
     -0.000197      -0.000124       0.000000
     -0.000331      -0.000136       0.000000
     -0.000332      -0.000239       0.000000
     -0.000197      -0.000124       0.000000
     -0.000190      -0.000049       0.000000
     -0.000340      -0.000053       0.000000
     -0.000331      -0.000136       0.000000
     -0.000332      -0.000239       0.000000
     -0.000331      -0.000136       0.000000
     -0.000446      -0.000135       0.000000
     -0.000445      -0.000240       0.000000
     -0.000331      -0.000136       0.000000
     -0.000340      -0.000053       0.000000
     -0.000465      -0.000043       0.000000
     -0.000446      -0.000135       0.000000
     -0.000190      -0.000049       0.000000
     -0.000183       0.000035       0.000000
     -0.000361       0.000040       0.000000
     -0.000340      -0.000053       0.000000
     -0.000183       0.000035       0.000000
     -0.000174       0.000166       0.000000
     -0.000392       0.000182       0.000000
     -0.000361       0.000040       0.000000
     -0.000340      -0.000053       0.000000
     -0.000361       0.000040       0.000000
     -0.000519       0.000062       0.000000
     -0.000465      -0.000043       0.000000
     -0.000361       0.000040       0.000000
     -0.000392       0.000182       0.000000
     -0.000616       0.000215       0.000000
     -0.000519       0.000062       0.000000
     -0.000174       0.000166       0.000000
     -0.000169       0.000261       0.000000
     -0.000282       0.000275       0.000000
     -0.000278       0.000173       0.000000
     -0.000169       0.000261       0.000000
     -0.000165       0.000386       0.000000
     -0.000285       0.000409       0.000000
     -0.000282       0.000275       0.000000
     -0.000278       0.000173       0.000000
     -0.000282       0.000275       0.000000
     -0.000410       0.000287       0.000000
     -0.000392       0.000182       0.000000
     -0.000282       0.000275       0.000000
     -0.000285       0.000409       0.000000
     -0.000429       0.000427       0.000000
     -0.000410       0.000287       0.000000
     -0.000165       0.000386       0.000000
     -0.000165       0.000545       0.000000
     -0.000288       0.000585       0.000000
     -0.000285       0.000409       0.000000
     -0.000165       0.000545       0.000000
     -0.000176       0.000745       0.000000
     -0.000296       0.000818       0.000000
     -0.000288       0.000585       0.000000
     -0.000285       0.000409       0.000000
     -0.000288       0.000585       0.000000
     -0.000446       0.000613       0.000000
     -0.000429       0.000427       0.000000
     -0.000288       0.000585       0.000000
     -0.000296       0.000818       0.000000
     -0.000459       0.000869       0.000000
     -0.000446       0.000613       0.000000
     -0.000392       0.000182       0.000000
     -0.000410       0.000287       0.000000
     -0.000547       0.000303       0.000000
     -0.000509       0.000195       0.000000
     -0.000410       0.000287       0.000000
     -0.000429       0.000427       0.000000
     -0.000588       0.000447       0.000000
     -0.000547       0.000303       0.000000
     -0.000509       0.000195       0.000000
     -0.000547       0.000303       0.000000
     -0.000681       0.000327       0.000000
     -0.000616       0.000215       0.000000
     -0.000547       0.000303       0.000000
     -0.000588       0.000447       0.000000
     -0.000754       0.000473       0.000000
     -0.000681       0.000327       0.000000
     -0.000429       0.000427       0.000000
     -0.000438       0.000513       0.000000
     -0.000522       0.000524       0.000000
     -0.000507       0.000437       0.000000
     -0.000438       0.000513       0.000000
     -0.000446       0.000613       0.000000
     -0.000537       0.000625       0.000000
     -0.000522       0.000524       0.000000
     -0.000507       0.000437       0.000000
     -0.000522       0.000524       0.000000
     -0.000610       0.000536       0.000000
     -0.000588       0.000447       0.000000
     -0.000522       0.000524       0.000000
     -0.000537       0.000625       0.000000
     -0.000633       0.000638       0.000000
     -0.000610       0.000536       0.000000
     -0.000446       0.000613       0.000000
     -0.000453       0.000729       0.000000
     -0.000552       0.000742       0.000000
     -0.000537       0.000625       0.000000
     -0.000453       0.000729       0.000000
     -0.000459       0.000869       0.000000
     -0.000564       0.000885       0.000000
     -0.000552       0.000742       0.000000
     -0.000537       0.000625       0.000000
     -0.000552       0.000742       0.000000
     -0.000658       0.000755       0.000000
     -0.000633       0.000638       0.000000
     -0.000552       0.000742       0.000000
     -0.000564       0.000885       0.000000
     -0.000683       0.000897       0.000000
     -0.000658       0.000755       0.000000
     -0.000588       0.000447       0.000000
     -0.000610       0.000536       0.000000
     -0.000699       0.000549       0.000000
     -0.000670       0.000459       0.000000
     -0.000610       0.000536       0.000000
     -0.000633       0.000638       0.000000
     -0.000727       0.000653       0.000000
     -0.000699       0.000549       0.000000
     -0.000670       0.000459       0.000000
     -0.000699       0.000549       0.000000
     -0.000792       0.000564       0.000000
     -0.000754       0.000473       0.000000
     -0.000699       0.000549       0.000000
     -0.000727       0.000653       0.000000
     -0.000829       0.000668       0.000000
     -0.000792       0.000564       0.000000
     -0.000633       0.000638       0.000000
     -0.000645       0.000694       0.000000
     -0.000694       0.000702       0.000000
     -0.000680       0.000646       0.000000
     -0.000645       0.000694       0.000000
     -0.000658       0.000755       0.000000
     -0.000710       0.000763       0.000000
     -0.000694       0.000702       0.000000
     -0.000680       0.000646       0.000000
     -0.000694       0.000702       0.000000
     -0.000742       0.000711       0.000000
     -0.000727       0.000653       0.000000
     -0.000694       0.000702       0.000000
     -0.000710       0.000763       0.000000
     -0.000759       0.000772       0.000000
     -0.000742       0.000711       0.000000
     -0.000658       0.000755       0.000000
     -0.000671       0.000822       0.000000
     -0.000727       0.000829       0.000000
     -0.000710       0.000763       0.000000
     -0.000671       0.000822       0.000000
     -0.000683       0.000897       0.000000
     -0.000746       0.000904       0.000000
     -0.000727       0.000829       0.000000
     -0.000710       0.000763       0.000000
     -0.000727       0.000829       0.000000
     -0.000780       0.000838       0.000000
     -0.000759       0.000772       0.000000
     -0.000727       0.000829       0.000000
     -0.000746       0.000904       0.000000
     -0.000807       0.000916       0.000000
     -0.000780       0.000838       0.000000
     -0.000727       0.000653       0.000000
     -0.000742       0.000711       0.000000
     -0.000791       0.000719       0.000000
     -0.000776       0.000660       0.000000
     -0.000742       0.000711       0.000000
     -0.000759       0.000772       0.000000
     -0.000806       0.000781       0.000000
     -0.000791       0.000719       0.000000
     -0.000776       0.000660       0.000000
     -0.000791       0.000719       0.000000
     -0.000845       0.000726       0.000000
     -0.000829       0.000668       0.000000
     -0.000791       0.000719       0.000000
     -0.000806       0.000781       0.000000
     -0.000860       0.000794       0.000000
     -0.000845       0.000726       0.000000
     -0.000759       0.000772       0.000000
     -0.000780       0.000838       0.000000
     -0.000824       0.000849       0.000000
     -0.000806       0.000781       0.000000
     -0.000780       0.000838       0.000000
     -0.000807       0.000916       0.000000
     -0.000861       0.000957       0.000000
     -0.000824       0.000849       0.000000
     -0.000806       0.000781       0.000000
     -0.000824       0.000849       0.000000
     -0.000870       0.000909       0.000000
     -0.000860       0.000794       0.000000
     -0.000824       0.000849       0.000000
     -0.000861       0.000957       0.000000
     -0.001035       0.004881       0.000000
     -0.000870       0.000909       0.000000
      0.000000       0.000000       0.000000
      0.000000       0.000000       0.000000
      0.000049       0.000247       0.000000
      0.000085       0.000177       0.000000
      0.000000       0.000000       0.000000
      0.000000       0.000000       0.000000
     -0.000016       0.000311       0.000000
      0.000049       0.000247       0.000000
      0.000085       0.000177       0.000000
      0.000049       0.000247       0.000000
      0.000004       0.000532       0.000000
      0.000073       0.000367       0.000000
      0.000049       0.000247       0.000000
     -0.000016       0.000311       0.000000
     -0.000119       0.000683       0.000000
      0.000004       0.000532       0.000000
      0.000000       0.000000       0.000000
      0.000000       0.000000       0.000000
     -0.000106       0.000367       0.000000
     -0.000016       0.000311       0.000000
      0.000000       0.000000       0.000000
      0.000000       0.000000       0.000000
     -0.000217       0.000424       0.000000
     -0.000106       0.000367       0.000000
     -0.000016       0.000311       0.000000
     -0.000106       0.000367       0.000000
     -0.000286       0.000808       0.000000
     -0.000119       0.000683       0.000000
     -0.000106       0.000367       0.000000
     -0.000217       0.000424       0.000000
     -0.000481       0.000924       0.000000
     -0.000286       0.000808       0.000000
      0.000000       0.000000       0.000000
      0.000000       0.000000       0.000000
     -0.000373       0.000521       0.000000
     -0.000217       0.000424       0.000000
      0.000000       0.000000       0.000000
      0.000000       0.000000       0.000000
     -0.000607       0.000780       0.000000
     -0.000373       0.000521       0.000000
     -0.000217       0.000424       0.000000
     -0.000373       0.000521       0.000000
     -0.000701       0.001081       0.000000
     -0.000481       0.000924       0.000000
     -0.000373       0.000521       0.000000
     -0.000607       0.000780       0.000000
     -0.000930       0.001325       0.000000
     -0.000701       0.001081       0.000000
      0.000073       0.000367       0.000000
      0.000004       0.000532       0.000000
     -0.000108       0.000856       0.000000
     -0.000015       0.000563       0.000000
      0.000004       0.000532       0.000000
     -0.000119       0.000683       0.000000
     -0.000287       0.001121       0.000000
     -0.000108       0.000856       0.000000
     -0.000015       0.000563       0.000000
     -0.000108       0.000856       0.000000
     -0.000282       0.001228       0.000000
     -0.000176       0.000745       0.000000
     -0.000108       0.000856       0.000000
     -0.000287       0.001121       0.000000
     -0.000522       0.001643       0.000000
     -0.000282       0.001228       0.000000
     -0.000119       0.000683       0.000000
     -0.000286       0.000808       0.000000
     -0.000517       0.001313       0.000000
     -0.000287       0.001121       0.000000
     -0.000286       0.000808       0.000000
     -0.000481       0.000924       0.000000
     -0.000757       0.001457       0.000000
     -0.000517       0.001313       0.000000
     -0.000287       0.001121       0.000000
     -0.000517       0.001313       0.000000
     -0.000791       0.001870       0.000000
     -0.000522       0.001643       0.000000
     -0.000517       0.001313       0.000000
     -0.000757       0.001457       0.000000
     -0.001030       0.001993       0.000000
     -0.000791       0.001870       0.000000
     -0.000481       0.000924       0.000000
     -0.000701       0.001081       0.000000
     -0.000988       0.001611       0.000000
     -0.000757       0.001457       0.000000
     -0.000701       0.001081       0.000000
     -0.000930       0.001325       0.000000
     -0.001201       0.001825       0.000000
     -0.000988       0.001611       0.000000
     -0.000757       0.001457       0.000000
     -0.000988       0.001611       0.000000
     -0.001244       0.002107       0.000000
     -0.001030       0.001993       0.000000
     -0.000988       0.001611       0.000000
     -0.001201       0.001825       0.000000
     -0.001437       0.002274       0.000000
     -0.001244       0.002107       0.000000
     -0.000522       0.001643       0.000000
     -0.000791       0.001870       0.000000
     -0.001077       0.002441       0.000000
     -0.000864       0.002282       0.000000
     -0.000791       0.001870       0.000000
     -0.001030       0.001993       0.000000
     -0.001257       0.002505       0.000000
     -0.001077       0.002441       0.000000
     -0.001077       0.002441       0.000000
     -0.001257       0.002505       0.000000
     -0.001358       0.002978       0.000000
     -0.001230       0.002957       0.000000
     -0.001030       0.001993       0.000000
     -0.001244       0.002107       0.000000
     -0.001438       0.002568       0.000000
     -0.001257       0.002505       0.000000
     -0.001244       0.002107       0.000000
     -0.001437       0.002274       0.000000
     -0.001611       0.002667       0.000000
     -0.001438       0.002568       0.000000
     -0.001257       0.002505       0.000000
     -0.001438       0.002568       0.000000
     -0.001521       0.003003       0.000000
     -0.001358       0.002978       0.000000
     -0.001438       0.002568       0.000000
     -0.001611       0.002667       0.000000
     -0.001686       0.003025       0.000000
     -0.001521       0.003003       0.000000
     -0.000176       0.000745       0.000000
     -0.000211       0.000980       0.000000
     -0.000324       0.001114       0.000000
     -0.000296       0.000818       0.000000
     -0.000211       0.000980       0.000000
     -0.000282       0.001228       0.000000
     -0.000401       0.001441       0.000000
     -0.000324       0.001114       0.000000
     -0.000296       0.000818       0.000000
     -0.000324       0.001114       0.000000
     -0.000480       0.001237       0.000000
     -0.000459       0.000869       0.000000
     -0.000324       0.001114       0.000000
     -0.000401       0.001441       0.000000
     -0.000563       0.001690       0.000000
     -0.000480       0.001237       0.000000
     -0.000282       0.001228       0.000000
     -0.000391       0.001457       0.000000
     -0.000529       0.001735       0.000000
     -0.000401       0.001441       0.000000
     -0.000391       0.001457       0.000000
     -0.000522       0.001643       0.000000
     -0.000678       0.001947       0.000000
     -0.000529       0.001735       0.000000
     -0.000401       0.001441       0.000000
     -0.000529       0.001735       0.000000
     -0.000715       0.002069       0.000000
     -0.000563       0.001690       0.000000
     -0.000529       0.001735       0.000000
     -0.000678       0.001947       0.000000
     -0.000864       0.002282       0.000000