# vtk DataFile Version 2.0
time_10.vtk
ASCII
DATASET UNSTRUCTURED_GRID
POINTS  1152 float
      0.000000       0.000000       0.000000
      0.083333       0.000000       0.000000
      0.083333       0.083333       0.000000
      0.000000       0.083333       0.000000
      0.083333       0.000000       0.000000
      0.166667       0.000000       0.000000
      0.166667       0.083333       0.000000
      0.083333       0.083333       0.000000
      0.000000       0.083333       0.000000
      0.083333       0.083333       0.000000
      0.083333       0.166667       0.000000
      0.000000       0.166667       0.000000
      0.083333       0.083333       0.000000
      0.166667       0.083333       0.000000
      0.166667       0.166667       0.000000
      0.083333       0.166667       0.000000
      0.166667       0.000000       0.000000
      0.250000       0.000000       0.000000
      0.250000       0.083333       0.000000
      0.166667       0.083333       0.000000
      0.250000       0.000000       0.000000
      0.333333       0.000000       0.000000
      0.333333       0.083333       0.000000
      0.250000       0.083333       0.000000
      0.166667       0.083333       0.000000
      0.250000       0.083333       0.000000
      0.250000       0.166667       0.000000
      0.166667       0.166667       0.000000
      0.250000       0.083333       0.000000
      0.333333       0.083333       0.000000
      0.333333       0.166667       0.000000
      0.250000       0.166667       0.000000
      0.333333       0.000000       0.000000
      0.416667      -0.000000       0.000000
      0.416667       0.083333       0.000000
      0.333333       0.083333       0.000000
      0.416667      -0.000000       0.000000
      0.500000       0.000000       0.000000
      0.500000       0.083333       0.000000
      0.416667       0.083333       0.000000
      0.333333       0.083333       0.000000
      0.416667       0.083333       0.000000
      0.416667       0.166667       0.000000
      0.333333       0.166667       0.000000
      0.416667       0.083333       0.000000
      0.500000       0.083333       0.000000
      0.500000       0.166667       0.000000
      0.416667       0.166667       0.000000
      0.000000       0.166667       0.000000
      0.083333       0.166667       0.000000
      0.083333       0.250000       0.000000
      0.000000       0.250000       0.000000
      0.083333       0.166667       0.000000
      0.166667       0.166667       0.000000
      0.166667       0.250000       0.000000
      0.083333       0.250000       0.000000
      0.000000       0.250000       0.000000
      0.083333       0.250000       0.000000
      0.083333       0.333333       0.000000
      0.000000       0.333333       0.000000
      0.083333       0.250000       0.000000
      0.166667       0.250000       0.000000
      0.166667       0.333333       0.000000
      0.083333       0.333333       0.000000
      0.166667       0.166667       0.000000
      0.250000       0.166667       0.000000
      0.250000       0.250000       0.000000
      0.166667       0.250000       0.000000
      0.250000       0.166667       0.000000
      0.333333       0.166667       0.000000
      0.333333       0.250000       0.000000
      0.250000       0.250000       0.000000
      0.166667       0.250000       0.000000
      0.250000       0.250000       0.000000
      0.250000       0.333333       0.000000
      0.166667       0.333333       0.000000
      0.250000       0.250000       0.000000
      0.333333       0.250000       0.000000
      0.333333       0.333333       0.000000
      0.250000       0.333333       0.000000
      0.333333       0.166667       0.000000
      0.416667       0.166667       0.000000
      0.416667       0.250000       0.000000
      0.333333       0.250000       0.000000
      0.416667       0.166667       0.000000
      0.500000       0.166667       0.000000
      0.500000       0.250000       0.000000
      0.416667       0.250000       0.000000
      0.333333       0.250000       0.000000
      0.416667       0.250000       0.000000
      0.416667       0.333333       0.000000
      0.333333       0.333333       0.000000
      0.416667       0.250000       0.000000
      0.500000       0.250000       0.000000
      0.500000       0.333333       0.000000
      0.416667       0.333333       0.000000
      0.000000       0.333333       0.000000
      0.083333       0.333333       0.000000
      0.083333       0.416667       0.000000
     -0.000000       0.416667       0.000000
      0.083333       0.333333       0.000000
      0.166667       0.333333       0.000000
      0.166667       0.416667       0.000000
      0.083333       0.416667       0.000000
     -0.000000       0.416667       0.000000
      0.083333       0.416667       0.000000
      0.083333       0.500000       0.000000
      0.000000       0.500000       0.000000
      0.083333       0.416667       0.000000
      0.166667       0.416667       0.000000
      0.166667       0.500000       0.000000
      0.083333       0.500000       0.000000
      0.166667       0.333333       0.000000
      0.250000       0.333333       0.000000
      0.250000       0.416667       0.000000
      0.166667       0.416667       0.000000
      0.250000       0.333333       0.000000
      0.333333       0.333333       0.000000
      0.333333       0.416667       0.000000
      0.250000       0.416667       0.000000
      0.166667       0.416667       0.000000
      0.250000       0.416667       0.000000
      0.250000       0.500000       0.000000
      0.166667       0.500000       0.000000
      0.250000       0.416667       0.000000
      0.333333       0.416667       0.000000
      0.333333       0.500000       0.000000
      0.250000       0.500000       0.000000
      0.333333       0.333333       0.000000
      0.375000       0.333333       0.000000
      0.375000       0.375000       0.000000
      0.333333       0.375000       0.000000
      0.375000       0.333333       0.000000
      0.416667       0.333333       0.000000
      0.416667       0.375000       0.000000
      0.375000       0.375000       0.000000
      0.333333       0.375000       0.000000
      0.375000       0.375000       0.000000
      0.375000       0.416667       0.000000
      0.333333       0.416667       0.000000
      0.375000       0.375000       0.000000
      0.416667       0.375000       0.000000
      0.416667       0.416667       0.000000
      0.375000       0.416667       0.000000
      0.416667       0.333333       0.000000
      0.458333       0.333333       0.000000
      0.458333       0.375000       0.000000
      0.416667       0.375000       0.000000
      0.458333       0.333333       0.000000
      0.500000       0.333333       0.000000
      0.500000       0.375000       0.000000
      0.458333       0.375000       0.000000
      0.416667       0.375000       0.000000
      0.458333       0.375000       0.000000
      0.458333       0.416667       0.000000
      0.416667       0.416667       0.000000
      0.458333       0.375000       0.000000
      0.500000       0.375000       0.000000
      0.500000       0.416667       0.000000
      0.458333       0.416667       0.000000
      0.333333       0.416667       0.000000
      0.375000       0.416667       0.000000
      0.375000       0.458333       0.000000
      0.333333       0.458333       0.000000
      0.375000       0.416667       0.000000
      0.416667       0.416667       0.000000
      0.416667       0.458333       0.000000
      0.375000       0.458333       0.000000
      0.333333       0.458333       0.000000
      0.375000       0.458333       0.000000
      0.375000       0.500000       0.000000
      0.333333       0.500000       0.000000
      0.375000       0.458333       0.000000
      0.416667       0.458333       0.000000
      0.416667       0.500000       0.000000
      0.375000       0.500000       0.000000
      0.416667       0.416667       0.000000
      0.437500       0.416667       0.000000
      0.437500       0.437500       0.000000
      0.416667       0.437500       0.000000
      0.437500       0.416667       0.000000
      0.458333       0.416667       0.000000
      0.458333       0.437500       0.000000
      0.437500       0.437500       0.000000
      0.416667       0.437500       0.000000
      0.437500       0.437500       0.000000
      0.437500       0.458333       0.000000
      0.416667       0.458333       0.000000
      0.437500       0.437500       0.000000
      0.458333       0.437500       0.000000
      0.458333       0.458333       0.000000
      0.437500       0.458333       0.000000
      0.458333       0.416667       0.000000
      0.479167       0.416667       0.000000
      0.479167       0.437500       0.000000
      0.458333       0.437500       0.000000
      0.479167       0.416667       0.000000
      0.500000       0.416667       0.000000
      0.500000       0.437500       0.000000
      0.479167       0.437500       0.000000
      0.458333       0.437500       0.000000
      0.479167       0.437500       0.000000
      0.479167       0.458333       0.000000
      0.458333       0.458333       0.000000
      0.479167       0.437500       0.000000
      0.500000       0.437500       0.000000
      0.500000       0.458333       0.000000
      0.479167       0.458333       0.000000
      0.416667       0.458333       0.000000
      0.437500       0.458333       0.000000
      0.437500       0.479167       0.000000
      0.416667       0.479167       0.000000
      0.437500       0.458333       0.000000
      0.458333       0.458333       0.000000
      0.458333       0.479167       0.000000
      0.437500       0.479167       0.000000
      0.416667       0.479167       0.000000
      0.437500       0.479167       0.000000
      0.437500       0.500000       0.000000
      0.416667       0.500000       0.000000
[...]
POINT_DATA  1152
VECTORS U float 
      0.000000       0.000000       0.000000
      0.000000       0.000000       0.000000
      0.000073      -0.000014       0.000000
      0.000054      -0.000015       0.000000
      0.000000       0.000000       0.000000
      0.000000       0.000000       0.000000
      0.000092       0.000015       0.000000
      0.000073      -0.000014       0.000000
      0.000054      -0.000015       0.000000
      0.000073      -0.000014       0.000000
      0.000081      -0.000039       0.000000
      0.000057      -0.000081       0.000000
      0.000073      -0.000014       0.000000
      0.000092       0.000015       0.000000
      0.000103       0.000019       0.000000
      0.000081      -0.000039       0.000000
      0.000000       0.000000       0.000000
      0.000000       0.000000       0.000000
      0.000109       0.000054       0.000000
      0.000092       0.000015       0.000000
      0.000000       0.000000       0.000000
      0.000000       0.000000       0.000000
      0.000118       0.000105       0.000000
      0.000109       0.000054       0.000000
      0.000092       0.000015       0.000000
      0.000109       0.000054       0.000000
      0.000125       0.000098       0.000000
      0.000103       0.000019       0.000000
      0.000109       0.000054       0.000000
      0.000118       0.000105       0.000000
      0.000139       0.000207       0.000000
      0.000125       0.000098       0.000000
      0.000000       0.000000       0.000000
      0.000000       0.000000       0.000000
      0.000109       0.000167       0.000000
      0.000118       0.000105       0.000000
      0.000000       0.000000       0.000000
      0.000000       0.000000       0.000000
      0.000076       0.000232       0.000000
      0.000109       0.000167       0.000000
      0.000118       0.000105       0.000000
      0.000109       0.000167       0.000000
      0.000124       0.000347       0.000000
      0.000139       0.000207       0.000000
      0.000109       0.000167       0.000000
      0.000076       0.000232       0.000000
      0.000063       0.000499       0.000000
      0.000124       0.000347       0.000000
      0.000057      -0.000081       0.000000
      0.000081      -0.000039       0.000000
      0.000011      -0.000068       0.000000
     -0.000011      -0.000156       0.000000
      0.000081      -0.000039       0.000000
      0.000103       0.000019       0.000000
      0.000032       0.000017       0.000000
      0.000011      -0.000068       0.000000
     -0.000011      -0.000156       0.000000
      0.000011      -0.000068       0.000000
     -0.000124      -0.000094       0.000000
     -0.000138      -0.000213       0.000000
      0.000011      -0.000068       0.000000
      0.000032       0.000017       0.000000
     -0.000112       0.000010       0.000000
     -0.000124      -0.000094       0.000000
      0.000103       0.000019       0.000000
      0.000125       0.000098       0.000000
      0.000056       0.000129       0.000000
      0.000032       0.000017       0.000000
      0.000125       0.000098       0.000000
      0.000139       0.000207       0.000000
      0.000075       0.000297       0.000000
      0.000056       0.000129       0.000000
      0.000032       0.000017       0.000000
      0.000056       0.000129       0.000000
     -0.000097       0.000144       0.000000
     -0.000112       0.000010       0.000000
      0.000056       0.000129       0.000000
      0.000075       0.000297       0.000000
     -0.000077       0.000359       0.000000
     -0.000097       0.000144       0.000000
      0.000139       0.000207       0.000000
      0.000124       0.000347       0.000000
      0.000063       0.000532       0.000000
      0.000075       0.000297       0.000000
      0.000124       0.000347       0.000000
      0.000063       0.000499       0.000000
     -0.000017       0.000800       0.000000
      0.000063       0.000532       0.000000
      0.000075       0.000297       0.000000
      0.000063       0.000532       0.000000
     -0.000074       0.000703       0.000000
     -0.000077       0.000359       0.000000
      0.000063       0.000532       0.000000
     -0.000017       0.000800       0.000000
     -0.000159       0.001143       0.000000
     -0.000074       0.000703       0.000000
     -0.000138      -0.000213       0.000000
     -0.000124      -0.000094       0.000000
     -0.000291      -0.000107       0.000000
     -0.000293      -0.000239       0.000000
     -0.000124      -0.000094       0.000000
     -0.000112       0.000010       0.000000
     -0.000300       0.000007       0.000000
     -0.000291      -0.000107       0.000000
     -0.000293      -0.000239       0.000000
     -0.000291      -0.000107       0.000000
     -0.000442      -0.000106       0.000000
     -0.000441      -0.000241       0.000000
     -0.000291      -0.000107       0.000000
     -0.000300       0.000007       0.000000
     -0.000470       0.000020       0.000000
     -0.000442      -0.000106       0.000000
     -0.000112       0.000010       0.000000
     -0.000097       0.000144       0.000000
     -0.000318       0.000151       0.000000
     -0.000300       0.000007       0.000000
     -0.000097       0.000144       0.000000
     -0.000077       0.000359       0.000000
     -0.000334       0.000386       0.000000
     -0.000318       0.000151       0.000000
     -0.000300       0.000007       0.000000
     -0.000318       0.000151       0.000000
     -0.000544       0.000176       0.000000
     -0.000470       0.000020       0.000000
     -0.000318       0.000151       0.000000
     -0.000334       0.000386       0.000000
     -0.000672       0.000421       0.000000
     -0.000544       0.000176       0.000000
     -0.000077       0.000359       0.000000
     -0.000070       0.000514       0.000000
     -0.000183       0.000548       0.000000
     -0.000191       0.000376       0.000000
     -0.000070       0.000514       0.000000
     -0.000074       0.000703       0.000000
     -0.000181       0.000772       0.000000
     -0.000183       0.000548       0.000000
     -0.000191       0.000376       0.000000
     -0.000183       0.000548       0.000000
     -0.000336       0.000568       0.000000
     -0.000334       0.000386       0.000000
     -0.000183       0.000548       0.000000
     -0.000181       0.000772       0.000000
     -0.000332       0.000819       0.000000
     -0.000336       0.000568       0.000000
     -0.000074       0.000703       0.000000
     -0.000100       0.000920       0.000000
     -0.000199       0.001045       0.000000
     -0.000181       0.000772       0.000000
     -0.000100       0.000920       0.000000
     -0.000159       0.001143       0.000000
     -0.000260       0.001337       0.000000
     -0.000199       0.001045       0.000000
     -0.000181       0.000772       0.000000
     -0.000199       0.001045       0.000000
     -0.000336       0.001158       0.000000
     -0.000332       0.000819       0.000000
     -0.000199       0.001045       0.000000
     -0.000260       0.001337       0.000000
     -0.000393       0.001558       0.000000
     -0.000336       0.001158       0.000000
     -0.000334       0.000386       0.000000
     -0.000336       0.000568       0.000000
     -0.000534       0.000580       0.000000
     -0.000502       0.000397       0.000000
     -0.000336       0.000568       0.000000
     -0.000332       0.000819       0.000000
     -0.000557       0.000840       0.000000
     -0.000534       0.000580       0.000000
     -0.000502       0.000397       0.000000
     -0.000534       0.000580       0.000000
     -0.000758       0.000606       0.000000
     -0.000672       0.000421       0.000000
     -0.000534       0.000580       0.000000
     -0.000557       0.000840       0.000000
     -0.000860       0.000866       0.000000
     -0.000758       0.000606       0.000000
     -0.000332       0.000819       0.000000
     -0.000331       0.000977       0.000000
     -0.000431       0.001001       0.000000
     -0.000433       0.000832       0.000000
     -0.000331       0.000977       0.000000
     -0.000336       0.001158       0.000000
     -0.000430       0.001204       0.000000
     -0.000431       0.001001       0.000000
     -0.000433       0.000832       0.000000
     -0.000431       0.001001       0.000000
     -0.000560       0.001014       0.000000
     -0.000557       0.000840       0.000000
     -0.000431       0.001001       0.000000
     -0.000430       0.001204       0.000000
     -0.000556       0.001235       0.000000
     -0.000560       0.001014       0.000000
     -0.000336       0.001158       0.000000
     -0.000354       0.001357       0.000000
     -0.000441       0.001440       0.000000
     -0.000430       0.001204       0.000000
     -0.000354       0.001357       0.000000
     -0.000393       0.001558       0.000000
     -0.000480       0.001687       0.000000
     -0.000441       0.001440       0.000000
     -0.000430       0.001204       0.000000
     -0.000441       0.001440       0.000000
     -0.000555       0.001516       0.000000
     -0.000556       0.001235       0.000000
     -0.000441       0.001440       0.000000
     -0.000480       0.001687       0.000000
     -0.000589       0.001839       0.000000
     -0.000555       0.001516       0.000000
     -0.000557       0.000840       0.000000
     -0.000560       0.001014       0.000000
     -0.000726       0.001022       0.000000
     -0.000703       0.000848       0.000000
     -0.000560       0.001014       0.000000
     -0.000556       0.001235       0.000000
     -0.000739       0.001248       0.000000
     -0.000726       0.001022       0.000000
     -0.000703       0.000848       0.000000
     -0.000726       0.001022       0.000000
     -0.000919       0.001040       0.000000
     -0.000860       0.000866       0.000000
     -0.000726       0.001022       0.000000
     -0.000739       0.001248       0.000000
     -0.000986       0.001263       0.000000
     -0.000919       0.001040       0.000000
     -0.000556       0.001235       0.000000
     -0.000554       0.001368       0.000000
     -0.000634       0.001383       0.000000
     -0.000639       0.001243       0.000000
     -0.000554       0.001368       0.000000
     -0.000555       0.001516       0.000000
     -0.000630       0.001548       0.000000
     -0.000634       0.001383       0.000000
     -0.000639       0.001243       0.000000
     -0.000634       0.001383       0.000000
     -0.000737       0.001391       0.000000
     -0.000739       0.001248       0.000000
     -0.000634       0.001383       0.000000
     -0.000630       0.001548       0.000000
     -0.000730       0.001569       0.000000
     -0.000737       0.001391       0.000000
     -0.000555       0.001516       0.000000
     -0.000565       0.001677       0.000000
     -0.000635       0.001736       0.000000
     -0.000630       0.001548       0.000000
     -0.000565       0.001677       0.000000
     -0.000589       0.001839       0.000000
     -0.000659       0.001933       0.000000
     -0.000635       0.001736       0.000000
     -0.000630       0.001548       0.000000
     -0.000635       0.001736       0.000000
     -0.000723       0.001793       0.000000
     -0.000730       0.001569       0.000000
     -0.000635       0.001736       0.000000
     -0.000659       0.001933       0.000000
     -0.000744       0.002049       0.000000
     -0.000723       0.001793       0.000000
     -0.000739       0.001248       0.000000
     -0.000737       0.001391       0.000000
     -0.000870       0.001395       0.000000
     -0.000857       0.001252       0.000000
     -0.000737       0.001391       0.000000
     -0.000730       0.001569       0.000000
     -0.000873       0.001576       0.000000
     -0.000870       0.001395       0.000000
     -0.000857       0.001252       0.000000
     -0.000870       0.001395       0.000000
     -0.001025       0.001406       0.000000
     -0.000986       0.001263       0.000000
     -0.000870       0.001395       0.000000
     -0.000873       0.001576       0.000000
     -0.001070       0.001587       0.000000
     -0.001025       0.001406       0.000000
     -0.000730       0.001569       0.000000
     -0.000723       0.001793       0.000000
     -0.000858       0.001834       0.000000
     -0.000873       0.001576       0.000000
     -0.000723       0.001793       0.000000
     -0.000744       0.002049       0.000000
     -0.000867       0.002217       0.000000
     -0.000858       0.001834       0.000000
     -0.000873       0.001576       0.000000
     -0.000858       0.001834       0.000000
     -0.001129       0.001854       0.000000
     -0.001070       0.001587       0.000000
     -0.000858       0.001834       0.000000
     -0.000867       0.002217       0.000000
     -0.001194       0.002664       0.000000
     -0.001129       0.001854       0.000000
      0.000000       0.000000       0.000000
      0.000000       0.000000       0.000000
      0.000016       0.000289       0.000000
      0.000076       0.000232       0.000000
      0.000000       0.000000       0.000000
      0.000000       0.000000       0.000000
     -0.000061       0.000333       0.000000
      0.000016       0.000289       0.000000
      0.000076       0.000232       0.000000
      0.000016       0.000289       0.000000
     -0.000046       0.000631       0.000000
      0.000063       0.000499       0.000000
      0.000016       0.000289       0.000000
     -0.000061       0.000333       0.000000
     -0.000187       0.000728       0.000000
     -0.000046       0.000631       0.000000
      0.000000       0.000000       0.000000
      0.000000       0.000000       0.000000
     -0.000149       0.000366       0.000000
     -0.000061       0.000333       0.000000
      0.000000       0.000000       0.000000
      0.000000       0.000000       0.000000
     -0.000249       0.000404       0.000000
     -0.000149       0.000366       0.000000
     -0.000061       0.000333       0.000000
     -0.000149       0.000366       0.000000
     -0.000345       0.000798       0.000000
     -0.000187       0.000728       0.000000
     -0.000149       0.000366       0.000000
     -0.000249       0.000404       0.000000
     -0.000517       0.000871       0.000000
     -0.000345       0.000798       0.000000
      0.000000       0.000000       0.000000
      0.000000       0.000000       0.000000
     -0.000388       0.000484       0.000000
     -0.000249       0.000404       0.000000
      0.000000       0.000000       0.000000
      0.000000       0.000000       0.000000
     -0.000600       0.000729       0.000000
     -0.000388       0.000484       0.000000
     -0.000249       0.000404       0.000000
     -0.000388       0.000484       0.000000
     -0.000711       0.000995       0.000000
     -0.000517       0.000871       0.000000
     -0.000388       0.000484       0.000000
     -0.000600       0.000729       0.000000
     -0.000914       0.001214       0.000000
     -0.000711       0.000995       0.000000
      0.000063       0.000499       0.000000
     -0.000046       0.000631       0.000000
     -0.000171       0.001030       0.000000
     -0.000017       0.000800       0.000000
     -0.000046       0.000631       0.000000
     -0.000187       0.000728       0.000000
     -0.000364       0.001182       0.000000
     -0.000171       0.001030       0.000000
     -0.000017       0.000800       0.000000
     -0.000171       0.001030       0.000000
     -0.000361       0.001501       0.000000
     -0.000159       0.001143       0.000000
     -0.000171       0.001030       0.000000
     -0.000364       0.001182       0.000000
     -0.000585       0.001684       0.000000
     -0.000361       0.001501       0.000000
     -0.000187       0.000728       0.000000
     -0.000345       0.000798       0.000000
     -0.000564       0.001275       0.000000
     -0.000364       0.001182       0.000000
     -0.000345       0.000798       0.000000
     -0.000517       0.000871       0.000000
     -0.000764       0.001357       0.000000
     -0.000564       0.001275       0.000000
     -0.000364       0.001182       0.000000
     -0.000564       0.001275       0.000000
     -0.000787       0.001769       0.000000
     -0.000585       0.001684       0.000000
     -0.000564       0.001275       0.000000
     -0.000764       0.001357       0.000000
     -0.000977       0.001833       0.000000
     -0.000787       0.001769       0.000000
     -0.000517       0.000871       0.000000
     -0.000711       0.000995       0.000000
     -0.000963       0.001473       0.000000
     -0.000764       0.001357       0.000000
     -0.000711       0.000995       0.000000
     -0.000914       0.001214       0.000000
     -0.001152       0.001650       0.000000
     -0.000963       0.001473       0.000000
     -0.000764       0.001357       0.000000
     -0.000963       0.001473       0.000000
     -0.001164       0.001920       0.000000
     -0.000977       0.001833       0.000000
     -0.000963       0.001473       0.000000
     -0.001152       0.001650       0.000000
     -0.001338       0.002050       0.000000
     -0.001164       0.001920       0.000000
     -0.000585       0.001684       0.000000
     -0.000787       0.001769       0.000000
     -0.000974       0.002245       0.000000
     -0.000825       0.002201       0.000000
     -0.000787       0.001769       0.000000
     -0.000977       0.001833       0.000000
     -0.001133       0.002285       0.000000
     -0.000974       0.002245       0.000000
     -0.000825       0.002201       0.000000
     -0.000974       0.002245       0.000000
     -0.001060       0.002688       0.000000
     -0.000957       0.002670       0.000000
     -0.000974       0.002245       0.000000
     -0.001133       0.002285       0.000000
     -0.001201       0.002716       0.000000
     -0.001060       0.002688       0.000000
     -0.000977       0.001833       0.000000
     -0.001164       0.001920       0.000000
     -0.001302       0.002341       0.000000
     -0.001133       0.002285       0.000000
     -0.001164       0.001920       0.000000
     -0.001338       0.002050       0.000000
     -0.001466       0.002420       0.000000
     -0.001302       0.002341       0.000000
     -0.001133       0.002285       0.000000
     -0.001302       0.002341       0.000000
     -0.001362       0.002747       0.000000
     -0.001201       0.002716       0.000000
     -0.001302       0.002341       0.000000
     -0.001466       0.002420       0.000000
     -0.001523       0.002773       0.000000
     -0.001362       0.002747       0.000000
     -0.000159       0.001143       0.000000
     -0.000250       0.001344       0.000000
     -0.000366       0.001593       0.000000
     -0.000260       0.001337       0.000000
     -0.000250       0.001344       0.000000
     -0.000361       0.001501       0.000000
     -0.000489       0.001774       0.000000
     -0.000366       0.001593       0.000000
     -0.000260       0.001337       0.000000
     -0.000366       0.001593       0.000000
     -0.000520       0.001889       0.000000
     -0.000393       0.001558       0.000000
     -0.000366       0.001593       0.000000
     -0.000489       0.001774       0.000000
     -0.000647       0.002073       0.000000
     -0.000520       0.001889       0.000000
     -0.000361       0.001501       0.000000
     -0.000475       0.001612       0.000000
     -0.000605       0.001883       0.000000
     -0.000489       0.001774       0.000000
     -0.000475       0.001612       0.000000
     -0.000585       0.001684       0.000000
     -0.000707       0.001945       0.000000
     -0.000605       0.001883       0.000000
     -0.000489       0.001774       0.000000
     -0.000605       0.001883       0.000000
     -0.000745       0.002159       0.000000