# vtk DataFile Version 2.0
time_10.vtk
ASCII
DATASET UNSTRUCTURED_GRID
POINTS  2580 float
      0.000000       0.000000       0.000000
      0.083333       0.000000       0.000000
      0.083333       0.083333       0.000000
      0.000000       0.083333       0.000000
      0.083333       0.000000       0.000000
      0.166667       0.000000       0.000000
      0.166667       0.083333       0.000000
      0.083333       0.083333       0.000000
      0.000000       0.083333       0.000000
      0.083333       0.083333       0.000000
      0.083333       0.166667       0.000000
      0.000000       0.166667       0.000000
      0.083333       0.083333       0.000000
      0.166667       0.083333       0.000000
      0.166667       0.166667       0.000000
      0.083333       0.166667       0.000000
      0.166667       0.000000       0.000000
      0.250000       0.000000       0.000000
      0.250000       0.083333       0.000000
      0.166667       0.083333       0.000000
      0.250000       0.000000       0.000000
      0.333333       0.000000       0.000000
      0.333333       0.083333       0.000000
      0.250000       0.083333       0.000000
      0.166667       0.083333       0.000000
      0.250000       0.083333       0.000000
      0.250000       0.166667       0.000000
      0.166667       0.166667       0.000000
      0.250000       0.083333       0.000000
      0.333333       0.083333       0.000000
      0.333333       0.166667       0.000000
      0.250000       0.166667       0.000000
      0.333333       0.000000       0.000000
      0.416667      -0.000000       0.000000
      0.416667       0.083333       0.000000
      0.333333       0.083333       0.000000
      0.416667      -0.000000       0.000000
      0.500000       0.000000       0.000000
      0.500000       0.083333       0.000000
      0.416667       0.083333       0.000000
      0.333333       0.083333       0.000000
      0.416667       0.083333       0.000000
      0.416667       0.166667       0.000000
      0.333333       0.166667       0.000000
      0.416667       0.083333       0.000000
      0.500000       0.083333       0.000000
      0.500000       0.166667       0.000000
      0.416667       0.166667       0.000000
      0.000000       0.166667       0.000000
      0.083333       0.166667       0.000000
      0.083333       0.250000       0.000000
      0.000000       0.250000       0.000000
      0.083333       0.166667       0.000000
      0.166667       0.166667       0.000000
      0.166667       0.250000       0.000000
      0.083333       0.250000       0.000000
      0.000000       0.250000       0.000000
      0.083333       0.250000       0.000000
      0.083333       0.333333       0.000000
      0.000000       0.333333       0.000000
      0.083333       0.250000       0.000000
      0.166667       0.250000       0.000000
      0.166667       0.333333       0.000000
      0.083333       0.333333       0.000000
      0.166667       0.166667       0.000000
      0.250000       0.166667       0.000000
      0.250000       0.250000       0.000000
      0.166667       0.250000       0.000000
      0.250000       0.166667       0.000000
      0.333333       0.166667       0.000000
      0.333333       0.250000       0.000000
      0.250000       0.250000       0.000000
      0.166667       0.250000       0.000000
      0.250000       0.250000       0.000000
      0.250000       0.333333       0.000000
      0.166667       0.333333       0.000000
      0.250000       0.250000       0.000000
      0.333333       0.250000       0.000000
      0.333333       0.333333       0.000000
      0.250000       0.333333       0.000000
      0.333333       0.166667       0.000000
      0.416667       0.166667       0.000000
      0.416667       0.250000       0.000000
      0.333333       0.250000       0.000000
      0.416667       0.166667       0.000000
      0.500000       0.166667       0.000000
      0.500000       0.250000       0.000000
      0.416667       0.250000       0.000000
      0.333333       0.250000       0.000000
      0.416667       0.250000       0.000000
      0.416667       0.333333       0.000000
      0.333333       0.333333       0.000000
      0.416667       0.250000       0.000000
      0.500000       0.250000       0.000000
      0.500000       0.333333       0.000000
      0.416667       0.333333       0.000000
      0.000000       0.333333       0.000000
      0.083333       0.333333       0.000000
      0.083333       0.416667       0.000000
     -0.000000       0.416667       0.000000
      0.083333       0.333333       0.000000
      0.166667       0.333333       0.000000
      0.166667       0.416667       0.000000
      0.083333       0.416667       0.000000
     -0.000000       0.416667       0.000000
      0.083333       0.416667       0.000000
      0.083333       0.500000       0.000000
      0.000000       0.500000       0.000000
      0.083333       0.416667       0.000000
      0.166667       0.416667       0.000000
      0.166667       0.500000       0.000000
      0.083333       0.500000       0.000000
      0.166667       0.333333       0.000000
      0.250000       0.333333       0.000000
      0.250000       0.416667       0.000000
      0.166667       0.416667       0.000000
      0.250000       0.333333       0.000000
      0.333333       0.333333       0.000000
      0.333333       0.416667       0.000000
      0.250000       0.416667       0.000000
      0.166667       0.416667       0.000000
      0.250000       0.416667       0.000000
      0.250000       0.500000       0.000000
      0.166667       0.500000       0.000000
      0.250000       0.416667       0.000000
      0.333333       0.416667       0.000000
      0.333333       0.500000       0.000000
      0.250000       0.500000       0.000000
      0.333333       0.333333       0.000000
      0.375000       0.333333       0.000000
      0.375000       0.375000       0.000000
      0.333333       0.375000       0.000000
      0.375000       0.333333       0.000000
      0.416667       0.333333       0.000000
      0.416667       0.375000       0.000000
      0.375000       0.375000       0.000000
      0.333333       0.375000       0.000000
      0.375000       0.375000       0.000000
      0.375000       0.416667       0.000000
      0.333333       0.416667       0.000000
      0.375000       0.375000       0.000000
      0.416667       0.375000       0.000000
      0.416667       0.416667       0.000000
      0.375000       0.416667       0.000000
      0.416667       0.333333       0.000000
      0.458333       0.333333       0.000000
      0.458333       0.375000       0.000000
      0.416667       0.375000       0.000000
      0.458333       0.333333       0.000000
      0.500000       0.333333       0.000000
      0.500000       0.375000       0.000000
      0.458333       0.375000       0.000000
      0.416667       0.375000       0.000000
      0.458333       0.375000       0.000000
      0.458333       0.416667       0.000000
      0.416667       0.416667       0.000000
      0.458333       0.375000       0.000000
      0.500000       0.375000       0.000000
      0.500000       0.416667       0.000000
      0.458333       0.416667       0.000000
      0.333333       0.416667       0.000000
      0.375000       0.416667       0.000000
      0.375000       0.458333       0.000000
      0.333333       0.458333       0.000000
      0.375000       0.416667       0.000000
      0.416667       0.416667       0.000000
      0.416667       0.458333       0.000000
      0.375000       0.458333       0.000000
      0.333333       0.458333       0.000000
      0.375000       0.458333       0.000000
      0.375000       0.500000       0.000000
      0.333333       0.500000       0.000000
      0.375000       0.458333       0.000000
      0.416667       0.458333       0.000000
      0.416667       0.500000       0.000000
      0.375000       0.500000       0.000000
      0.416667       0.416667       0.000000
      0.437500       0.416667       0.000000
      0.437500       0.437500       0.000000
      0.416667       0.437500       0.000000
      0.437500       0.416667       0.000000
      0.458333       0.416667       0.000000
      0.458333       0.437500       0.000000
      0.437500       0.437500       0.000000
      0.416667       0.437500       0.000000
      0.437500       0.437500       0.000000
      0.437500       0.458333       0.000000
      0.416667       0.458333       0.000000
      0.437500       0.437500       0.000000
      0.458333       0.437500       0.000000
      0.458333       0.458333       0.000000
      0.437500       0.458333       0.000000
      0.458333       0.416667       0.000000
      0.479167       0.416667       0.000000
      0.479167       0.437500       0.000000
      0.458333       0.437500       0.000000
      0.479167       0.416667       0.000000
      0.500000       0.416667       0.000000
      0.500000       0.437500       0.000000
      0.479167       0.437500       0.000000
      0.458333       0.437500       0.000000
      0.479167       0.437500       0.000000
      0.479167       0.458333       0.000000
      0.458333       0.458333       0.000000
      0.479167       0.437500       0.000000
      0.500000       0.437500       0.000000
      0.500000       0.458333       0.000000
      0.479167       0.458333       0.000000
      0.416667       0.458333       0.000000
      0.437500       0.458333       0.000000
      0.437500       0.479167       0.000000
      0.416667       0.479167       0.000000
      0.437500       0.458333       0.000000
      0.458333       0.458333       0.000000
      0.458333       0.479167       0.000000
      0.437500       0.479167       0.000000
      0.416667       0.479167       0.000000
      0.437500       0.479167       0.000000
      0.437500       0.500000       0.000000
      0.416667       0.500000       0.000000
[...]
POINT_DATA  2580
VECTORS U float 
      0.000000       0.000000       0.000000
      0.000000       0.000000       0.000000
     -0.000047      -0.000028       0.000000
     -0.000061      -0.000060       0.000000
      0.000000       0.000000       0.000000
      0.000000       0.000000       0.000000
     -0.000042      -0.000017       0.000000
     -0.000047      -0.000028       0.000000
     -0.000061      -0.000060       0.000000
     -0.000047      -0.000028       0.000000
     -0.000104      -0.000054       0.000000
     -0.000114      -0.000094       0.000000
     -0.000047      -0.000028       0.000000
     -0.000042      -0.000017       0.000000
     -0.000096      -0.000035       0.000000
     -0.000104      -0.000054       0.000000
      0.000000       0.000000       0.000000
      0.000000       0.000000       0.000000
     -0.000037      -0.000012       0.000000
     -0.000042      -0.000017       0.000000
      0.000000       0.000000       0.000000
      0.000000       0.000000       0.000000
     -0.000030      -0.000008       0.000000
     -0.000037      -0.000012       0.000000
     -0.000042      -0.000017       0.000000
     -0.000037      -0.000012       0.000000
     -0.000090      -0.000026       0.000000
     -0.000096      -0.000035       0.000000
     -0.000037      -0.000012       0.000000
     -0.000030      -0.000008       0.000000
     -0.000083      -0.000020       0.000000
     -0.000090      -0.000026       0.000000
      0.000000       0.000000       0.000000
      0.000000       0.000000       0.000000
     -0.000018      -0.000002       0.000000
     -0.000030      -0.000008       0.000000
      0.000000       0.000000       0.000000
      0.000000       0.000000       0.000000
     -0.000001       0.000009       0.000000
     -0.000018      -0.000002       0.000000
     -0.000030      -0.000008       0.000000
     -0.000018      -0.000002       0.000000
     -0.000071      -0.000011       0.000000
     -0.000083      -0.000020       0.000000
     -0.000018      -0.000002       0.000000
     -0.000001       0.000009       0.000000
     -0.000052       0.000008       0.000000
     -0.000071      -0.000011       0.000000
     -0.000114      -0.000094       0.000000
     -0.000104      -0.000054       0.000000
     -0.000162      -0.000073       0.000000
     -0.000168      -0.000114       0.000000
     -0.000104      -0.000054       0.000000
     -0.000096      -0.000035       0.000000
     -0.000157      -0.000050       0.000000
     -0.000162      -0.000073       0.000000
     -0.000168      -0.000114       0.000000
     -0.000162      -0.000073       0.000000
     -0.000218      -0.000084       0.000000
     -0.000220      -0.000124       0.000000
     -0.000162      -0.000073       0.000000
     -0.000157      -0.000050       0.000000
     -0.000218      -0.000058       0.000000
     -0.000218      -0.000084       0.000000
     -0.000096      -0.000035       0.000000
     -0.000090      -0.000026       0.000000
     -0.000155      -0.000037       0.000000
     -0.000157      -0.000050       0.000000
     -0.000090      -0.000026       0.000000
     -0.000083      -0.000020       0.000000
     -0.000154      -0.000030       0.000000
     -0.000155      -0.000037       0.000000
     -0.000157      -0.000050       0.000000
     -0.000155      -0.000037       0.000000
     -0.000223      -0.000043       0.000000
     -0.000218      -0.000058       0.000000
     -0.000155      -0.000037       0.000000
     -0.000154      -0.000030       0.000000
     -0.000233      -0.000031       0.000000
     -0.000223      -0.000043       0.000000
     -0.000083      -0.000020       0.000000
     -0.000071      -0.000011       0.000000
     -0.000153      -0.000019       0.000000
     -0.000154      -0.000030       0.000000
     -0.000071      -0.000011       0.000000
     -0.000052       0.000008       0.000000
     -0.000148       0.000005       0.000000
     -0.000153      -0.000019       0.000000
     -0.000154      -0.000030       0.000000
     -0.000153      -0.000019       0.000000
     -0.000250      -0.000018       0.000000
     -0.000233      -0.000031       0.000000
     -0.000153      -0.000019       0.000000
     -0.000148       0.000005       0.000000
     -0.000273       0.000009       0.000000
     -0.000250      -0.000018       0.000000
     -0.000220      -0.000124       0.000000
     -0.000218      -0.000084       0.000000
     -0.000266      -0.000088       0.000000
     -0.000266      -0.000126       0.000000
     -0.000218      -0.000084       0.000000
     -0.000218      -0.000058       0.000000
     -0.000270      -0.000060       0.000000
     -0.000266      -0.000088       0.000000
     -0.000266      -0.000126       0.000000
     -0.000266      -0.000088       0.000000
     -0.000305      -0.000088       0.000000
     -0.000305      -0.000126       0.000000
     -0.000266      -0.000088       0.000000
     -0.000270      -0.000060       0.000000
     -0.000307      -0.000058       0.000000
     -0.000305      -0.000088       0.000000
     -0.000218      -0.000058       0.000000
     -0.000223      -0.000043       0.000000
     -0.000281      -0.000040       0.000000
     -0.000270      -0.000060       0.000000
     -0.000223      -0.000043       0.000000
     -0.000233      -0.000031       0.000000
     -0.000301      -0.000024       0.000000
     -0.000281      -0.000040       0.000000
     -0.000270      -0.000060       0.000000
     -0.000281      -0.000040       0.000000
     -0.000318      -0.000034       0.000000
     -0.000307      -0.000058       0.000000
     -0.000281      -0.000040       0.000000
     -0.000301      -0.000024       0.000000
     -0.000343      -0.000011       0.000000
     -0.000318      -0.000034       0.000000
     -0.000233      -0.000031       0.000000
     -0.000240      -0.000025       0.000000
     -0.000281      -0.000021       0.000000
     -0.000269      -0.000029       0.000000
     -0.000240      -0.000025       0.000000
     -0.000250      -0.000018       0.000000
     -0.000296      -0.000012       0.000000
     -0.000281      -0.000021       0.000000
     -0.000269      -0.000029       0.000000
     -0.000281      -0.000021       0.000000
     -0.000316      -0.000014       0.000000
     -0.000301      -0.000024       0.000000
     -0.000281      -0.000021       0.000000
     -0.000296      -0.000012       0.000000
     -0.000335      -0.000002       0.000000
     -0.000316      -0.000014       0.000000
     -0.000250      -0.000018       0.000000
     -0.000261      -0.000007       0.000000
     -0.000314      -0.000000       0.000000
     -0.000296      -0.000012       0.000000
     -0.000261      -0.000007       0.000000
     -0.000273       0.000009       0.000000
     -0.000336       0.000016       0.000000
     -0.000314      -0.000000       0.000000
     -0.000296      -0.000012       0.000000
     -0.000314      -0.000000       0.000000
     -0.000360       0.000012       0.000000
     -0.000335      -0.000002       0.000000
     -0.000314      -0.000000       0.000000
     -0.000336       0.000016       0.000000
     -0.000392       0.000029       0.000000
     -0.000360       0.000012       0.000000
     -0.000301      -0.000024       0.000000
     -0.000316      -0.000014       0.000000
     -0.000342      -0.000006       0.000000
     -0.000326      -0.000018       0.000000
     -0.000316      -0.000014       0.000000
     -0.000335      -0.000002       0.000000
     -0.000363       0.000010       0.000000
     -0.000342      -0.000006       0.000000
     -0.000326      -0.000018       0.000000
     -0.000342      -0.000006       0.000000
     -0.000361       0.000003       0.000000
     -0.000343      -0.000011       0.000000
     -0.000342      -0.000006       0.000000
     -0.000363       0.000010       0.000000
     -0.000383       0.000020       0.000000
     -0.000361       0.000003       0.000000
     -0.000335      -0.000002       0.000000
     -0.000347       0.000005       0.000000
     -0.000363       0.000012       0.000000
     -0.000350       0.000004       0.000000
     -0.000347       0.000005       0.000000
     -0.000360       0.000012       0.000000
     -0.000377       0.000020       0.000000
     -0.000363       0.000012       0.000000
     -0.000350       0.000004       0.000000
     -0.000363       0.000012       0.000000
     -0.000375       0.000019       0.000000
     -0.000363       0.000010       0.000000
     -0.000363       0.000012       0.000000
     -0.000377       0.000020       0.000000
     -0.000390       0.000028       0.000000
     -0.000375       0.000019       0.000000
     -0.000360       0.000012       0.000000
     -0.000375       0.000020       0.000000
     -0.000394       0.000028       0.000000
     -0.000377       0.000020       0.000000
     -0.000375       0.000020       0.000000
     -0.000392       0.000029       0.000000
     -0.000414       0.000038       0.000000
     -0.000394       0.000028       0.000000
     -0.000377       0.000020       0.000000
     -0.000394       0.000028       0.000000
     -0.000407       0.000038       0.000000
     -0.000390       0.000028       0.000000
     -0.000394       0.000028       0.000000
     -0.000414       0.000038       0.000000
     -0.000430       0.000048       0.000000
     -0.000407       0.000038       0.000000
     -0.000363       0.000010       0.000000
     -0.000375       0.000019       0.000000
     -0.000385       0.000025       0.000000
     -0.000374       0.000015       0.000000
     -0.000375       0.000019       0.000000
     -0.000390       0.000028       0.000000
     -0.000397       0.000036       0.000000
     -0.000385       0.000025       0.000000
     -0.000374       0.000015       0.000000
     -0.000385       0.000025       0.000000
     -0.000395       0.000030       0.000000
     -0.000383       0.000020       0.000000
     -0.000385       0.000025       0.000000
     -0.000397       0.000036       0.000000
     -0.000406       0.000041       0.000000
     -0.000395       0.000030       0.000000
     -0.000390       0.000028       0.000000
     -0.000398       0.000033       0.000000
     -0.000402       0.000038       0.000000
     -0.000394       0.000032       0.000000
     -0.000398       0.000033       0.000000
     -0.000407       0.000038       0.000000
     -0.000411       0.000043       0.000000
     -0.000402       0.000038       0.000000
     -0.000394       0.000032       0.000000
     -0.000402       0.000038       0.000000
     -0.000404       0.000042       0.000000
     -0.000397       0.000036       0.000000
     -0.000402       0.000038       0.000000
     -0.000411       0.000043       0.000000
     -0.000412       0.000048       0.000000
     -0.000404       0.000042       0.000000
     -0.000407       0.000038       0.000000
     -0.000418       0.000043       0.000000
     -0.000422       0.000048       0.000000
     -0.000411       0.000043       0.000000
     -0.000418       0.000043       0.000000
     -0.000430       0.000048       0.000000
     -0.000435       0.000054       0.000000
     -0.000422       0.000048       0.000000
     -0.000411       0.000043       0.000000
     -0.000422       0.000048       0.000000
     -0.000422       0.000054       0.000000
     -0.000412       0.000048       0.000000
     -0.000422       0.000048       0.000000
     -0.000435       0.000054       0.000000
     -0.000438       0.000065       0.000000
     -0.000422       0.000054       0.000000
     -0.000397       0.000036       0.000000
     -0.000404       0.000042       0.000000
     -0.000406       0.000045       0.000000
     -0.000401       0.000039       0.000000
     -0.000404       0.000042       0.000000
     -0.000412       0.000048       0.000000
     -0.000411       0.000052       0.000000
     -0.000406       0.000045       0.000000
     -0.000401       0.000039       0.000000
     -0.000406       0.000045       0.000000
     -0.000410       0.000048       0.000000
     -0.000406       0.000041       0.000000
     -0.000406       0.000045       0.000000
     -0.000411       0.000052       0.000000
     -0.000414       0.000062       0.000000
     -0.000410       0.000048       0.000000
     -0.000412       0.000048       0.000000
     -0.000422       0.000054       0.000000
     -0.000417       0.000060       0.000000
     -0.000411       0.000052       0.000000
     -0.000422       0.000054       0.000000
     -0.000438       0.000065       0.000000
     -0.000434       0.000113       0.000000
     -0.000417       0.000060       0.000000
     -0.000411       0.000052       0.000000
     -0.000417       0.000060       0.000000
     -0.000413       0.000132       0.000000
     -0.000414       0.000062       0.000000
     -0.000417       0.000060       0.000000
     -0.000434       0.000113       0.000000
     -0.000485       0.005920       0.000000
     -0.000413       0.000132       0.000000
      0.000000       0.000000       0.000000
      0.000000       0.000000       0.000000
      0.000020       0.000032       0.000000
     -0.000001       0.000009       0.000000
      0.000000       0.000000       0.000000
      0.000000       0.000000       0.000000
      0.000039       0.000072       0.000000
      0.000020       0.000032       0.000000
     -0.000001       0.000009       0.000000
      0.000020       0.000032       0.000000
     -0.000029       0.000051       0.000000
     -0.000052       0.000008       0.000000
      0.000020       0.000032       0.000000
      0.000039       0.000072       0.000000
     -0.000008       0.000132       0.000000
     -0.000029       0.000051       0.000000
      0.000000       0.000000       0.000000
      0.000000       0.000000       0.000000
      0.000043       0.000133       0.000000
      0.000039       0.000072       0.000000
      0.000000       0.000000       0.000000
      0.000000       0.000000       0.000000
      0.000013       0.000213       0.000000
      0.000043       0.000133       0.000000
      0.000039       0.000072       0.000000
      0.000043       0.000133       0.000000
     -0.000007       0.000266       0.000000
     -0.000008       0.000132       0.000000
      0.000043       0.000133       0.000000
      0.000013       0.000213       0.000000
     -0.000051       0.000451       0.000000
     -0.000007       0.000266       0.000000
      0.000000       0.000000       0.000000
      0.000000       0.000000       0.000000
     -0.000074       0.000309       0.000000
      0.000013       0.000213       0.000000
      0.000000       0.000000       0.000000
      0.000000       0.000000       0.000000
     -0.000226       0.000423       0.000000
     -0.000074       0.000309       0.000000
      0.000013       0.000213       0.000000
     -0.000074       0.000309       0.000000
     -0.000163       0.000664       0.000000
     -0.000051       0.000451       0.000000
     -0.000074       0.000309       0.000000
     -0.000226       0.000423       0.000000
     -0.000337       0.000843       0.000000
     -0.000163       0.000664       0.000000
     -0.000052       0.000008       0.000000
     -0.000029       0.000051       0.000000
     -0.000139       0.000062       0.000000
     -0.000148       0.000005       0.000000
     -0.000029       0.000051       0.000000
     -0.000008       0.000132       0.000000
     -0.000130       0.000180       0.000000
     -0.000139       0.000062       0.000000
     -0.000148       0.000005       0.000000
     -0.000139       0.000062       0.000000
     -0.000298       0.000074       0.000000
     -0.000273       0.000009       0.000000
     -0.000139       0.000062       0.000000
     -0.000130       0.000180       0.000000
     -0.000324       0.000216       0.000000
     -0.000298       0.000074       0.000000
     -0.000008       0.000132       0.000000
     -0.000007       0.000266       0.000000
     -0.000135       0.000387       0.000000
     -0.000130       0.000180       0.000000
     -0.000007       0.000266       0.000000
     -0.000051       0.000451       0.000000
     -0.000183       0.000690       0.000000
     -0.000135       0.000387       0.000000
     -0.000130       0.000180       0.000000
     -0.000135       0.000387       0.000000
     -0.000354       0.000484       0.000000
     -0.000324       0.000216       0.000000
     -0.000135       0.000387       0.000000
     -0.000183       0.000690       0.000000
     -0.000415       0.000921       0.000000
     -0.000354       0.000484       0.000000
     -0.000051       0.000451       0.000000
     -0.000163       0.000664       0.000000
     -0.000304       0.001043       0.000000
     -0.000183       0.000690       0.000000
     -0.000163       0.000664       0.000000
     -0.000337       0.000843       0.000000
     -0.000505       0.001342       0.000000
     -0.000304       0.001043       0.000000
     -0.000183       0.000690       0.000000
     -0.000304       0.001043       0.000000
     -0.000572       0.001463       0.000000
     -0.000415       0.000921       0.000000
     -0.000304       0.001043       0.000000
     -0.000505       0.001342       0.000000
     -0.000821       0.001958       0.000000
     -0.000572       0.001463       0.000000
     -0.000572       0.001463       0.000000
     -0.000821       0.001958       0.000000
     -0.001408       0.002648       0.000000
     -0.001074       0.002014       0.000000
     -0.000273       0.000009       0.000000
     -0.000285       0.000034       0.000000
     -0.000360       0.000043       0.000000
     -0.000336       0.000016       0.000000
     -0.000285       0.000034       0.000000
     -0.000298       0.000074       0.000000
     -0.000387       0.000085       0.000000
     -0.000360       0.000043       0.000000
     -0.000336       0.000016       0.000000
     -0.000360       0.000043       0.000000
     -0.000430       0.000058       0.000000
     -0.000392       0.000029       0.000000
     -0.000360       0.000043       0.000000
     -0.000387       0.000085       0.000000
     -0.000475       0.000102       0.000000
     -0.000430       0.000058       0.000000
     -0.000298       0.000074       0.000000
     -0.000311       0.000133       0.000000
     -0.000416       0.000146       0.000000
     -0.000387       0.000085       0.000000
     -0.000311       0.000133       0.000000
     -0.000324       0.000216       0.000000
     -0.000446       0.000233       0.000000
     -0.000416       0.000146       0.000000
     -0.000387       0.000085       0.000000
     -0.000416       0.000146       0.000000
     -0.000525       0.000165       0.000000
     -0.000475       0.000102       0.000000
     -0.000416       0.000146       0.000000
     -0.000446       0.000233       0.000000
     -0.000579       0.000256       0.000000
     -0.000525       0.000165       0.000000
     -0.000392       0.000029       0.000000
     -0.000410       0.000042       0.000000
     -0.000436       0.000051       0.000000
     -0.000414       0.000038       0.000000
     -0.000410       0.000042       0.000000
     -0.000430       0.000058       0.000000
     -0.000460       0.000068       0.000000
     -0.000436       0.000051       0.000000
     -0.000414       0.000038       0.000000
     -0.000436       0.000051       0.000000
     -0.000457       0.000062       0.000000
     -0.000430       0.000048       0.000000
     -0.000436       0.000051       0.000000
     -0.000460       0.000068       0.000000
     -0.000488       0.000082       0.000000
     -0.000457       0.000062       0.000000
     -0.000430       0.000058       0.000000
     -0.000452       0.000078       0.000000
     -0.000487       0.000089       0.000000
     -0.000460       0.000068       0.000000
     -0.000452       0.000078       0.000000
     -0.000475       0.000102       0.000000
     -0.000516       0.000114       0.000000