# vtk DataFile Version 2.0
time_10.vtk
ASCII
DATASET UNSTRUCTURED_GRID
POINTS  1152 float
      0.000000       0.000000       0.000000
      0.083333       0.000000       0.000000
      0.083333       0.083333       0.000000
      0.000000       0.083333       0.000000
      0.083333       0.000000       0.000000
      0.166667       0.000000       0.000000
      0.166667       0.083333       0.000000
      0.083333       0.083333       0.000000
      0.000000       0.083333       0.000000
      0.083333       0.083333       0.000000
      0.083333       0.166667       0.000000
      0.000000       0.166667       0.000000
      0.083333       0.083333       0.000000
      0.166667       0.083333       0.000000
      0.166667       0.166667       0.000000
      0.083333       0.166667       0.000000
      0.166667       0.000000       0.000000
      0.250000       0.000000       0.000000
      0.250000       0.083333       0.000000
      0.166667       0.083333       0.000000
      0.250000       0.000000       0.000000
      0.333333       0.000000       0.000000
      0.333333       0.083333       0.000000
      0.250000       0.083333       0.000000
      0.166667       0.083333       0.000000
      0.250000       0.083333       0.000000
      0.250000       0.166667       0.000000
      0.166667       0.166667       0.000000
      0.250000       0.083333       0.000000
      0.333333       0.083333       0.000000
      0.333333       0.166667       0.000000
      0.250000       0.166667       0.000000
      0.333333       0.000000       0.000000
      0.416667      -0.000000       0.000000
      0.416667       0.083333       0.000000
      0.333333       0.083333       0.000000
      0.416667      -0.000000       0.000000
      0.500000       0.000000       0.000000
      0.500000       0.083333       0.000000
      0.416667       0.083333       0.000000
      0.333333       0.083333       0.000000
      0.416667       0.083333       0.000000
      0.416667       0.166667       0.000000
      0.333333       0.166667       0.000000
      0.416667       0.083333       0.000000
      0.500000       0.083333       0.000000
      0.500000       0.166667       0.000000
      0.416667       0.166667       0.000000
      0.000000       0.166667       0.000000
      0.083333       0.166667       0.000000
      0.083333       0.250000       0.000000
      0.000000       0.250000       0.000000
      0.083333       0.166667       0.000000
      0.166667       0.166667       0.000000
      0.166667       0.250000       0.000000
      0.083333       0.250000       0.000000
      0.000000       0.250000       0.000000
      0.083333       0.250000       0.000000
      0.083333       0.333333       0.000000
      0.000000       0.333333       0.000000
      0.083333       0.250000       0.000000
      0.166667       0.250000       0.000000
      0.166667       0.333333       0.000000
      0.083333       0.333333       0.000000
      0.166667       0.166667       0.000000
      0.250000       0.166667       0.000000
      0.250000       0.250000       0.000000
      0.166667       0.250000       0.000000
      0.250000       0.166667       0.000000
      0.333333       0.166667       0.000000
      0.333333       0.250000       0.000000
      0.250000       0.250000       0.000000
      0.166667       0.250000       0.000000
      0.250000       0.250000       0.000000
      0.250000       0.333333       0.000000
      0.166667       0.333333       0.000000
      0.250000       0.250000       0.000000
      0.333333       0.250000       0.000000
      0.333333       0.333333       0.000000
      0.250000       0.333333       0.000000
      0.333333       0.166667       0.000000
      0.416667       0.166667       0.000000
      0.416667       0.250000       0.000000
      0.333333       0.250000       0.000000
      0.416667       0.166667       0.000000
      0.500000       0.166667       0.000000
      0.500000       0.250000       0.000000
      0.416667       0.250000       0.000000
      0.333333       0.250000       0.000000
      0.416667       0.250000       0.000000
      0.416667       0.333333       0.000000
      0.333333       0.333333       0.000000
      0.416667       0.250000       0.000000
      0.500000       0.250000       0.000000
      0.500000       0.333333       0.000000
      0.416667       0.333333       0.000000
      0.000000       0.333333       0.000000
      0.083333       0.333333       0.000000
      0.083333       0.416667       0.000000
     -0.000000       0.416667       0.000000
      0.083333       0.333333       0.000000
      0.166667       0.333333       0.000000
      0.166667       0.416667       0.000000
      0.083333       0.416667       0.000000
     -0.000000       0.416667       0.000000
      0.083333       0.416667       0.000000
      0.083333       0.500000       0.000000
      0.000000       0.500000       0.000000
      0.083333       0.416667       0.000000
      0.166667       0.416667       0.000000
      0.166667       0.500000       0.000000
      0.083333       0.500000       0.000000
      0.166667       0.333333       0.000000
      0.250000       0.333333       0.000000
      0.250000       0.416667       0.000000
      0.166667       0.416667       0.000000
      0.250000       0.333333       0.000000
      0.333333       0.333333       0.000000
      0.333333       0.416667       0.000000
      0.250000       0.416667       0.000000
      0.166667       0.416667       0.000000
      0.250000       0.416667       0.000000
      0.250000       0.500000       0.000000
      0.166667       0.500000       0.000000
      0.250000       0.416667       0.000000
      0.333333       0.416667       0.000000
      0.333333       0.500000       0.000000
      0.250000       0.500000       0.000000
      0.333333       0.333333       0.000000
      0.375000       0.333333       0.000000
      0.375000       0.375000       0.000000
      0.333333       0.375000       0.000000
      0.375000       0.333333       0.000000
      0.416667       0.333333       0.000000
      0.416667       0.375000       0.000000
      0.375000       0.375000       0.000000
      0.333333       0.375000       0.000000
      0.375000       0.375000       0.000000
      0.375000       0.416667       0.000000
      0.333333       0.416667       0.000000
      0.375000       0.375000       0.000000
      0.416667       0.375000       0.000000
      0.416667       0.416667       0.000000
      0.375000       0.416667       0.000000
      0.416667       0.333333       0.000000
      0.458333       0.333333       0.000000
      0.458333       0.375000       0.000000
      0.416667       0.375000       0.000000
      0.458333       0.333333       0.000000
      0.500000       0.333333       0.000000
      0.500000       0.375000       0.000000
      0.458333       0.375000       0.000000
      0.416667       0.375000       0.000000
      0.458333       0.375000       0.000000
      0.458333       0.416667       0.000000
      0.416667       0.416667       0.000000
      0.458333       0.375000       0.000000
      0.500000       0.375000       0.000000
      0.500000       0.416667       0.000000
      0.458333       0.416667       0.000000
      0.333333       0.416667       0.000000
      0.375000       0.416667       0.000000
      0.375000       0.458333       0.000000
      0.333333       0.458333       0.000000
      0.375000       0.416667       0.000000
      0.416667       0.416667       0.000000
      0.416667       0.458333       0.000000
      0.375000       0.458333       0.000000
      0.333333       0.458333       0.000000
      0.375000       0.458333       0.000000
      0.375000       0.500000       0.000000
      0.333333       0.500000       0.000000
      0.375000       0.458333       0.000000
      0.416667       0.458333       0.000000
      0.416667       0.500000       0.000000
      0.375000       0.500000       0.000000
      0.416667       0.416667       0.000000
      0.437500       0.416667       0.000000
      0.437500       0.437500       0.000000
      0.416667       0.437500       0.000000
      0.437500       0.416667       0.000000
      0.458333       0.416667       0.000000
      0.458333       0.437500       0.000000
      0.437500       0.437500       0.000000
      0.416667       0.437500       0.000000
      0.437500       0.437500       0.000000
      0.437500       0.458333       0.000000
      0.416667       0.458333       0.000000
      0.437500       0.437500       0.000000
      0.458333       0.437500       0.000000
      0.458333       0.458333       0.000000
      0.437500       0.458333       0.000000
      0.458333       0.416667       0.000000
      0.479167       0.416667       0.000000
      0.479167       0.437500       0.000000
      0.458333       0.437500       0.000000
      0.479167       0.416667       0.000000
      0.500000       0.416667       0.000000
      0.500000       0.437500       0.000000
      0.479167       0.437500       0.000000
      0.458333       0.437500       0.000000
      0.479167       0.437500       0.000000
      0.479167       0.458333       0.000000
      0.458333       0.458333       0.000000
      0.479167       0.437500       0.000000
      0.500000       0.437500       0.000000
      0.500000       0.458333       0.000000
      0.479167       0.458333       0.000000
      0.416667       0.458333       0.000000
      0.437500       0.458333       0.000000
      0.437500       0.479167       0.000000
      0.416667       0.479167       0.000000
      0.437500       0.458333       0.000000
      0.458333       0.458333       0.000000
      0.458333       0.479167       0.000000
      0.437500       0.479167       0.000000
      0.416667       0.479167       0.000000
      0.437500       0.479167       0.000000
      0.437500       0.500000       0.000000
      0.416667       0.500000       0.000000
[...]
POINT_DATA  1152
VECTORS U float 
      0.000000       0.000000       0.000000
      0.000000       0.000000       0.000000
      0.000073      -0.000015       0.000000
      0.000054      -0.000015       0.000000
      0.000000       0.000000       0.000000
      0.000000       0.000000       0.000000
      0.000092       0.000015       0.000000
      0.000073      -0.000015       0.000000
      0.000054      -0.000015       0.000000
      0.000073      -0.000015       0.000000
      0.000081      -0.000039       0.000000
      0.000057      -0.000082       0.000000
      0.000073      -0.000015       0.000000
      0.000092       0.000015       0.000000
      0.000103       0.000019       0.000000
      0.000081      -0.000039       0.000000
      0.000000       0.000000       0.000000
      0.000000       0.000000       0.000000
      0.000109       0.000054       0.000000
      0.000092       0.000015       0.000000
      0.000000       0.000000       0.000000
      0.000000       0.000000       0.000000
      0.000118       0.000106       0.000000
      0.000109       0.000054       0.000000
      0.000092       0.000015       0.000000
      0.000109       0.000054       0.000000
      0.000126       0.000098       0.000000
      0.000103       0.000019       0.000000
      0.000109       0.000054       0.000000
      0.000118       0.000106       0.000000
      0.000139       0.000208       0.000000
      0.000126       0.000098       0.000000
      0.000000       0.000000       0.000000
      0.000000       0.000000       0.000000
      0.000110       0.000168       0.000000
      0.000118       0.000106       0.000000
      0.000000       0.000000       0.000000
      0.000000       0.000000       0.000000
      0.000076       0.000233       0.000000
      0.000110       0.000168       0.000000
      0.000118       0.000106       0.000000
      0.000110       0.000168       0.000000
      0.000124       0.000348       0.000000
      0.000139       0.000208       0.000000
      0.000110       0.000168       0.000000
      0.000076       0.000233       0.000000
      0.000063       0.000500       0.000000
      0.000124       0.000348       0.000000
      0.000057      -0.000082       0.000000
      0.000081      -0.000039       0.000000
      0.000011      -0.000069       0.000000
     -0.000011      -0.000157       0.000000
      0.000081      -0.000039       0.000000
      0.000103       0.000019       0.000000
      0.000031       0.000017       0.000000
      0.000011      -0.000069       0.000000
     -0.000011      -0.000157       0.000000
      0.000011      -0.000069       0.000000
     -0.000125      -0.000094       0.000000
     -0.000139      -0.000214       0.000000
      0.000011      -0.000069       0.000000
      0.000031       0.000017       0.000000
     -0.000113       0.000010       0.000000
     -0.000125      -0.000094       0.000000
      0.000103       0.000019       0.000000
      0.000126       0.000098       0.000000
      0.000055       0.000129       0.000000
      0.000031       0.000017       0.000000
      0.000126       0.000098       0.000000
      0.000139       0.000208       0.000000
      0.000075       0.000298       0.000000
      0.000055       0.000129       0.000000
      0.000031       0.000017       0.000000
      0.000055       0.000129       0.000000
     -0.000098       0.000144       0.000000
     -0.000113       0.000010       0.000000
      0.000055       0.000129       0.000000
      0.000075       0.000298       0.000000
     -0.000077       0.000360       0.000000
     -0.000098       0.000144       0.000000
      0.000139       0.000208       0.000000
      0.000124       0.000348       0.000000
      0.000062       0.000533       0.000000
      0.000075       0.000298       0.000000
      0.000124       0.000348       0.000000
      0.000063       0.000500       0.000000
     -0.000017       0.000803       0.000000
      0.000062       0.000533       0.000000
      0.000075       0.000298       0.000000
      0.000062       0.000533       0.000000
     -0.000075       0.000705       0.000000
     -0.000077       0.000360       0.000000
      0.000062       0.000533       0.000000
     -0.000017       0.000803       0.000000
     -0.000160       0.001147       0.000000
     -0.000075       0.000705       0.000000
     -0.000139      -0.000214       0.000000
     -0.000125      -0.000094       0.000000
     -0.000293      -0.000108       0.000000
     -0.000295      -0.000241       0.000000
     -0.000125      -0.000094       0.000000
     -0.000113       0.000010       0.000000
     -0.000302       0.000007       0.000000
     -0.000293      -0.000108       0.000000
     -0.000295      -0.000241       0.000000
     -0.000293      -0.000108       0.000000
     -0.000445      -0.000106       0.000000
     -0.000443      -0.000243       0.000000
     -0.000293      -0.000108       0.000000
     -0.000302       0.000007       0.000000
     -0.000473       0.000020       0.000000
     -0.000445      -0.000106       0.000000
     -0.000113       0.000010       0.000000
     -0.000098       0.000144       0.000000
     -0.000320       0.000151       0.000000
     -0.000302       0.000007       0.000000
     -0.000098       0.000144       0.000000
     -0.000077       0.000360       0.000000
     -0.000336       0.000387       0.000000
     -0.000320       0.000151       0.000000
     -0.000302       0.000007       0.000000
     -0.000320       0.000151       0.000000
     -0.000547       0.000176       0.000000
     -0.000473       0.000020       0.000000
     -0.000320       0.000151       0.000000
     -0.000336       0.000387       0.000000
     -0.000675       0.000422       0.000000
     -0.000547       0.000176       0.000000
     -0.000077       0.000360       0.000000
     -0.000070       0.000515       0.000000
     -0.000185       0.000550       0.000000
     -0.000193       0.000377       0.000000
     -0.000070       0.000515       0.000000
     -0.000075       0.000705       0.000000
     -0.000182       0.000774       0.000000
     -0.000185       0.000550       0.000000
     -0.000193       0.000377       0.000000
     -0.000185       0.000550       0.000000
     -0.000338       0.000569       0.000000
     -0.000336       0.000387       0.000000
     -0.000185       0.000550       0.000000
     -0.000182       0.000774       0.000000
     -0.000334       0.000821       0.000000
     -0.000338       0.000569       0.000000
     -0.000075       0.000705       0.000000
     -0.000101       0.000923       0.000000
     -0.000201       0.001048       0.000000
     -0.000182       0.000774       0.000000
     -0.000101       0.000923       0.000000
     -0.000160       0.001147       0.000000
     -0.000262       0.001342       0.000000
     -0.000201       0.001048       0.000000
     -0.000182       0.000774       0.000000
     -0.000201       0.001048       0.000000
     -0.000338       0.001162       0.000000
     -0.000334       0.000821       0.000000
     -0.000201       0.001048       0.000000
     -0.000262       0.001342       0.000000
     -0.000396       0.001564       0.000000
     -0.000338       0.001162       0.000000
     -0.000336       0.000387       0.000000
     -0.000338       0.000569       0.000000
     -0.000537       0.000582       0.000000
     -0.000505       0.000398       0.000000
     -0.000338       0.000569       0.000000
     -0.000334       0.000821       0.000000
     -0.000560       0.000842       0.000000
     -0.000537       0.000582       0.000000
     -0.000505       0.000398       0.000000
     -0.000537       0.000582       0.000000
     -0.000761       0.000608       0.000000
     -0.000675       0.000422       0.000000
     -0.000537       0.000582       0.000000
     -0.000560       0.000842       0.000000
     -0.000864       0.000869       0.000000
     -0.000761       0.000608       0.000000
     -0.000334       0.000821       0.000000
     -0.000333       0.000980       0.000000
     -0.000434       0.001004       0.000000
     -0.000436       0.000834       0.000000
     -0.000333       0.000980       0.000000
     -0.000338       0.001162       0.000000
     -0.000433       0.001208       0.000000
     -0.000434       0.001004       0.000000
     -0.000436       0.000834       0.000000
     -0.000434       0.001004       0.000000
     -0.000563       0.001017       0.000000
     -0.000560       0.000842       0.000000
     -0.000434       0.001004       0.000000
     -0.000433       0.001208       0.000000
     -0.000560       0.001239       0.000000
     -0.000563       0.001017       0.000000
     -0.000338       0.001162       0.000000
     -0.000357       0.001361       0.000000
     -0.000444       0.001444       0.000000
     -0.000433       0.001208       0.000000
     -0.000357       0.001361       0.000000
     -0.000396       0.001564       0.000000
     -0.000483       0.001692       0.000000
     -0.000444       0.001444       0.000000
     -0.000433       0.001208       0.000000
     -0.000444       0.001444       0.000000
     -0.000558       0.001521       0.000000
     -0.000560       0.001239       0.000000
     -0.000444       0.001444       0.000000
     -0.000483       0.001692       0.000000
     -0.000593       0.001845       0.000000
     -0.000558       0.001521       0.000000
     -0.000560       0.000842       0.000000
     -0.000563       0.001017       0.000000
     -0.000730       0.001026       0.000000
     -0.000707       0.000851       0.000000
     -0.000563       0.001017       0.000000
     -0.000560       0.001239       0.000000
     -0.000743       0.001251       0.000000
     -0.000730       0.001026       0.000000
     -0.000707       0.000851       0.000000
     -0.000730       0.001026       0.000000
     -0.000924       0.001043       0.000000
     -0.000864       0.000869       0.000000
     -0.000730       0.001026       0.000000
     -0.000743       0.001251       0.000000
     -0.000991       0.001267       0.000000
     -0.000924       0.001043       0.000000
     -0.000560       0.001239       0.000000
     -0.000557       0.001372       0.000000
     -0.000638       0.001387       0.000000
     -0.000642       0.001247       0.000000
     -0.000557       0.001372       0.000000
     -0.000558       0.001521       0.000000
     -0.000634       0.001552       0.000000
     -0.000638       0.001387       0.000000
     -0.000642       0.001247       0.000000
     -0.000638       0.001387       0.000000
     -0.000741       0.001395       0.000000
     -0.000743       0.001251       0.000000
     -0.000638       0.001387       0.000000
     -0.000634       0.001552       0.000000
     -0.000734       0.001573       0.000000
     -0.000741       0.001395       0.000000
     -0.000558       0.001521       0.000000
     -0.000569       0.001682       0.000000
     -0.000638       0.001741       0.000000
     -0.000634       0.001552       0.000000
     -0.000569       0.001682       0.000000
     -0.000593       0.001845       0.000000
     -0.000662       0.001939       0.000000
     -0.000638       0.001741       0.000000
     -0.000634       0.001552       0.000000
     -0.000638       0.001741       0.000000
     -0.000727       0.001798       0.000000
     -0.000734       0.001573       0.000000
     -0.000638       0.001741       0.000000
     -0.000662       0.001939       0.000000
     -0.000749       0.002055       0.000000
     -0.000727       0.001798       0.000000
     -0.000743       0.001251       0.000000
     -0.000741       0.001395       0.000000
     -0.000874       0.001399       0.000000
     -0.000861       0.001256       0.000000
     -0.000741       0.001395       0.000000
     -0.000734       0.001573       0.000000
     -0.000878       0.001581       0.000000
     -0.000874       0.001399       0.000000
     -0.000861       0.001256       0.000000
     -0.000874       0.001399       0.000000
     -0.001030       0.001410       0.000000
     -0.000991       0.001267       0.000000
     -0.000874       0.001399       0.000000
     -0.000878       0.001581       0.000000
     -0.001075       0.001592       0.000000
     -0.001030       0.001410       0.000000
     -0.000734       0.001573       0.000000
     -0.000727       0.001798       0.000000
     -0.000862       0.001839       0.000000
     -0.000878       0.001581       0.000000
     -0.000727       0.001798       0.000000
     -0.000749       0.002055       0.000000
     -0.000872       0.002225       0.000000
     -0.000862       0.001839       0.000000
     -0.000878       0.001581       0.000000
     -0.000862       0.001839       0.000000
     -0.001135       0.001860       0.000000
     -0.001075       0.001592       0.000000
     -0.000862       0.001839       0.000000
     -0.000872       0.002225       0.000000
     -0.001202       0.002678       0.000000
     -0.001135       0.001860       0.000000
      0.000000       0.000000       0.000000
      0.000000       0.000000       0.000000
      0.000017       0.000290       0.000000
      0.000076       0.000233       0.000000
      0.000000       0.000000       0.000000
      0.000000       0.000000       0.000000
     -0.000061       0.000334       0.000000
      0.000017       0.000290       0.000000
      0.000076       0.000233       0.000000
      0.000017       0.000290       0.000000
     -0.000046       0.000634       0.000000
      0.000063       0.000500       0.000000
      0.000017       0.000290       0.000000
     -0.000061       0.000334       0.000000
     -0.000188       0.000732       0.000000
     -0.000046       0.000634       0.000000
      0.000000       0.000000       0.000000
      0.000000       0.000000       0.000000
     -0.000149       0.000368       0.000000
     -0.000061       0.000334       0.000000
      0.000000       0.000000       0.000000
      0.000000       0.000000       0.000000
     -0.000251       0.000406       0.000000
     -0.000149       0.000368       0.000000
     -0.000061       0.000334       0.000000
     -0.000149       0.000368       0.000000
     -0.000347       0.000802       0.000000
     -0.000188       0.000732       0.000000
     -0.000149       0.000368       0.000000
     -0.000251       0.000406       0.000000
     -0.000520       0.000876       0.000000
     -0.000347       0.000802       0.000000
      0.000000       0.000000       0.000000
      0.000000       0.000000       0.000000
     -0.000390       0.000486       0.000000
     -0.000251       0.000406       0.000000
      0.000000       0.000000       0.000000
      0.000000       0.000000       0.000000
     -0.000603       0.000734       0.000000
     -0.000390       0.000486       0.000000
     -0.000251       0.000406       0.000000
     -0.000390       0.000486       0.000000
     -0.000715       0.001001       0.000000
     -0.000520       0.000876       0.000000
     -0.000390       0.000486       0.000000
     -0.000603       0.000734       0.000000
     -0.000919       0.001221       0.000000
     -0.000715       0.001001       0.000000
      0.000063       0.000500       0.000000
     -0.000046       0.000634       0.000000
     -0.000171       0.001035       0.000000
     -0.000017       0.000803       0.000000
     -0.000046       0.000634       0.000000
     -0.000188       0.000732       0.000000
     -0.000366       0.001188       0.000000
     -0.000171       0.001035       0.000000
     -0.000017       0.000803       0.000000
     -0.000171       0.001035       0.000000
     -0.000363       0.001508       0.000000
     -0.000160       0.001147       0.000000
     -0.000171       0.001035       0.000000
     -0.000366       0.001188       0.000000
     -0.000588       0.001693       0.000000
     -0.000363       0.001508       0.000000
     -0.000188       0.000732       0.000000
     -0.000347       0.000802       0.000000
     -0.000567       0.001282       0.000000
     -0.000366       0.001188       0.000000
     -0.000347       0.000802       0.000000
     -0.000520       0.000876       0.000000
     -0.000769       0.001365       0.000000
     -0.000567       0.001282       0.000000
     -0.000366       0.001188       0.000000
     -0.000567       0.001282       0.000000
     -0.000791       0.001778       0.000000
     -0.000588       0.001693       0.000000
     -0.000567       0.001282       0.000000
     -0.000769       0.001365       0.000000
     -0.000983       0.001843       0.000000
     -0.000791       0.001778       0.000000
     -0.000520       0.000876       0.000000
     -0.000715       0.001001       0.000000
     -0.000969       0.001481       0.000000
     -0.000769       0.001365       0.000000
     -0.000715       0.001001       0.000000
     -0.000919       0.001221       0.000000
     -0.001158       0.001660       0.000000
     -0.000969       0.001481       0.000000
     -0.000769       0.001365       0.000000
     -0.000969       0.001481       0.000000
     -0.001170       0.001930       0.000000
     -0.000983       0.001843       0.000000
     -0.000969       0.001481       0.000000
     -0.001158       0.001660       0.000000
     -0.001346       0.002062       0.000000
     -0.001170       0.001930       0.000000
     -0.000588       0.001693       0.000000
     -0.000791       0.001778       0.000000
     -0.000980       0.002257       0.000000
     -0.000830       0.002213       0.000000
     -0.000791       0.001778       0.000000
     -0.000983       0.001843       0.000000
     -0.001140       0.002298       0.000000
     -0.000980       0.002257       0.000000
     -0.000830       0.002213       0.000000
     -0.000980       0.002257       0.000000
     -0.001067       0.002703       0.000000
     -0.000963       0.002684       0.000000
     -0.000980       0.002257       0.000000
     -0.001140       0.002298       0.000000
     -0.001208       0.002730       0.000000
     -0.001067       0.002703       0.000000
     -0.000983       0.001843       0.000000
     -0.001170       0.001930       0.000000
     -0.001310       0.002354       0.000000
     -0.001140       0.002298       0.000000
     -0.001170       0.001930       0.000000
     -0.001346       0.002062       0.000000
     -0.001474       0.002433       0.000000
     -0.001310       0.002354       0.000000
     -0.001140       0.002298       0.000000
     -0.001310       0.002354       0.000000
     -0.001370       0.002762       0.000000
     -0.001208       0.002730       0.000000
     -0.001310       0.002354       0.000000
     -0.001474       0.002433       0.000000
     -0.001532       0.002788       0.000000
     -0.001370       0.002762       0.000000
     -0.000160       0.001147       0.000000
     -0.000252       0.001349       0.000000
     -0.000368       0.001600       0.000000
     -0.000262       0.001342       0.000000
     -0.000252       0.001349       0.000000
     -0.000363       0.001508       0.000000
     -0.000492       0.001782       0.000000
     -0.000368       0.001600       0.000000
     -0.000262       0.001342       0.000000
     -0.000368       0.001600       0.000000
     -0.000523       0.001897       0.000000
     -0.000396       0.001564       0.000000
     -0.000368       0.001600       0.000000
     -0.000492       0.001782       0.000000
     -0.000651       0.002083       0.000000
     -0.000523       0.001897       0.000000
     -0.000363       0.001508       0.000000
     -0.000478       0.001619       0.000000
     -0.000609       0.001892       0.000000
     -0.000492       0.001782       0.000000
     -0.000478       0.001619       0.000000
     -0.000588       0.001693       0.000000
     -0.000712       0.001955       0.000000
     -0.000609       0.001892       0.000000
     -0.000492       0.001782       0.000000
     -0.000609       0.001892       0.000000
     -0.000750       0.002170       0.000000