# vtk DataFile Version 2.0
time_10.vtk
ASCII
DATASET UNSTRUCTURED_GRID
POINTS  1152 float
      0.000000       0.000000       0.000000
      0.083333       0.000000       0.000000
      0.083333       0.083333       0.000000
      0.000000       0.083333       0.000000
      0.083333       0.000000       0.000000
      0.166667       0.000000       0.000000
      0.166667       0.083333       0.000000
      0.083333       0.083333       0.000000
      0.000000       0.083333       0.000000
      0.083333       0.083333       0.000000
      0.083333       0.166667       0.000000
      0.000000       0.166667       0.000000
      0.083333       0.083333       0.000000
      0.166667       0.083333       0.000000
      0.166667       0.166667       0.000000
      0.083333       0.166667       0.000000
      0.166667       0.000000       0.000000
      0.250000       0.000000       0.000000
      0.250000       0.083333       0.000000
      0.166667       0.083333       0.000000
      0.250000       0.000000       0.000000
      0.333333       0.000000       0.000000
      0.333333       0.083333       0.000000
      0.250000       0.083333       0.000000
      0.166667       0.083333       0.000000
      0.250000       0.083333       0.000000
      0.250000       0.166667       0.000000
      0.166667       0.166667       0.000000
      0.250000       0.083333       0.000000
      0.333333       0.083333       0.000000
      0.333333       0.166667       0.000000
      0.250000       0.166667       0.000000
      0.333333       0.000000       0.000000
      0.416667      -0.000000       0.000000
      0.416667       0.083333       0.000000
      0.333333       0.083333       0.000000
      0.416667      -0.000000       0.000000
      0.500000       0.000000       0.000000
      0.500000       0.083333       0.000000
      0.416667       0.083333       0.000000
      0.333333       0.083333       0.000000
      0.416667       0.083333       0.000000
      0.416667       0.166667       0.000000
      0.333333       0.166667       0.000000
      0.416667       0.083333       0.000000
      0.500000       0.083333       0.000000
      0.500000       0.166667       0.000000
      0.416667       0.166667       0.000000
      0.000000       0.166667       0.000000
      0.083333       0.166667       0.000000
      0.083333       0.250000       0.000000
      0.000000       0.250000       0.000000
      0.083333       0.166667       0.000000
      0.166667       0.166667       0.000000
      0.166667       0.250000       0.000000
      0.083333       0.250000       0.000000
      0.000000       0.250000       0.000000
      0.083333       0.250000       0.000000
      0.083333       0.333333       0.000000
      0.000000       0.333333       0.000000
      0.083333       0.250000       0.000000
      0.166667       0.250000       0.000000
      0.166667       0.333333       0.000000
      0.083333       0.333333       0.000000
      0.166667       0.166667       0.000000
      0.250000       0.166667       0.000000
      0.250000       0.250000       0.000000
      0.166667       0.250000       0.000000
      0.250000       0.166667       0.000000
      0.333333       0.166667       0.000000
      0.333333       0.250000       0.000000
      0.250000       0.250000       0.000000
      0.166667       0.250000       0.000000
      0.250000       0.250000       0.000000
      0.250000       0.333333       0.000000
      0.166667       0.333333       0.000000
      0.250000       0.250000       0.000000
      0.333333       0.250000       0.000000
      0.333333       0.333333       0.000000
      0.250000       0.333333       0.000000
      0.333333       0.166667       0.000000
      0.416667       0.166667       0.000000
      0.416667       0.250000       0.000000
      0.333333       0.250000       0.000000
      0.416667       0.166667       0.000000
      0.500000       0.166667       0.000000
      0.500000       0.250000       0.000000
      0.416667       0.250000       0.000000
      0.333333       0.250000       0.000000
      0.416667       0.250000       0.000000
      0.416667       0.333333       0.000000
      0.333333       0.333333       0.000000
      0.416667       0.250000       0.000000
      0.500000       0.250000       0.000000
      0.500000       0.333333       0.000000
      0.416667       0.333333       0.000000
      0.000000       0.333333       0.000000
      0.083333       0.333333       0.000000
      0.083333       0.416667       0.000000
     -0.000000       0.416667       0.000000
      0.083333       0.333333       0.000000
      0.166667       0.333333       0.000000
      0.166667       0.416667       0.000000
      0.083333       0.416667       0.000000
     -0.000000       0.416667       0.000000
      0.083333       0.416667       0.000000
      0.083333       0.500000       0.000000
      0.000000       0.500000       0.000000
      0.083333       0.416667       0.000000
      0.166667       0.416667       0.000000
      0.166667       0.500000       0.000000
      0.083333       0.500000       0.000000
      0.166667       0.333333       0.000000
      0.250000       0.333333       0.000000
      0.250000       0.416667       0.000000
      0.166667       0.416667       0.000000
      0.250000       0.333333       0.000000
      0.333333       0.333333       0.000000
      0.333333       0.416667       0.000000
      0.250000       0.416667       0.000000
      0.166667       0.416667       0.000000
      0.250000       0.416667       0.000000
      0.250000       0.500000       0.000000
      0.166667       0.500000       0.000000
      0.250000       0.416667       0.000000
      0.333333       0.416667       0.000000
      0.333333       0.500000       0.000000
      0.250000       0.500000       0.000000
      0.333333       0.333333       0.000000
      0.375000       0.333333       0.000000
      0.375000       0.375000       0.000000
      0.333333       0.375000       0.000000
      0.375000       0.333333       0.000000
      0.416667       0.333333       0.000000
      0.416667       0.375000       0.000000
      0.375000       0.375000       0.000000
      0.333333       0.375000       0.000000
      0.375000       0.375000       0.000000
      0.375000       0.416667       0.000000
      0.333333       0.416667       0.000000
      0.375000       0.375000       0.000000
      0.416667       0.375000       0.000000
      0.416667       0.416667       0.000000
      0.375000       0.416667       0.000000
      0.416667       0.333333       0.000000
      0.458333       0.333333       0.000000
      0.458333       0.375000       0.000000
      0.416667       0.375000       0.000000
      0.458333       0.333333       0.000000
      0.500000       0.333333       0.000000
      0.500000       0.375000       0.000000
      0.458333       0.375000       0.000000
      0.416667       0.375000       0.000000
      0.458333       0.375000       0.000000
      0.458333       0.416667       0.000000
      0.416667       0.416667       0.000000
      0.458333       0.375000       0.000000
      0.500000       0.375000       0.000000
      0.500000       0.416667       0.000000
      0.458333       0.416667       0.000000
      0.333333       0.416667       0.000000
      0.375000       0.416667       0.000000
      0.375000       0.458333       0.000000
      0.333333       0.458333       0.000000
      0.375000       0.416667       0.000000
      0.416667       0.416667       0.000000
      0.416667       0.458333       0.000000
      0.375000       0.458333       0.000000
      0.333333       0.458333       0.000000
      0.375000       0.458333       0.000000
      0.375000       0.500000       0.000000
      0.333333       0.500000       0.000000
      0.375000       0.458333       0.000000
      0.416667       0.458333       0.000000
      0.416667       0.500000       0.000000
      0.375000       0.500000       0.000000
      0.416667       0.416667       0.000000
      0.437500       0.416667       0.000000
      0.437500       0.437500       0.000000
      0.416667       0.437500       0.000000
      0.437500       0.416667       0.000000
      0.458333       0.416667       0.000000
      0.458333       0.437500       0.000000
      0.437500       0.437500       0.000000
      0.416667       0.437500       0.000000
      0.437500       0.437500       0.000000
      0.437500       0.458333       0.000000
      0.416667       0.458333       0.000000
      0.437500       0.437500       0.000000
      0.458333       0.437500       0.000000
      0.458333       0.458333       0.000000
      0.437500       0.458333       0.000000
      0.458333       0.416667       0.000000
      0.479167       0.416667       0.000000
      0.479167       0.437500       0.000000
      0.458333       0.437500       0.000000
      0.479167       0.416667       0.000000
      0.500000       0.416667       0.000000
      0.500000       0.437500       0.000000
      0.479167       0.437500       0.000000
      0.458333       0.437500       0.000000
      0.479167       0.437500       0.000000
      0.479167       0.458333       0.000000
      0.458333       0.458333       0.000000
      0.479167       0.437500       0.000000
      0.500000       0.437500       0.000000
      0.500000       0.458333       0.000000
      0.479167       0.458333       0.000000
      0.416667       0.458333       0.000000
      0.437500       0.458333       0.000000
      0.437500       0.479167       0.000000
      0.416667       0.479167       0.000000
      0.437500       0.458333       0.000000
      0.458333       0.458333       0.000000
      0.458333       0.479167       0.000000
      0.437500       0.479167       0.000000
      0.416667       0.479167       0.000000
      0.437500       0.479167       0.000000
      0.437500       0.500000       0.000000
      0.416667       0.500000       0.000000
[...]
POINT_DATA  1152
VECTORS U float 
      0.000000       0.000000       0.000000
      0.000000       0.000000       0.000000
      0.000069      -0.000012       0.000000
      0.000053      -0.000011       0.000000
      0.000000       0.000000       0.000000
      0.000000       0.000000       0.000000
      0.000087       0.000015       0.000000
      0.000069      -0.000012       0.000000
      0.000053      -0.000011       0.000000
      0.000069      -0.000012       0.000000
      0.000080      -0.000034       0.000000
      0.000058      -0.000071       0.000000
      0.000069      -0.000012       0.000000
      0.000087       0.000015       0.000000
      0.000099       0.000020       0.000000
      0.000080      -0.000034       0.000000
      0.000000       0.000000       0.000000
      0.000000       0.000000       0.000000
      0.000102       0.000051       0.000000
      0.000087       0.000015       0.000000
      0.000000       0.000000       0.000000
      0.000000       0.000000       0.000000
      0.000110       0.000098       0.000000
      0.000102       0.000051       0.000000
      0.000087       0.000015       0.000000
      0.000102       0.000051       0.000000
      0.000120       0.000093       0.000000
      0.000099       0.000020       0.000000
      0.000102       0.000051       0.000000
      0.000110       0.000098       0.000000
      0.000131       0.000194       0.000000
      0.000120       0.000093       0.000000
      0.000000       0.000000       0.000000
      0.000000       0.000000       0.000000
      0.000102       0.000155       0.000000
      0.000110       0.000098       0.000000
      0.000000       0.000000       0.000000
      0.000000       0.000000       0.000000
      0.000070       0.000215       0.000000
      0.000102       0.000155       0.000000
      0.000110       0.000098       0.000000
      0.000102       0.000155       0.000000
      0.000117       0.000323       0.000000
      0.000131       0.000194       0.000000
      0.000102       0.000155       0.000000
      0.000070       0.000215       0.000000
      0.000059       0.000461       0.000000
      0.000117       0.000323       0.000000
      0.000058      -0.000071       0.000000
      0.000080      -0.000034       0.000000
      0.000017      -0.000060       0.000000
     -0.000003      -0.000139       0.000000
      0.000080      -0.000034       0.000000
      0.000099       0.000020       0.000000
      0.000036       0.000018       0.000000
      0.000017      -0.000060       0.000000
     -0.000003      -0.000139       0.000000
      0.000017      -0.000060       0.000000
     -0.000106      -0.000083       0.000000
     -0.000119      -0.000193       0.000000
      0.000017      -0.000060       0.000000
      0.000036       0.000018       0.000000
     -0.000095       0.000013       0.000000
     -0.000106      -0.000083       0.000000
      0.000099       0.000020       0.000000
      0.000120       0.000093       0.000000
      0.000058       0.000123       0.000000
      0.000036       0.000018       0.000000
      0.000120       0.000093       0.000000
      0.000131       0.000194       0.000000
      0.000075       0.000278       0.000000
      0.000058       0.000123       0.000000
      0.000036       0.000018       0.000000
      0.000058       0.000123       0.000000
     -0.000081       0.000137       0.000000
     -0.000095       0.000013       0.000000
      0.000058       0.000123       0.000000
      0.000075       0.000278       0.000000
     -0.000062       0.000337       0.000000
     -0.000081       0.000137       0.000000
      0.000131       0.000194       0.000000
      0.000117       0.000323       0.000000
      0.000063       0.000495       0.000000
      0.000075       0.000278       0.000000
      0.000117       0.000323       0.000000
      0.000059       0.000461       0.000000
     -0.000013       0.000741       0.000000
      0.000063       0.000495       0.000000
      0.000075       0.000278       0.000000
      0.000063       0.000495       0.000000
     -0.000060       0.000656       0.000000
     -0.000062       0.000337       0.000000
      0.000063       0.000495       0.000000
     -0.000013       0.000741       0.000000
     -0.000141       0.001059       0.000000
     -0.000060       0.000656       0.000000
     -0.000119      -0.000193       0.000000
     -0.000106      -0.000083       0.000000
     -0.000259      -0.000095       0.000000
     -0.000261      -0.000217       0.000000
     -0.000106      -0.000083       0.000000
     -0.000095       0.000013       0.000000
     -0.000267       0.000010       0.000000
     -0.000259      -0.000095       0.000000
     -0.000261      -0.000217       0.000000
     -0.000259      -0.000095       0.000000
     -0.000399      -0.000094       0.000000
     -0.000397      -0.000219       0.000000
     -0.000259      -0.000095       0.000000
     -0.000267       0.000010       0.000000
     -0.000425       0.000022       0.000000
     -0.000399      -0.000094       0.000000
     -0.000095       0.000013       0.000000
     -0.000081       0.000137       0.000000
     -0.000283       0.000143       0.000000
     -0.000267       0.000010       0.000000
     -0.000081       0.000137       0.000000
     -0.000062       0.000337       0.000000
     -0.000298       0.000362       0.000000
     -0.000283       0.000143       0.000000
     -0.000267       0.000010       0.000000
     -0.000283       0.000143       0.000000
     -0.000493       0.000166       0.000000
     -0.000425       0.000022       0.000000
     -0.000283       0.000143       0.000000
     -0.000298       0.000362       0.000000
     -0.000610       0.000394       0.000000
     -0.000493       0.000166       0.000000
     -0.000062       0.000337       0.000000
     -0.000055       0.000481       0.000000
     -0.000159       0.000514       0.000000
     -0.000166       0.000353       0.000000
     -0.000055       0.000481       0.000000
     -0.000060       0.000656       0.000000
     -0.000156       0.000721       0.000000
     -0.000159       0.000514       0.000000
     -0.000166       0.000353       0.000000
     -0.000159       0.000514       0.000000
     -0.000299       0.000532       0.000000
     -0.000298       0.000362       0.000000
     -0.000159       0.000514       0.000000
     -0.000156       0.000721       0.000000
     -0.000294       0.000766       0.000000
     -0.000299       0.000532       0.000000
     -0.000060       0.000656       0.000000
     -0.000085       0.000856       0.000000
     -0.000174       0.000974       0.000000
     -0.000156       0.000721       0.000000
     -0.000085       0.000856       0.000000
     -0.000141       0.001059       0.000000
     -0.000232       0.001241       0.000000
     -0.000174       0.000974       0.000000
     -0.000156       0.000721       0.000000
     -0.000174       0.000974       0.000000
     -0.000297       0.001082       0.000000
     -0.000294       0.000766       0.000000
     -0.000174       0.000974       0.000000
     -0.000232       0.001241       0.000000
     -0.000352       0.001448       0.000000
     -0.000297       0.001082       0.000000
     -0.000298       0.000362       0.000000
     -0.000299       0.000532       0.000000
     -0.000482       0.000543       0.000000
     -0.000453       0.000372       0.000000
     -0.000299       0.000532       0.000000
     -0.000294       0.000766       0.000000
     -0.000501       0.000786       0.000000
     -0.000482       0.000543       0.000000
     -0.000453       0.000372       0.000000
     -0.000482       0.000543       0.000000
     -0.000689       0.000567       0.000000
     -0.000610       0.000394       0.000000
     -0.000482       0.000543       0.000000
     -0.000501       0.000786       0.000000
     -0.000783       0.000809       0.000000
     -0.000689       0.000567       0.000000
     -0.000294       0.000766       0.000000
     -0.000293       0.000914       0.000000
     -0.000384       0.000936       0.000000
     -0.000387       0.000778       0.000000
     -0.000293       0.000914       0.000000
     -0.000297       0.001082       0.000000
     -0.000383       0.001126       0.000000
     -0.000384       0.000936       0.000000
     -0.000387       0.000778       0.000000
     -0.000384       0.000936       0.000000
     -0.000503       0.000949       0.000000
     -0.000501       0.000786       0.000000
     -0.000384       0.000936       0.000000
     -0.000383       0.001126       0.000000
     -0.000498       0.001155       0.000000
     -0.000503       0.000949       0.000000
     -0.000297       0.001082       0.000000
     -0.000315       0.001265       0.000000
     -0.000394       0.001344       0.000000
     -0.000383       0.001126       0.000000
     -0.000315       0.001265       0.000000
     -0.000352       0.001448       0.000000
     -0.000431       0.001569       0.000000
     -0.000394       0.001344       0.000000
     -0.000383       0.001126       0.000000
     -0.000394       0.001344       0.000000
     -0.000497       0.001417       0.000000
     -0.000498       0.001155       0.000000
     -0.000394       0.001344       0.000000
     -0.000431       0.001569       0.000000
     -0.000530       0.001712       0.000000
     -0.000497       0.001417       0.000000
     -0.000501       0.000786       0.000000
     -0.000503       0.000949       0.000000
     -0.000657       0.000956       0.000000
     -0.000637       0.000793       0.000000
     -0.000503       0.000949       0.000000
     -0.000498       0.001155       0.000000
     -0.000667       0.001167       0.000000
     -0.000657       0.000956       0.000000
     -0.000637       0.000793       0.000000
     -0.000657       0.000956       0.000000
     -0.000837       0.000972       0.000000
     -0.000783       0.000809       0.000000
     -0.000657       0.000956       0.000000
     -0.000667       0.001167       0.000000
     -0.000898       0.001181       0.000000
     -0.000837       0.000972       0.000000
     -0.000498       0.001155       0.000000
     -0.000495       0.001279       0.000000
     -0.000569       0.001294       0.000000
     -0.000574       0.001163       0.000000
     -0.000495       0.001279       0.000000
     -0.000497       0.001417       0.000000
     -0.000565       0.001448       0.000000
     -0.000569       0.001294       0.000000
     -0.000574       0.001163       0.000000
     -0.000569       0.001294       0.000000
     -0.000665       0.001302       0.000000
     -0.000667       0.001167       0.000000
     -0.000569       0.001294       0.000000
     -0.000565       0.001448       0.000000
     -0.000657       0.001468       0.000000
     -0.000665       0.001302       0.000000
     -0.000497       0.001417       0.000000
     -0.000507       0.001566       0.000000
     -0.000570       0.001622       0.000000
     -0.000565       0.001448       0.000000
     -0.000507       0.001566       0.000000
     -0.000530       0.001712       0.000000
     -0.000592       0.001799       0.000000
     -0.000570       0.001622       0.000000
     -0.000565       0.001448       0.000000
     -0.000570       0.001622       0.000000
     -0.000650       0.001675       0.000000
     -0.000657       0.001468       0.000000
     -0.000570       0.001622       0.000000
     -0.000592       0.001799       0.000000
     -0.000671       0.001904       0.000000
     -0.000650       0.001675       0.000000
     -0.000667       0.001167       0.000000
     -0.000665       0.001302       0.000000
     -0.000787       0.001305       0.000000
     -0.000777       0.001171       0.000000
     -0.000665       0.001302       0.000000
     -0.000657       0.001468       0.000000
     -0.000789       0.001475       0.000000
     -0.000787       0.001305       0.000000
     -0.000777       0.001171       0.000000
     -0.000787       0.001305       0.000000
     -0.000932       0.001315       0.000000
     -0.000898       0.001181       0.000000
     -0.000787       0.001305       0.000000
     -0.000789       0.001475       0.000000
     -0.000971       0.001483       0.000000
     -0.000932       0.001315       0.000000
     -0.000657       0.001468       0.000000
     -0.000650       0.001675       0.000000
     -0.000774       0.001712       0.000000
     -0.000789       0.001475       0.000000
     -0.000650       0.001675       0.000000
     -0.000671       0.001904       0.000000
     -0.000781       0.002051       0.000000
     -0.000774       0.001712       0.000000
     -0.000789       0.001475       0.000000
     -0.000774       0.001712       0.000000
     -0.001020       0.001728       0.000000
     -0.000971       0.001483       0.000000
     -0.000774       0.001712       0.000000
     -0.000781       0.002051       0.000000
     -0.001058       0.002407       0.000000
     -0.001020       0.001728       0.000000
      0.000000       0.000000       0.000000
      0.000000       0.000000       0.000000
      0.000015       0.000266       0.000000
      0.000070       0.000215       0.000000
      0.000000       0.000000       0.000000
      0.000000       0.000000       0.000000
     -0.000056       0.000305       0.000000
      0.000015       0.000266       0.000000
      0.000070       0.000215       0.000000
      0.000015       0.000266       0.000000
     -0.000041       0.000581       0.000000
      0.000059       0.000461       0.000000
      0.000015       0.000266       0.000000
     -0.000056       0.000305       0.000000
     -0.000170       0.000666       0.000000
     -0.000041       0.000581       0.000000
      0.000000       0.000000       0.000000
      0.000000       0.000000       0.000000
     -0.000136       0.000334       0.000000
     -0.000056       0.000305       0.000000
      0.000000       0.000000       0.000000
      0.000000       0.000000       0.000000
     -0.000227       0.000365       0.000000
     -0.000136       0.000334       0.000000
     -0.000056       0.000305       0.000000
     -0.000136       0.000334       0.000000
     -0.000313       0.000726       0.000000
     -0.000170       0.000666       0.000000
     -0.000136       0.000334       0.000000
     -0.000227       0.000365       0.000000
     -0.000468       0.000788       0.000000
     -0.000313       0.000726       0.000000
      0.000000       0.000000       0.000000
      0.000000       0.000000       0.000000
     -0.000350       0.000434       0.000000
     -0.000227       0.000365       0.000000
      0.000000       0.000000       0.000000
      0.000000       0.000000       0.000000
     -0.000540       0.000653       0.000000
     -0.000350       0.000434       0.000000
     -0.000227       0.000365       0.000000
     -0.000350       0.000434       0.000000
     -0.000641       0.000895       0.000000
     -0.000468       0.000788       0.000000
     -0.000350       0.000434       0.000000
     -0.000540       0.000653       0.000000
     -0.000824       0.001090       0.000000
     -0.000641       0.000895       0.000000
      0.000059       0.000461       0.000000
     -0.000041       0.000581       0.000000
     -0.000154       0.000947       0.000000
     -0.000013       0.000741       0.000000
     -0.000041       0.000581       0.000000
     -0.000170       0.000666       0.000000
     -0.000329       0.001078       0.000000
     -0.000154       0.000947       0.000000
     -0.000013       0.000741       0.000000
     -0.000154       0.000947       0.000000
     -0.000326       0.001377       0.000000
     -0.000141       0.001059       0.000000
     -0.000154       0.000947       0.000000
     -0.000329       0.001078       0.000000
     -0.000527       0.001531       0.000000
     -0.000326       0.001377       0.000000
     -0.000170       0.000666       0.000000
     -0.000313       0.000726       0.000000
     -0.000509       0.001157       0.000000
     -0.000329       0.001078       0.000000
     -0.000313       0.000726       0.000000
     -0.000468       0.000788       0.000000
     -0.000688       0.001226       0.000000
     -0.000509       0.001157       0.000000
     -0.000329       0.001078       0.000000
     -0.000509       0.001157       0.000000
     -0.000706       0.001600       0.000000
     -0.000527       0.001531       0.000000
     -0.000509       0.001157       0.000000
     -0.000688       0.001226       0.000000
     -0.000878       0.001656       0.000000
     -0.000706       0.001600       0.000000
     -0.000468       0.000788       0.000000
     -0.000641       0.000895       0.000000
     -0.000867       0.001327       0.000000
     -0.000688       0.001226       0.000000
     -0.000641       0.000895       0.000000
     -0.000824       0.001090       0.000000
     -0.001038       0.001485       0.000000
     -0.000867       0.001327       0.000000
     -0.000688       0.001226       0.000000
     -0.000867       0.001327       0.000000
     -0.001046       0.001732       0.000000
     -0.000878       0.001656       0.000000
     -0.000867       0.001327       0.000000
     -0.001038       0.001485       0.000000
     -0.001204       0.001848       0.000000
     -0.001046       0.001732       0.000000
     -0.000527       0.001531       0.000000
     -0.000706       0.001600       0.000000
     -0.000871       0.002029       0.000000
     -0.000738       0.001993       0.000000
     -0.000706       0.001600       0.000000
     -0.000878       0.001656       0.000000
     -0.001016       0.002064       0.000000
     -0.000871       0.002029       0.000000
     -0.000738       0.001993       0.000000
     -0.000871       0.002029       0.000000
     -0.000948       0.002430       0.000000
     -0.000853       0.002413       0.000000
     -0.000871       0.002029       0.000000
     -0.001016       0.002064       0.000000
     -0.001076       0.002455       0.000000
     -0.000948       0.002430       0.000000
     -0.000878       0.001656       0.000000
     -0.001046       0.001732       0.000000
     -0.001169       0.002114       0.000000
     -0.001016       0.002064       0.000000
     -0.001046       0.001732       0.000000
     -0.001204       0.001848       0.000000
     -0.001318       0.002185       0.000000
     -0.001169       0.002114       0.000000
     -0.001016       0.002064       0.000000
     -0.001169       0.002114       0.000000
     -0.001223       0.002484       0.000000
     -0.001076       0.002455       0.000000
     -0.001169       0.002114       0.000000
     -0.001318       0.002185       0.000000
     -0.001370       0.002508       0.000000
     -0.001223       0.002484       0.000000
     -0.000141       0.001059       0.000000
     -0.000226       0.001239       0.000000
     -0.000330       0.001468       0.000000
     -0.000232       0.001241       0.000000
     -0.000226       0.001239       0.000000
     -0.000326       0.001377       0.000000
     -0.000441       0.001623       0.000000
     -0.000330       0.001468       0.000000
     -0.000232       0.001241       0.000000
     -0.000330       0.001468       0.000000
     -0.000469       0.001738       0.000000
     -0.000352       0.001448       0.000000
     -0.000330       0.001468       0.000000
     -0.000441       0.001623       0.000000
     -0.000582       0.001891       0.000000
     -0.000469       0.001738       0.000000
     -0.000326       0.001377       0.000000
     -0.000429       0.001470       0.000000
     -0.000544       0.001713       0.000000
     -0.000441       0.001623       0.000000
     -0.000429       0.001470       0.000000
     -0.000527       0.001531       0.000000
     -0.000635       0.001765       0.000000
     -0.000544       0.001713       0.000000
     -0.000441       0.001623       0.000000
     -0.000544       0.001713       0.000000
     -0.000667       0.001960       0.000000