# vtk DataFile Version 2.0
time_10.vtk
ASCII
DATASET UNSTRUCTURED_GRID
POINTS  2112 float
      0.000000       0.000000       0.000000
      0.083333       0.000000       0.000000
      0.083333       0.083333       0.000000
      0.000000       0.083333       0.000000
      0.083333       0.000000       0.000000
      0.166667       0.000000       0.000000
      0.166667       0.083333       0.000000
      0.083333       0.083333       0.000000
      0.000000       0.083333       0.000000
      0.083333       0.083333       0.000000
      0.083333       0.166667       0.000000
      0.000000       0.166667       0.000000
      0.083333       0.083333       0.000000
      0.166667       0.083333       0.000000
      0.166667       0.166667       0.000000
      0.083333       0.166667       0.000000
      0.166667       0.000000       0.000000
      0.250000       0.000000       0.000000
      0.250000       0.083333       0.000000
      0.166667       0.083333       0.000000
      0.250000       0.000000       0.000000
      0.333333       0.000000       0.000000
      0.333333       0.083333       0.000000
      0.250000       0.083333       0.000000
      0.166667       0.083333       0.000000
      0.250000       0.083333       0.000000
      0.250000       0.166667       0.000000
      0.166667       0.166667       0.000000
      0.250000       0.083333       0.000000
      0.333333       0.083333       0.000000
      0.333333       0.166667       0.000000
      0.250000       0.166667       0.000000
      0.333333       0.000000       0.000000
      0.416667      -0.000000       0.000000
      0.416667       0.083333       0.000000
      0.333333       0.083333       0.000000
      0.416667      -0.000000       0.000000
      0.500000       0.000000       0.000000
      0.500000       0.083333       0.000000
      0.416667       0.083333       0.000000
      0.333333       0.083333       0.000000
      0.416667       0.083333       0.000000
      0.416667       0.166667       0.000000
      0.333333       0.166667       0.000000
      0.416667       0.083333       0.000000
      0.500000       0.083333       0.000000
      0.500000       0.166667       0.000000
      0.416667       0.166667       0.000000
      0.000000       0.166667       0.000000
      0.083333       0.166667       0.000000
      0.083333       0.250000       0.000000
      0.000000       0.250000       0.000000
      0.083333       0.166667       0.000000
      0.166667       0.166667       0.000000
      0.166667       0.250000       0.000000
      0.083333       0.250000       0.000000
      0.000000       0.250000       0.000000
      0.083333       0.250000       0.000000
      0.083333       0.333333       0.000000
      0.000000       0.333333       0.000000
      0.083333       0.250000       0.000000
      0.166667       0.250000       0.000000
      0.166667       0.333333       0.000000
      0.083333       0.333333       0.000000
      0.166667       0.166667       0.000000
      0.250000       0.166667       0.000000
      0.250000       0.250000       0.000000
      0.166667       0.250000       0.000000
      0.250000       0.166667       0.000000
      0.333333       0.166667       0.000000
      0.333333       0.250000       0.000000
      0.250000       0.250000       0.000000
      0.166667       0.250000       0.000000
      0.250000       0.250000       0.000000
      0.250000       0.333333       0.000000
      0.166667       0.333333       0.000000
      0.250000       0.250000       0.000000
      0.333333       0.250000       0.000000
      0.333333       0.333333       0.000000
      0.250000       0.333333       0.000000
      0.333333       0.166667       0.000000
      0.416667       0.166667       0.000000
      0.416667       0.250000       0.000000
      0.333333       0.250000       0.000000
      0.416667       0.166667       0.000000
      0.500000       0.166667       0.000000
      0.500000       0.250000       0.000000
      0.416667       0.250000       0.000000
      0.333333       0.250000       0.000000
      0.416667       0.250000       0.000000
      0.416667       0.333333       0.000000
      0.333333       0.333333       0.000000
      0.416667       0.250000       0.000000
      0.500000       0.250000       0.000000
      0.500000       0.333333       0.000000
      0.416667       0.333333       0.000000
      0.000000       0.333333       0.000000
      0.083333       0.333333       0.000000
      0.083333       0.416667       0.000000
     -0.000000       0.416667       0.000000
      0.083333       0.333333       0.000000
      0.166667       0.333333       0.000000
      0.166667       0.416667       0.000000
      0.083333       0.416667       0.000000
     -0.000000       0.416667       0.000000
      0.083333       0.416667       0.000000
      0.083333       0.500000       0.000000
      0.000000       0.500000       0.000000
      0.083333       0.416667       0.000000
      0.166667       0.416667       0.000000
      0.166667       0.500000       0.000000
      0.083333       0.500000       0.000000
      0.166667       0.333333       0.000000
      0.250000       0.333333       0.000000
      0.250000       0.416667       0.000000
      0.166667       0.416667       0.000000
      0.250000       0.333333       0.000000
      0.333333       0.333333       0.000000
      0.333333       0.416667       0.000000
      0.250000       0.416667       0.000000
      0.166667       0.416667       0.000000
      0.250000       0.416667       0.000000
      0.250000       0.500000       0.000000
      0.166667       0.500000       0.000000
      0.250000       0.416667       0.000000
      0.333333       0.416667       0.000000
      0.333333       0.500000       0.000000
      0.250000       0.500000       0.000000
      0.333333       0.333333       0.000000
      0.375000       0.333333       0.000000
      0.375000       0.375000       0.000000
      0.333333       0.375000       0.000000
      0.375000       0.333333       0.000000
      0.416667       0.333333       0.000000
      0.416667       0.375000       0.000000
      0.375000       0.375000       0.000000
      0.333333       0.375000       0.000000
      0.375000       0.375000       0.000000
      0.375000       0.416667       0.000000
      0.333333       0.416667       0.000000
      0.375000       0.375000       0.000000
      0.416667       0.375000       0.000000
      0.416667       0.416667       0.000000
      0.375000       0.416667       0.000000
      0.416667       0.333333       0.000000
      0.458333       0.333333       0.000000
      0.458333       0.375000       0.000000
      0.416667       0.375000       0.000000
      0.458333       0.333333       0.000000
      0.500000       0.333333       0.000000
      0.500000       0.375000       0.000000
      0.458333       0.375000       0.000000
      0.416667       0.375000       0.000000
      0.458333       0.375000       0.000000
      0.458333       0.416667       0.000000
      0.416667       0.416667       0.000000
      0.458333       0.375000       0.000000
      0.500000       0.375000       0.000000
      0.500000       0.416667       0.000000
      0.458333       0.416667       0.000000
      0.333333       0.416667       0.000000
      0.375000       0.416667       0.000000
      0.375000       0.458333       0.000000
      0.333333       0.458333       0.000000
      0.375000       0.416667       0.000000
      0.416667       0.416667       0.000000
      0.416667       0.458333       0.000000
      0.375000       0.458333       0.000000
      0.333333       0.458333       0.000000
      0.375000       0.458333       0.000000
      0.375000       0.500000       0.000000
      0.333333       0.500000       0.000000
      0.375000       0.458333       0.000000
      0.416667       0.458333       0.000000
      0.416667       0.500000       0.000000
      0.375000       0.500000       0.000000
      0.416667       0.416667       0.000000
      0.437500       0.416667       0.000000
      0.437500       0.437500       0.000000
      0.416667       0.437500       0.000000
      0.437500       0.416667       0.000000
      0.458333       0.416667       0.000000
      0.458333       0.437500       0.000000
      0.437500       0.437500       0.000000
      0.416667       0.437500       0.000000
      0.437500       0.437500       0.000000
      0.437500       0.458333       0.000000
      0.416667       0.458333       0.000000
      0.437500       0.437500       0.000000
      0.458333       0.437500       0.000000
      0.458333       0.458333       0.000000
      0.437500       0.458333       0.000000
      0.458333       0.416667       0.000000
      0.479167       0.416667       0.000000
      0.479167       0.437500       0.000000
      0.458333       0.437500       0.000000
      0.479167       0.416667       0.000000
      0.500000       0.416667       0.000000
      0.500000       0.437500       0.000000
      0.479167       0.437500       0.000000
      0.458333       0.437500       0.000000
      0.479167       0.437500       0.000000
      0.479167       0.458333       0.000000
      0.458333       0.458333       0.000000
      0.479167       0.437500       0.000000
      0.500000       0.437500       0.000000
      0.500000       0.458333       0.000000
      0.479167       0.458333       0.000000
      0.416667       0.458333       0.000000
      0.437500       0.458333       0.000000
      0.437500       0.479167       0.000000
      0.416667       0.479167       0.000000
      0.437500       0.458333       0.000000
      0.458333       0.458333       0.000000
      0.458333       0.479167       0.000000
      0.437500       0.479167       0.000000
      0.416667       0.479167       0.000000
      0.437500       0.479167       0.000000
      0.437500       0.500000       0.000000
      0.416667       0.500000       0.000000
[...]
POINT_DATA  2112
VECTORS U float 
      0.000000       0.000000       0.000000
      0.000000       0.000000       0.000000
     -0.000040      -0.000034       0.000000
     -0.000059      -0.000069       0.000000
      0.000000       0.000000       0.000000
      0.000000       0.000000       0.000000
     -0.000030      -0.000019       0.000000
     -0.000040      -0.000034       0.000000
     -0.000059      -0.000069       0.000000
     -0.000040      -0.000034       0.000000
     -0.000099      -0.000069       0.000000
     -0.000115      -0.000116       0.000000
     -0.000040      -0.000034       0.000000
     -0.000030      -0.000019       0.000000
     -0.000086      -0.000042       0.000000
     -0.000099      -0.000069       0.000000
      0.000000       0.000000       0.000000
      0.000000       0.000000       0.000000
     -0.000019      -0.000009       0.000000
     -0.000030      -0.000019       0.000000
      0.000000       0.000000       0.000000
      0.000000       0.000000       0.000000
     -0.000005       0.000002       0.000000
     -0.000019      -0.000009       0.000000
     -0.000030      -0.000019       0.000000
     -0.000019      -0.000009       0.000000
     -0.000073      -0.000024       0.000000
     -0.000086      -0.000042       0.000000
     -0.000019      -0.000009       0.000000
     -0.000005       0.000002       0.000000
     -0.000056      -0.000004       0.000000
     -0.000073      -0.000024       0.000000
      0.000000       0.000000       0.000000
      0.000000       0.000000       0.000000
      0.000013       0.000020       0.000000
     -0.000005       0.000002       0.000000
      0.000000       0.000000       0.000000
      0.000000       0.000000       0.000000
      0.000034       0.000049       0.000000
      0.000013       0.000020       0.000000
     -0.000005       0.000002       0.000000
      0.000013       0.000020       0.000000
     -0.000034       0.000028       0.000000
     -0.000056      -0.000004       0.000000
      0.000013       0.000020       0.000000
      0.000034       0.000049       0.000000
     -0.000010       0.000086       0.000000
     -0.000034       0.000028       0.000000
     -0.000115      -0.000116       0.000000
     -0.000099      -0.000069       0.000000
     -0.000172      -0.000096       0.000000
     -0.000183      -0.000151       0.000000
     -0.000099      -0.000069       0.000000
     -0.000086      -0.000042       0.000000
     -0.000163      -0.000062       0.000000
     -0.000172      -0.000096       0.000000
     -0.000183      -0.000151       0.000000
     -0.000172      -0.000096       0.000000
     -0.000251      -0.000112       0.000000
     -0.000256      -0.000170       0.000000
     -0.000172      -0.000096       0.000000
     -0.000163      -0.000062       0.000000
     -0.000249      -0.000074       0.000000
     -0.000251      -0.000112       0.000000
     -0.000086      -0.000042       0.000000
     -0.000073      -0.000024       0.000000
     -0.000155      -0.000038       0.000000
     -0.000163      -0.000062       0.000000
     -0.000073      -0.000024       0.000000
     -0.000056      -0.000004       0.000000
     -0.000146      -0.000012       0.000000
     -0.000155      -0.000038       0.000000
     -0.000163      -0.000062       0.000000
     -0.000155      -0.000038       0.000000
     -0.000253      -0.000045       0.000000
     -0.000249      -0.000074       0.000000
     -0.000155      -0.000038       0.000000
     -0.000146      -0.000012       0.000000
     -0.000261      -0.000013       0.000000
     -0.000253      -0.000045       0.000000
     -0.000056      -0.000004       0.000000
     -0.000034       0.000028       0.000000
     -0.000136       0.000032       0.000000
     -0.000146      -0.000012       0.000000
     -0.000034       0.000028       0.000000
     -0.000010       0.000086       0.000000
     -0.000123       0.000114       0.000000
     -0.000136       0.000032       0.000000
     -0.000146      -0.000012       0.000000
     -0.000136       0.000032       0.000000
     -0.000275       0.000039       0.000000
     -0.000261      -0.000013       0.000000
     -0.000136       0.000032       0.000000
     -0.000123       0.000114       0.000000
     -0.000293       0.000135       0.000000
     -0.000275       0.000039       0.000000
     -0.000256      -0.000170       0.000000
     -0.000251      -0.000112       0.000000
     -0.000325      -0.000119       0.000000
     -0.000325      -0.000176       0.000000
     -0.000251      -0.000112       0.000000
     -0.000249      -0.000074       0.000000
     -0.000330      -0.000077       0.000000
     -0.000325      -0.000119       0.000000
     -0.000325      -0.000176       0.000000
     -0.000325      -0.000119       0.000000
     -0.000384      -0.000119       0.000000
     -0.000385      -0.000175       0.000000
     -0.000325      -0.000119       0.000000
     -0.000330      -0.000077       0.000000
     -0.000390      -0.000073       0.000000
     -0.000384      -0.000119       0.000000
     -0.000249      -0.000074       0.000000
     -0.000253      -0.000045       0.000000
     -0.000346      -0.000042       0.000000
     -0.000330      -0.000077       0.000000
     -0.000253      -0.000045       0.000000
     -0.000261      -0.000013       0.000000
     -0.000375      -0.000002       0.000000
     -0.000346      -0.000042       0.000000
     -0.000330      -0.000077       0.000000
     -0.000346      -0.000042       0.000000
     -0.000412      -0.000031       0.000000
     -0.000390      -0.000073       0.000000
     -0.000346      -0.000042       0.000000
     -0.000375      -0.000002       0.000000
     -0.000458       0.000018       0.000000
     -0.000412      -0.000031       0.000000
     -0.000261      -0.000013       0.000000
     -0.000268       0.000010       0.000000
     -0.000333       0.000016       0.000000
     -0.000320      -0.000009       0.000000
     -0.000268       0.000010       0.000000
     -0.000275       0.000039       0.000000
     -0.000350       0.000048       0.000000
     -0.000333       0.000016       0.000000
     -0.000320      -0.000009       0.000000
     -0.000333       0.000016       0.000000
     -0.000395       0.000026       0.000000
     -0.000375      -0.000002       0.000000
     -0.000333       0.000016       0.000000
     -0.000350       0.000048       0.000000
     -0.000420       0.000061       0.000000
     -0.000395       0.000026       0.000000
     -0.000275       0.000039       0.000000
     -0.000284       0.000079       0.000000
     -0.000370       0.000089       0.000000
     -0.000350       0.000048       0.000000
     -0.000284       0.000079       0.000000
     -0.000293       0.000135       0.000000
     -0.000392       0.000146       0.000000
     -0.000370       0.000089       0.000000
     -0.000350       0.000048       0.000000
     -0.000370       0.000089       0.000000
     -0.000452       0.000105       0.000000
     -0.000420       0.000061       0.000000
     -0.000370       0.000089       0.000000
     -0.000392       0.000146       0.000000
     -0.000491       0.000162       0.000000
     -0.000452       0.000105       0.000000
     -0.000375      -0.000002       0.000000
     -0.000395       0.000026       0.000000
     -0.000447       0.000038       0.000000
     -0.000422       0.000007       0.000000
     -0.000395       0.000026       0.000000
     -0.000420       0.000061       0.000000
     -0.000478       0.000078       0.000000
     -0.000447       0.000038       0.000000
     -0.000422       0.000007       0.000000
     -0.000447       0.000038       0.000000
     -0.000490       0.000052       0.000000
     -0.000458       0.000018       0.000000
     -0.000447       0.000038       0.000000
     -0.000478       0.000078       0.000000
     -0.000527       0.000094       0.000000
     -0.000490       0.000052       0.000000
     -0.000420       0.000061       0.000000
     -0.000435       0.000082       0.000000
     -0.000468       0.000091       0.000000
     -0.000451       0.000069       0.000000
     -0.000435       0.000082       0.000000
     -0.000452       0.000105       0.000000
     -0.000488       0.000116       0.000000
     -0.000468       0.000091       0.000000
     -0.000451       0.000069       0.000000
     -0.000468       0.000091       0.000000
     -0.000496       0.000101       0.000000
     -0.000478       0.000078       0.000000
     -0.000468       0.000091       0.000000
     -0.000488       0.000116       0.000000
     -0.000517       0.000127       0.000000
     -0.000496       0.000101       0.000000
     -0.000452       0.000105       0.000000
     -0.000471       0.000131       0.000000
     -0.000511       0.000142       0.000000
     -0.000488       0.000116       0.000000
     -0.000471       0.000131       0.000000
     -0.000491       0.000162       0.000000
     -0.000536       0.000172       0.000000
     -0.000511       0.000142       0.000000
     -0.000488       0.000116       0.000000
     -0.000511       0.000142       0.000000
     -0.000543       0.000155       0.000000
     -0.000517       0.000127       0.000000
     -0.000511       0.000142       0.000000
     -0.000536       0.000172       0.000000
     -0.000574       0.000185       0.000000
     -0.000543       0.000155       0.000000
     -0.000478       0.000078       0.000000
     -0.000496       0.000101       0.000000
     -0.000521       0.000111       0.000000
     -0.000503       0.000086       0.000000
     -0.000496       0.000101       0.000000
     -0.000517       0.000127       0.000000
     -0.000540       0.000139       0.000000
     -0.000521       0.000111       0.000000
     -0.000503       0.000086       0.000000
     -0.000521       0.000111       0.000000
     -0.000546       0.000119       0.000000
     -0.000527       0.000094       0.000000
     -0.000521       0.000111       0.000000
     -0.000540       0.000139       0.000000
     -0.000565       0.000147       0.000000
     -0.000546       0.000119       0.000000
     -0.000517       0.000127       0.000000
     -0.000529       0.000141       0.000000
     -0.000541       0.000148       0.000000
     -0.000529       0.000133       0.000000
     -0.000529       0.000141       0.000000
     -0.000543       0.000155       0.000000
     -0.000555       0.000162       0.000000
     -0.000541       0.000148       0.000000
     -0.000529       0.000133       0.000000
     -0.000541       0.000148       0.000000
     -0.000551       0.000154       0.000000
     -0.000540       0.000139       0.000000
     -0.000541       0.000148       0.000000
     -0.000555       0.000162       0.000000
     -0.000563       0.000169       0.000000
     -0.000551       0.000154       0.000000
     -0.000543       0.000155       0.000000
     -0.000558       0.000169       0.000000
     -0.000571       0.000177       0.000000
     -0.000555       0.000162       0.000000
     -0.000558       0.000169       0.000000
     -0.000574       0.000185       0.000000
     -0.000590       0.000193       0.000000
     -0.000571       0.000177       0.000000
     -0.000555       0.000162       0.000000
     -0.000571       0.000177       0.000000
     -0.000579       0.000185       0.000000
     -0.000563       0.000169       0.000000
     -0.000571       0.000177       0.000000
     -0.000590       0.000193       0.000000
     -0.000601       0.000206       0.000000
     -0.000579       0.000185       0.000000
     -0.000540       0.000139       0.000000
     -0.000551       0.000154       0.000000
     -0.000560       0.000159       0.000000
     -0.000551       0.000143       0.000000
     -0.000551       0.000154       0.000000
     -0.000563       0.000169       0.000000
     -0.000569       0.000175       0.000000
     -0.000560       0.000159       0.000000
     -0.000551       0.000143       0.000000
     -0.000560       0.000159       0.000000
     -0.000573       0.000164       0.000000
     -0.000565       0.000147       0.000000
     -0.000560       0.000159       0.000000
     -0.000569       0.000175       0.000000
     -0.000579       0.000186       0.000000
     -0.000573       0.000164       0.000000
     -0.000563       0.000169       0.000000
     -0.000579       0.000185       0.000000
     -0.000579       0.000193       0.000000
     -0.000569       0.000175       0.000000
     -0.000579       0.000185       0.000000
     -0.000601       0.000206       0.000000
     -0.000604       0.000256       0.000000
     -0.000579       0.000193       0.000000
     -0.000569       0.000175       0.000000
     -0.000579       0.000193       0.000000
     -0.000582       0.000266       0.000000
     -0.000579       0.000186       0.000000
     -0.000579       0.000193       0.000000
     -0.000604       0.000256       0.000000
     -0.000708       0.005708       0.000000
     -0.000582       0.000266       0.000000
      0.000000       0.000000       0.000000
      0.000000       0.000000       0.000000
      0.000049       0.000096       0.000000
      0.000034       0.000049       0.000000
      0.000000       0.000000       0.000000
      0.000000       0.000000       0.000000
      0.000046       0.000161       0.000000
      0.000049       0.000096       0.000000
      0.000034       0.000049       0.000000
      0.000049       0.000096       0.000000
      0.000004       0.000185       0.000000
     -0.000010       0.000086       0.000000
      0.000049       0.000096       0.000000
      0.000046       0.000161       0.000000
     -0.000010       0.000331       0.000000
      0.000004       0.000185       0.000000
      0.000000       0.000000       0.000000
      0.000000       0.000000       0.000000
      0.000013       0.000239       0.000000
      0.000046       0.000161       0.000000
      0.000000       0.000000       0.000000
      0.000000       0.000000       0.000000
     -0.000061       0.000328       0.000000
      0.000013       0.000239       0.000000
      0.000046       0.000161       0.000000
      0.000013       0.000239       0.000000
     -0.000077       0.000514       0.000000
     -0.000010       0.000331       0.000000
      0.000013       0.000239       0.000000
     -0.000061       0.000328       0.000000
     -0.000207       0.000714       0.000000
     -0.000077       0.000514       0.000000
      0.000000       0.000000       0.000000
      0.000000       0.000000       0.000000
     -0.000193       0.000438       0.000000
     -0.000061       0.000328       0.000000
      0.000000       0.000000       0.000000
      0.000000       0.000000       0.000000
     -0.000403       0.000627       0.000000
     -0.000193       0.000438       0.000000
     -0.000061       0.000328       0.000000
     -0.000193       0.000438       0.000000
     -0.000396       0.000933       0.000000
     -0.000207       0.000714       0.000000
     -0.000193       0.000438       0.000000
     -0.000403       0.000627       0.000000
     -0.000624       0.001170       0.000000
     -0.000396       0.000933       0.000000
     -0.000010       0.000086       0.000000
      0.000004       0.000185       0.000000
     -0.000117       0.000265       0.000000
     -0.000123       0.000114       0.000000
      0.000004       0.000185       0.000000
     -0.000010       0.000331       0.000000
     -0.000142       0.000505       0.000000
     -0.000117       0.000265       0.000000
     -0.000123       0.000114       0.000000
     -0.000117       0.000265       0.000000
     -0.000311       0.000325       0.000000
     -0.000293       0.000135       0.000000
     -0.000117       0.000265       0.000000
     -0.000142       0.000505       0.000000
     -0.000346       0.000666       0.000000
     -0.000311       0.000325       0.000000
     -0.000010       0.000331       0.000000
     -0.000077       0.000514       0.000000
     -0.000237       0.000817       0.000000
     -0.000142       0.000505       0.000000
     -0.000077       0.000514       0.000000
     -0.000207       0.000714       0.000000
     -0.000418       0.001141       0.000000
     -0.000237       0.000817       0.000000
     -0.000142       0.000505       0.000000
     -0.000237       0.000817       0.000000
     -0.000462       0.001156       0.000000
     -0.000346       0.000666       0.000000
     -0.000237       0.000817       0.000000
     -0.000418       0.001141       0.000000
     -0.000713       0.001636       0.000000
     -0.000462       0.001156       0.000000
     -0.000207       0.000714       0.000000
     -0.000396       0.000933       0.000000
     -0.000648       0.001442       0.000000
     -0.000418       0.001141       0.000000
     -0.000396       0.000933       0.000000
     -0.000624       0.001170       0.000000
     -0.000886       0.001738       0.000000
     -0.000648       0.001442       0.000000
     -0.000418       0.001141       0.000000
     -0.000648       0.001442       0.000000
     -0.000998       0.001975       0.000000
     -0.000713       0.001636       0.000000
     -0.000648       0.001442       0.000000
     -0.000886       0.001738       0.000000
     -0.001232       0.002290       0.000000
     -0.000998       0.001975       0.000000
     -0.000713       0.001636       0.000000
     -0.000998       0.001975       0.000000
     -0.001408       0.002522       0.000000
     -0.001132       0.002274       0.000000
     -0.000998       0.001975       0.000000
     -0.001232       0.002290       0.000000
     -0.001596       0.002729       0.000000
     -0.001408       0.002522       0.000000
     -0.001408       0.002522       0.000000
     -0.001596       0.002729       0.000000
     -0.001769       0.003021       0.000000
     -0.001628       0.003015       0.000000
     -0.000293       0.000135       0.000000
     -0.000301       0.000214       0.000000
     -0.000414       0.000229       0.000000
     -0.000392       0.000146       0.000000
     -0.000301       0.000214       0.000000
     -0.000311       0.000325       0.000000
     -0.000437       0.000348       0.000000
     -0.000414       0.000229       0.000000
     -0.000392       0.000146       0.000000
     -0.000414       0.000229       0.000000
     -0.000534       0.000247       0.000000
     -0.000491       0.000162       0.000000
     -0.000414       0.000229       0.000000
     -0.000437       0.000348       0.000000
     -0.000582       0.000371       0.000000
     -0.000534       0.000247       0.000000
     -0.000311       0.000325       0.000000
     -0.000323       0.000474       0.000000
     -0.000460       0.000511       0.000000
     -0.000437       0.000348       0.000000
     -0.000323       0.000474       0.000000
     -0.000346       0.000666       0.000000
     -0.000487       0.000731       0.000000
     -0.000460       0.000511       0.000000
     -0.000437       0.000348       0.000000
     -0.000460       0.000511       0.000000
     -0.000629       0.000542       0.000000
     -0.000582       0.000371       0.000000
     -0.000460       0.000511       0.000000
     -0.000487       0.000731       0.000000
     -0.000672       0.000782       0.000000
     -0.000629       0.000542       0.000000
     -0.000491       0.000162       0.000000
     -0.000512       0.000200       0.000000
     -0.000564       0.000211       0.000000
     -0.000536       0.000172       0.000000
     -0.000512       0.000200       0.000000
     -0.000534       0.000247       0.000000
     -0.000594       0.000260       0.000000
     -0.000564       0.000211       0.000000
     -0.000536       0.000172       0.000000
     -0.000564       0.000211       0.000000
     -0.000612       0.000225       0.000000
     -0.000574       0.000185       0.000000
     -0.000564       0.000211       0.000000
     -0.000594       0.000260       0.000000
     -0.000654       0.000277       0.000000