# vtk DataFile Version 2.0
time_10.vtk
ASCII
DATASET UNSTRUCTURED_GRID
POINTS  1152 float
      0.000000       0.000000       0.000000
      0.083333       0.000000       0.000000
      0.083333       0.083333       0.000000
      0.000000       0.083333       0.000000
      0.083333       0.000000       0.000000
      0.166667       0.000000       0.000000
      0.166667       0.083333       0.000000
      0.083333       0.083333       0.000000
      0.000000       0.083333       0.000000
      0.083333       0.083333       0.000000
      0.083333       0.166667       0.000000
      0.000000       0.166667       0.000000
      0.083333       0.083333       0.000000
      0.166667       0.083333       0.000000
      0.166667       0.166667       0.000000
      0.083333       0.166667       0.000000
      0.166667       0.000000       0.000000
      0.250000       0.000000       0.000000
      0.250000       0.083333       0.000000
      0.166667       0.083333       0.000000
      0.250000       0.000000       0.000000
      0.333333       0.000000       0.000000
      0.333333       0.083333       0.000000
      0.250000       0.083333       0.000000
      0.166667       0.083333       0.000000
      0.250000       0.083333       0.000000
      0.250000       0.166667       0.000000
      0.166667       0.166667       0.000000
      0.250000       0.083333       0.000000
      0.333333       0.083333       0.000000
      0.333333       0.166667       0.000000
      0.250000       0.166667       0.000000
      0.333333       0.000000       0.000000
      0.416667      -0.000000       0.000000
      0.416667       0.083333       0.000000
      0.333333       0.083333       0.000000
      0.416667      -0.000000       0.000000
      0.500000       0.000000       0.000000
      0.500000       0.083333       0.000000
      0.416667       0.083333       0.000000
      0.333333       0.083333       0.000000
      0.416667       0.083333       0.000000
      0.416667       0.166667       0.000000
      0.333333       0.166667       0.000000
      0.416667       0.083333       0.000000
      0.500000       0.083333       0.000000
      0.500000       0.166667       0.000000
      0.416667       0.166667       0.000000
      0.000000       0.166667       0.000000
      0.083333       0.166667       0.000000
      0.083333       0.250000       0.000000
      0.000000       0.250000       0.000000
      0.083333       0.166667       0.000000
      0.166667       0.166667       0.000000
      0.166667       0.250000       0.000000
      0.083333       0.250000       0.000000
      0.000000       0.250000       0.000000
      0.083333       0.250000       0.000000
      0.083333       0.333333       0.000000
      0.000000       0.333333       0.000000
      0.083333       0.250000       0.000000
      0.166667       0.250000       0.000000
      0.166667       0.333333       0.000000
      0.083333       0.333333       0.000000
      0.166667       0.166667       0.000000
      0.250000       0.166667       0.000000
      0.250000       0.250000       0.000000
      0.166667       0.250000       0.000000
      0.250000       0.166667       0.000000
      0.333333       0.166667       0.000000
      0.333333       0.250000       0.000000
      0.250000       0.250000       0.000000
      0.166667       0.250000       0.000000
      0.250000       0.250000       0.000000
      0.250000       0.333333       0.000000
      0.166667       0.333333       0.000000
      0.250000       0.250000       0.000000
      0.333333       0.250000       0.000000
      0.333333       0.333333       0.000000
      0.250000       0.333333       0.000000
      0.333333       0.166667       0.000000
      0.416667       0.166667       0.000000
      0.416667       0.250000       0.000000
      0.333333       0.250000       0.000000
      0.416667       0.166667       0.000000
      0.500000       0.166667       0.000000
      0.500000       0.250000       0.000000
      0.416667       0.250000       0.000000
      0.333333       0.250000       0.000000
      0.416667       0.250000       0.000000
      0.416667       0.333333       0.000000
      0.333333       0.333333       0.000000
      0.416667       0.250000       0.000000
      0.500000       0.250000       0.000000
      0.500000       0.333333       0.000000
      0.416667       0.333333       0.000000
      0.000000       0.333333       0.000000
      0.083333       0.333333       0.000000
      0.083333       0.416667       0.000000
     -0.000000       0.416667       0.000000
      0.083333       0.333333       0.000000
      0.166667       0.333333       0.000000
      0.166667       0.416667       0.000000
      0.083333       0.416667       0.000000
     -0.000000       0.416667       0.000000
      0.083333       0.416667       0.000000
      0.083333       0.500000       0.000000
      0.000000       0.500000       0.000000
      0.083333       0.416667       0.000000
      0.166667       0.416667       0.000000
      0.166667       0.500000       0.000000
      0.083333       0.500000       0.000000
      0.166667       0.333333       0.000000
      0.250000       0.333333       0.000000
      0.250000       0.416667       0.000000
      0.166667       0.416667       0.000000
      0.250000       0.333333       0.000000
      0.333333       0.333333       0.000000
      0.333333       0.416667       0.000000
      0.250000       0.416667       0.000000
      0.166667       0.416667       0.000000
      0.250000       0.416667       0.000000
      0.250000       0.500000       0.000000
      0.166667       0.500000       0.000000
      0.250000       0.416667       0.000000
      0.333333       0.416667       0.000000
      0.333333       0.500000       0.000000
      0.250000       0.500000       0.000000
      0.333333       0.333333       0.000000
      0.375000       0.333333       0.000000
      0.375000       0.375000       0.000000
      0.333333       0.375000       0.000000
      0.375000       0.333333       0.000000
      0.416667       0.333333       0.000000
      0.416667       0.375000       0.000000
      0.375000       0.375000       0.000000
      0.333333       0.375000       0.000000
      0.375000       0.375000       0.000000
      0.375000       0.416667       0.000000
      0.333333       0.416667       0.000000
      0.375000       0.375000       0.000000
      0.416667       0.375000       0.000000
      0.416667       0.416667       0.000000
      0.375000       0.416667       0.000000
      0.416667       0.333333       0.000000
      0.458333       0.333333       0.000000
      0.458333       0.375000       0.000000
      0.416667       0.375000       0.000000
      0.458333       0.333333       0.000000
      0.500000       0.333333       0.000000
      0.500000       0.375000       0.000000
      0.458333       0.375000       0.000000
      0.416667       0.375000       0.000000
      0.458333       0.375000       0.000000
      0.458333       0.416667       0.000000
      0.416667       0.416667       0.000000
      0.458333       0.375000       0.000000
      0.500000       0.375000       0.000000
      0.500000       0.416667       0.000000
      0.458333       0.416667       0.000000
      0.333333       0.416667       0.000000
      0.375000       0.416667       0.000000
      0.375000       0.458333       0.000000
      0.333333       0.458333       0.000000
      0.375000       0.416667       0.000000
      0.416667       0.416667       0.000000
      0.416667       0.458333       0.000000
      0.375000       0.458333       0.000000
      0.333333       0.458333       0.000000
      0.375000       0.458333       0.000000
      0.375000       0.500000       0.000000
      0.333333       0.500000       0.000000
      0.375000       0.458333       0.000000
      0.416667       0.458333       0.000000
      0.416667       0.500000       0.000000
      0.375000       0.500000       0.000000
      0.416667       0.416667       0.000000
      0.437500       0.416667       0.000000
      0.437500       0.437500       0.000000
      0.416667       0.437500       0.000000
      0.437500       0.416667       0.000000
      0.458333       0.416667       0.000000
      0.458333       0.437500       0.000000
      0.437500       0.437500       0.000000
      0.416667       0.437500       0.000000
      0.437500       0.437500       0.000000
      0.437500       0.458333       0.000000
      0.416667       0.458333       0.000000
      0.437500       0.437500       0.000000
      0.458333       0.437500       0.000000
      0.458333       0.458333       0.000000
      0.437500       0.458333       0.000000
      0.458333       0.416667       0.000000
      0.479167       0.416667       0.000000
      0.479167       0.437500       0.000000
      0.458333       0.437500       0.000000
      0.479167       0.416667       0.000000
      0.500000       0.416667       0.000000
      0.500000       0.437500       0.000000
      0.479167       0.437500       0.000000
      0.458333       0.437500       0.000000
      0.479167       0.437500       0.000000
      0.479167       0.458333       0.000000
      0.458333       0.458333       0.000000
      0.479167       0.437500       0.000000
      0.500000       0.437500       0.000000
      0.500000       0.458333       0.000000
      0.479167       0.458333       0.000000
      0.416667       0.458333       0.000000
      0.437500       0.458333       0.000000
      0.437500       0.479167       0.000000
      0.416667       0.479167       0.000000
      0.437500       0.458333       0.000000
      0.458333       0.458333       0.000000
      0.458333       0.479167       0.000000
      0.437500       0.479167       0.000000
      0.416667       0.479167       0.000000
      0.437500       0.479167       0.000000
      0.437500       0.500000       0.000000
      0.416667       0.500000       0.000000
[...]
POINT_DATA  1152
VECTORS U float 
      0.000000       0.000000       0.000000
      0.000000       0.000000       0.000000
      0.000073      -0.000014       0.000000
      0.000054      -0.000015       0.000000
      0.000000       0.000000       0.000000
      0.000000       0.000000       0.000000
      0.000092       0.000015       0.000000
      0.000073      -0.000014       0.000000
      0.000054      -0.000015       0.000000
      0.000073      -0.000014       0.000000
      0.000081      -0.000039       0.000000
      0.000057      -0.000081       0.000000
      0.000073      -0.000014       0.000000
      0.000092       0.000015       0.000000
      0.000103       0.000019       0.000000
      0.000081      -0.000039       0.000000
      0.000000       0.000000       0.000000
      0.000000       0.000000       0.000000
      0.000109       0.000054       0.000000
      0.000092       0.000015       0.000000
      0.000000       0.000000       0.000000
      0.000000       0.000000       0.000000
      0.000118       0.000105       0.000000
      0.000109       0.000054       0.000000
      0.000092       0.000015       0.000000
      0.000109       0.000054       0.000000
      0.000125       0.000098       0.000000
      0.000103       0.000019       0.000000
      0.000109       0.000054       0.000000
      0.000118       0.000105       0.000000
      0.000139       0.000207       0.000000
      0.000125       0.000098       0.000000
      0.000000       0.000000       0.000000
      0.000000       0.000000       0.000000
      0.000110       0.000167       0.000000
      0.000118       0.000105       0.000000
      0.000000       0.000000       0.000000
      0.000000       0.000000       0.000000
      0.000076       0.000232       0.000000
      0.000110       0.000167       0.000000
      0.000118       0.000105       0.000000
      0.000110       0.000167       0.000000
      0.000124       0.000348       0.000000
      0.000139       0.000207       0.000000
      0.000110       0.000167       0.000000
      0.000076       0.000232       0.000000
      0.000063       0.000499       0.000000
      0.000124       0.000348       0.000000
      0.000057      -0.000081       0.000000
      0.000081      -0.000039       0.000000
      0.000011      -0.000068       0.000000
     -0.000011      -0.000156       0.000000
      0.000081      -0.000039       0.000000
      0.000103       0.000019       0.000000
      0.000031       0.000017       0.000000
      0.000011      -0.000068       0.000000
     -0.000011      -0.000156       0.000000
      0.000011      -0.000068       0.000000
     -0.000124      -0.000094       0.000000
     -0.000138      -0.000214       0.000000
      0.000011      -0.000068       0.000000
      0.000031       0.000017       0.000000
     -0.000113       0.000010       0.000000
     -0.000124      -0.000094       0.000000
      0.000103       0.000019       0.000000
      0.000125       0.000098       0.000000
      0.000056       0.000129       0.000000
      0.000031       0.000017       0.000000
      0.000125       0.000098       0.000000
      0.000139       0.000207       0.000000
      0.000075       0.000297       0.000000
      0.000056       0.000129       0.000000
      0.000031       0.000017       0.000000
      0.000056       0.000129       0.000000
     -0.000097       0.000144       0.000000
     -0.000113       0.000010       0.000000
      0.000056       0.000129       0.000000
      0.000075       0.000297       0.000000
     -0.000077       0.000359       0.000000
     -0.000097       0.000144       0.000000
      0.000139       0.000207       0.000000
      0.000124       0.000348       0.000000
      0.000063       0.000532       0.000000
      0.000075       0.000297       0.000000
      0.000124       0.000348       0.000000
      0.000063       0.000499       0.000000
     -0.000017       0.000801       0.000000
      0.000063       0.000532       0.000000
      0.000075       0.000297       0.000000
      0.000063       0.000532       0.000000
     -0.000074       0.000703       0.000000
     -0.000077       0.000359       0.000000
      0.000063       0.000532       0.000000
     -0.000017       0.000801       0.000000
     -0.000160       0.001144       0.000000
     -0.000074       0.000703       0.000000
     -0.000138      -0.000214       0.000000
     -0.000124      -0.000094       0.000000
     -0.000292      -0.000107       0.000000
     -0.000294      -0.000240       0.000000
     -0.000124      -0.000094       0.000000
     -0.000113       0.000010       0.000000
     -0.000300       0.000007       0.000000
     -0.000292      -0.000107       0.000000
     -0.000294      -0.000240       0.000000
     -0.000292      -0.000107       0.000000
     -0.000443      -0.000106       0.000000
     -0.000441      -0.000242       0.000000
     -0.000292      -0.000107       0.000000
     -0.000300       0.000007       0.000000
     -0.000471       0.000020       0.000000
     -0.000443      -0.000106       0.000000
     -0.000113       0.000010       0.000000
     -0.000097       0.000144       0.000000
     -0.000318       0.000151       0.000000
     -0.000300       0.000007       0.000000
     -0.000097       0.000144       0.000000
     -0.000077       0.000359       0.000000
     -0.000335       0.000386       0.000000
     -0.000318       0.000151       0.000000
     -0.000300       0.000007       0.000000
     -0.000318       0.000151       0.000000
     -0.000545       0.000176       0.000000
     -0.000471       0.000020       0.000000
     -0.000318       0.000151       0.000000
     -0.000335       0.000386       0.000000
     -0.000673       0.000421       0.000000
     -0.000545       0.000176       0.000000
     -0.000077       0.000359       0.000000
     -0.000070       0.000514       0.000000
     -0.000184       0.000549       0.000000
     -0.000192       0.000376       0.000000
     -0.000070       0.000514       0.000000
     -0.000074       0.000703       0.000000
     -0.000181       0.000772       0.000000
     -0.000184       0.000549       0.000000
     -0.000192       0.000376       0.000000
     -0.000184       0.000549       0.000000
     -0.000337       0.000568       0.000000
     -0.000335       0.000386       0.000000
     -0.000184       0.000549       0.000000
     -0.000181       0.000772       0.000000
     -0.000333       0.000819       0.000000
     -0.000337       0.000568       0.000000
     -0.000074       0.000703       0.000000
     -0.000101       0.000921       0.000000
     -0.000200       0.001046       0.000000
     -0.000181       0.000772       0.000000
     -0.000101       0.000921       0.000000
     -0.000160       0.001144       0.000000
     -0.000261       0.001339       0.000000
     -0.000200       0.001046       0.000000
     -0.000181       0.000772       0.000000
     -0.000200       0.001046       0.000000
     -0.000337       0.001159       0.000000
     -0.000333       0.000819       0.000000
     -0.000200       0.001046       0.000000
     -0.000261       0.001339       0.000000
     -0.000394       0.001560       0.000000
     -0.000337       0.001159       0.000000
     -0.000335       0.000386       0.000000
     -0.000337       0.000568       0.000000
     -0.000535       0.000581       0.000000
     -0.000503       0.000397       0.000000
     -0.000337       0.000568       0.000000
     -0.000333       0.000819       0.000000
     -0.000558       0.000841       0.000000
     -0.000535       0.000581       0.000000
     -0.000503       0.000397       0.000000
     -0.000535       0.000581       0.000000
     -0.000759       0.000607       0.000000
     -0.000673       0.000421       0.000000
     -0.000535       0.000581       0.000000
     -0.000558       0.000841       0.000000
     -0.000862       0.000867       0.000000
     -0.000759       0.000607       0.000000
     -0.000333       0.000819       0.000000
     -0.000332       0.000978       0.000000
     -0.000432       0.001002       0.000000
     -0.000434       0.000833       0.000000
     -0.000332       0.000978       0.000000
     -0.000337       0.001159       0.000000
     -0.000431       0.001205       0.000000
     -0.000432       0.001002       0.000000
     -0.000434       0.000833       0.000000
     -0.000432       0.001002       0.000000
     -0.000561       0.001015       0.000000
     -0.000558       0.000841       0.000000
     -0.000432       0.001002       0.000000
     -0.000431       0.001205       0.000000
     -0.000557       0.001236       0.000000
     -0.000561       0.001015       0.000000
     -0.000337       0.001159       0.000000
     -0.000355       0.001359       0.000000
     -0.000442       0.001441       0.000000
     -0.000431       0.001205       0.000000
     -0.000355       0.001359       0.000000
     -0.000394       0.001560       0.000000
     -0.000481       0.001689       0.000000
     -0.000442       0.001441       0.000000
     -0.000431       0.001205       0.000000
     -0.000442       0.001441       0.000000
     -0.000556       0.001518       0.000000
     -0.000557       0.001236       0.000000
     -0.000442       0.001441       0.000000
     -0.000481       0.001689       0.000000
     -0.000591       0.001841       0.000000
     -0.000556       0.001518       0.000000
     -0.000558       0.000841       0.000000
     -0.000561       0.001015       0.000000
     -0.000727       0.001024       0.000000
     -0.000704       0.000849       0.000000
     -0.000561       0.001015       0.000000
     -0.000557       0.001236       0.000000
     -0.000740       0.001249       0.000000
     -0.000727       0.001024       0.000000
     -0.000704       0.000849       0.000000
     -0.000727       0.001024       0.000000
     -0.000921       0.001041       0.000000
     -0.000862       0.000867       0.000000
     -0.000727       0.001024       0.000000
     -0.000740       0.001249       0.000000
     -0.000988       0.001265       0.000000
     -0.000921       0.001041       0.000000
     -0.000557       0.001236       0.000000
     -0.000555       0.001369       0.000000
     -0.000636       0.001385       0.000000
     -0.000640       0.001244       0.000000
     -0.000555       0.001369       0.000000
     -0.000556       0.001518       0.000000
     -0.000632       0.001549       0.000000
     -0.000636       0.001385       0.000000
     -0.000640       0.001244       0.000000
     -0.000636       0.001385       0.000000
     -0.000739       0.001393       0.000000
     -0.000740       0.001249       0.000000
     -0.000636       0.001385       0.000000
     -0.000632       0.001549       0.000000
     -0.000731       0.001570       0.000000
     -0.000739       0.001393       0.000000
     -0.000556       0.001518       0.000000
     -0.000566       0.001679       0.000000
     -0.000636       0.001738       0.000000
     -0.000632       0.001549       0.000000
     -0.000566       0.001679       0.000000
     -0.000591       0.001841       0.000000
     -0.000660       0.001935       0.000000
     -0.000636       0.001738       0.000000
     -0.000632       0.001549       0.000000
     -0.000636       0.001738       0.000000
     -0.000724       0.001795       0.000000
     -0.000731       0.001570       0.000000
     -0.000636       0.001738       0.000000
     -0.000660       0.001935       0.000000
     -0.000746       0.002051       0.000000
     -0.000724       0.001795       0.000000
     -0.000740       0.001249       0.000000
     -0.000739       0.001393       0.000000
     -0.000871       0.001397       0.000000
     -0.000858       0.001254       0.000000
     -0.000739       0.001393       0.000000
     -0.000731       0.001570       0.000000
     -0.000875       0.001578       0.000000
     -0.000871       0.001397       0.000000
     -0.000858       0.001254       0.000000
     -0.000871       0.001397       0.000000
     -0.001026       0.001408       0.000000
     -0.000988       0.001265       0.000000
     -0.000871       0.001397       0.000000
     -0.000875       0.001578       0.000000
     -0.001072       0.001589       0.000000
     -0.001026       0.001408       0.000000
     -0.000731       0.001570       0.000000
     -0.000724       0.001795       0.000000
     -0.000859       0.001835       0.000000
     -0.000875       0.001578       0.000000
     -0.000724       0.001795       0.000000
     -0.000746       0.002051       0.000000
     -0.000869       0.002220       0.000000
     -0.000859       0.001835       0.000000
     -0.000875       0.001578       0.000000
     -0.000859       0.001835       0.000000
     -0.001131       0.001856       0.000000
     -0.001072       0.001589       0.000000
     -0.000859       0.001835       0.000000
     -0.000869       0.002220       0.000000
     -0.001196       0.002669       0.000000
     -0.001131       0.001856       0.000000
      0.000000       0.000000       0.000000
      0.000000       0.000000       0.000000
      0.000016       0.000289       0.000000
      0.000076       0.000232       0.000000
      0.000000       0.000000       0.000000
      0.000000       0.000000       0.000000
     -0.000061       0.000333       0.000000
      0.000016       0.000289       0.000000
      0.000076       0.000232       0.000000
      0.000016       0.000289       0.000000
     -0.000046       0.000632       0.000000
      0.000063       0.000499       0.000000
      0.000016       0.000289       0.000000
     -0.000061       0.000333       0.000000
     -0.000187       0.000729       0.000000
     -0.000046       0.000632       0.000000
      0.000000       0.000000       0.000000
      0.000000       0.000000       0.000000
     -0.000149       0.000367       0.000000
     -0.000061       0.000333       0.000000
      0.000000       0.000000       0.000000
      0.000000       0.000000       0.000000
     -0.000250       0.000404       0.000000
     -0.000149       0.000367       0.000000
     -0.000061       0.000333       0.000000
     -0.000149       0.000367       0.000000
     -0.000345       0.000800       0.000000
     -0.000187       0.000729       0.000000
     -0.000149       0.000367       0.000000
     -0.000250       0.000404       0.000000
     -0.000518       0.000873       0.000000
     -0.000345       0.000800       0.000000
      0.000000       0.000000       0.000000
      0.000000       0.000000       0.000000
     -0.000388       0.000484       0.000000
     -0.000250       0.000404       0.000000
      0.000000       0.000000       0.000000
      0.000000       0.000000       0.000000
     -0.000601       0.000731       0.000000
     -0.000388       0.000484       0.000000
     -0.000250       0.000404       0.000000
     -0.000388       0.000484       0.000000
     -0.000712       0.000997       0.000000
     -0.000518       0.000873       0.000000
     -0.000388       0.000484       0.000000
     -0.000601       0.000731       0.000000
     -0.000915       0.001216       0.000000
     -0.000712       0.000997       0.000000
      0.000063       0.000499       0.000000
     -0.000046       0.000632       0.000000
     -0.000171       0.001032       0.000000
     -0.000017       0.000801       0.000000
     -0.000046       0.000632       0.000000
     -0.000187       0.000729       0.000000
     -0.000364       0.001184       0.000000
     -0.000171       0.001032       0.000000
     -0.000017       0.000801       0.000000
     -0.000171       0.001032       0.000000
     -0.000361       0.001504       0.000000
     -0.000160       0.001144       0.000000
     -0.000171       0.001032       0.000000
     -0.000364       0.001184       0.000000
     -0.000586       0.001687       0.000000
     -0.000361       0.001504       0.000000
     -0.000187       0.000729       0.000000
     -0.000345       0.000800       0.000000
     -0.000565       0.001277       0.000000
     -0.000364       0.001184       0.000000
     -0.000345       0.000800       0.000000
     -0.000518       0.000873       0.000000
     -0.000766       0.001360       0.000000
     -0.000565       0.001277       0.000000
     -0.000364       0.001184       0.000000
     -0.000565       0.001277       0.000000
     -0.000788       0.001772       0.000000
     -0.000586       0.001687       0.000000
     -0.000565       0.001277       0.000000
     -0.000766       0.001360       0.000000
     -0.000979       0.001837       0.000000
     -0.000788       0.001772       0.000000
     -0.000518       0.000873       0.000000
     -0.000712       0.000997       0.000000
     -0.000965       0.001476       0.000000
     -0.000766       0.001360       0.000000
     -0.000712       0.000997       0.000000
     -0.000915       0.001216       0.000000
     -0.001154       0.001653       0.000000
     -0.000965       0.001476       0.000000
     -0.000766       0.001360       0.000000
     -0.000965       0.001476       0.000000
     -0.001166       0.001923       0.000000
     -0.000979       0.001837       0.000000
     -0.000965       0.001476       0.000000
     -0.001154       0.001653       0.000000
     -0.001341       0.002054       0.000000
     -0.001166       0.001923       0.000000
     -0.000586       0.001687       0.000000
     -0.000788       0.001772       0.000000
     -0.000976       0.002249       0.000000
     -0.000827       0.002205       0.000000
     -0.000788       0.001772       0.000000
     -0.000979       0.001837       0.000000
     -0.001135       0.002289       0.000000
     -0.000976       0.002249       0.000000
     -0.000827       0.002205       0.000000
     -0.000976       0.002249       0.000000
     -0.001062       0.002693       0.000000
     -0.000959       0.002674       0.000000
     -0.000976       0.002249       0.000000
     -0.001135       0.002289       0.000000
     -0.001203       0.002721       0.000000
     -0.001062       0.002693       0.000000
     -0.000979       0.001837       0.000000
     -0.001166       0.001923       0.000000
     -0.001305       0.002345       0.000000
     -0.001135       0.002289       0.000000
     -0.001166       0.001923       0.000000
     -0.001341       0.002054       0.000000
     -0.001469       0.002424       0.000000
     -0.001305       0.002345       0.000000
     -0.001135       0.002289       0.000000
     -0.001305       0.002345       0.000000
     -0.001365       0.002752       0.000000
     -0.001203       0.002721       0.000000
     -0.001305       0.002345       0.000000
     -0.001469       0.002424       0.000000
     -0.001526       0.002778       0.000000
     -0.001365       0.002752       0.000000
     -0.000160       0.001144       0.000000
     -0.000251       0.001345       0.000000
     -0.000366       0.001595       0.000000
     -0.000261       0.001339       0.000000
     -0.000251       0.001345       0.000000
     -0.000361       0.001504       0.000000
     -0.000490       0.001777       0.000000
     -0.000366       0.001595       0.000000
     -0.000261       0.001339       0.000000
     -0.000366       0.001595       0.000000
     -0.000521       0.001892       0.000000
     -0.000394       0.001560       0.000000
     -0.000366       0.001595       0.000000
     -0.000490       0.001777       0.000000
     -0.000649       0.002077       0.000000
     -0.000521       0.001892       0.000000
     -0.000361       0.001504       0.000000
     -0.000476       0.001614       0.000000
     -0.000606       0.001886       0.000000
     -0.000490       0.001777       0.000000
     -0.000476       0.001614       0.000000
     -0.000586       0.001687       0.000000
     -0.000709       0.001949       0.000000
     -0.000606       0.001886       0.000000
     -0.000490       0.001777       0.000000
     -0.000606       0.001886       0.000000
     -0.000747       0.002163       0.000000