# vtk DataFile Version 2.0
time_10.vtk
ASCII
DATASET UNSTRUCTURED_GRID
POINTS  1152 float
      0.000000       0.000000       0.000000
      0.083333       0.000000       0.000000
      0.083333       0.083333       0.000000
      0.000000       0.083333       0.000000
      0.083333       0.000000       0.000000
      0.166667       0.000000       0.000000
      0.166667       0.083333       0.000000
      0.083333       0.083333       0.000000
      0.000000       0.083333       0.000000
      0.083333       0.083333       0.000000
      0.083333       0.166667       0.000000
      0.000000       0.166667       0.000000
      0.083333       0.083333       0.000000
      0.166667       0.083333       0.000000
      0.166667       0.166667       0.000000
      0.083333       0.166667       0.000000
      0.166667       0.000000       0.000000
      0.250000       0.000000       0.000000
      0.250000       0.083333       0.000000
      0.166667       0.083333       0.000000
      0.250000       0.000000       0.000000
      0.333333       0.000000       0.000000
      0.333333       0.083333       0.000000
      0.250000       0.083333       0.000000
      0.166667       0.083333       0.000000
      0.250000       0.083333       0.000000
      0.250000       0.166667       0.000000
      0.166667       0.166667       0.000000
      0.250000       0.083333       0.000000
      0.333333       0.083333       0.000000
      0.333333       0.166667       0.000000
      0.250000       0.166667       0.000000
      0.333333       0.000000       0.000000
      0.416667      -0.000000       0.000000
      0.416667       0.083333       0.000000
      0.333333       0.083333       0.000000
      0.416667      -0.000000       0.000000
      0.500000       0.000000       0.000000
      0.500000       0.083333       0.000000
      0.416667       0.083333       0.000000
      0.333333       0.083333       0.000000
      0.416667       0.083333       0.000000
      0.416667       0.166667       0.000000
      0.333333       0.166667       0.000000
      0.416667       0.083333       0.000000
      0.500000       0.083333       0.000000
      0.500000       0.166667       0.000000
      0.416667       0.166667       0.000000
      0.000000       0.166667       0.000000
      0.083333       0.166667       0.000000
      0.083333       0.250000       0.000000
      0.000000       0.250000       0.000000
      0.083333       0.166667       0.000000
      0.166667       0.166667       0.000000
      0.166667       0.250000       0.000000
      0.083333       0.250000       0.000000
      0.000000       0.250000       0.000000
      0.083333       0.250000       0.000000
      0.083333       0.333333       0.000000
      0.000000       0.333333       0.000000
      0.083333       0.250000       0.000000
      0.166667       0.250000       0.000000
      0.166667       0.333333       0.000000
      0.083333       0.333333       0.000000
      0.166667       0.166667       0.000000
      0.250000       0.166667       0.000000
      0.250000       0.250000       0.000000
      0.166667       0.250000       0.000000
      0.250000       0.166667       0.000000
      0.333333       0.166667       0.000000
      0.333333       0.250000       0.000000
      0.250000       0.250000       0.000000
      0.166667       0.250000       0.000000
      0.250000       0.250000       0.000000
      0.250000       0.333333       0.000000
      0.166667       0.333333       0.000000
      0.250000       0.250000       0.000000
      0.333333       0.250000       0.000000
      0.333333       0.333333       0.000000
      0.250000       0.333333       0.000000
      0.333333       0.166667       0.000000
      0.416667       0.166667       0.000000
      0.416667       0.250000       0.000000
      0.333333       0.250000       0.000000
      0.416667       0.166667       0.000000
      0.500000       0.166667       0.000000
      0.500000       0.250000       0.000000
      0.416667       0.250000       0.000000
      0.333333       0.250000       0.000000
      0.416667       0.250000       0.000000
      0.416667       0.333333       0.000000
      0.333333       0.333333       0.000000
      0.416667       0.250000       0.000000
      0.500000       0.250000       0.000000
      0.500000       0.333333       0.000000
      0.416667       0.333333       0.000000
      0.000000       0.333333       0.000000
      0.083333       0.333333       0.000000
      0.083333       0.416667       0.000000
     -0.000000       0.416667       0.000000
      0.083333       0.333333       0.000000
      0.166667       0.333333       0.000000
      0.166667       0.416667       0.000000
      0.083333       0.416667       0.000000
     -0.000000       0.416667       0.000000
      0.083333       0.416667       0.000000
      0.083333       0.500000       0.000000
      0.000000       0.500000       0.000000
      0.083333       0.416667       0.000000
      0.166667       0.416667       0.000000
      0.166667       0.500000       0.000000
      0.083333       0.500000       0.000000
      0.166667       0.333333       0.000000
      0.250000       0.333333       0.000000
      0.250000       0.416667       0.000000
      0.166667       0.416667       0.000000
      0.250000       0.333333       0.000000
      0.333333       0.333333       0.000000
      0.333333       0.416667       0.000000
      0.250000       0.416667       0.000000
      0.166667       0.416667       0.000000
      0.250000       0.416667       0.000000
      0.250000       0.500000       0.000000
      0.166667       0.500000       0.000000
      0.250000       0.416667       0.000000
      0.333333       0.416667       0.000000
      0.333333       0.500000       0.000000
      0.250000       0.500000       0.000000
      0.333333       0.333333       0.000000
      0.375000       0.333333       0.000000
      0.375000       0.375000       0.000000
      0.333333       0.375000       0.000000
      0.375000       0.333333       0.000000
      0.416667       0.333333       0.000000
      0.416667       0.375000       0.000000
      0.375000       0.375000       0.000000
      0.333333       0.375000       0.000000
      0.375000       0.375000       0.000000
      0.375000       0.416667       0.000000
      0.333333       0.416667       0.000000
      0.375000       0.375000       0.000000
      0.416667       0.375000       0.000000
      0.416667       0.416667       0.000000
      0.375000       0.416667       0.000000
      0.416667       0.333333       0.000000
      0.458333       0.333333       0.000000
      0.458333       0.375000       0.000000
      0.416667       0.375000       0.000000
      0.458333       0.333333       0.000000
      0.500000       0.333333       0.000000
      0.500000       0.375000       0.000000
      0.458333       0.375000       0.000000
      0.416667       0.375000       0.000000
      0.458333       0.375000       0.000000
      0.458333       0.416667       0.000000
      0.416667       0.416667       0.000000
      0.458333       0.375000       0.000000
      0.500000       0.375000       0.000000
      0.500000       0.416667       0.000000
      0.458333       0.416667       0.000000
      0.333333       0.416667       0.000000
      0.375000       0.416667       0.000000
      0.375000       0.458333       0.000000
      0.333333       0.458333       0.000000
      0.375000       0.416667       0.000000
      0.416667       0.416667       0.000000
      0.416667       0.458333       0.000000
      0.375000       0.458333       0.000000
      0.333333       0.458333       0.000000
      0.375000       0.458333       0.000000
      0.375000       0.500000       0.000000
      0.333333       0.500000       0.000000
      0.375000       0.458333       0.000000
      0.416667       0.458333       0.000000
      0.416667       0.500000       0.000000
      0.375000       0.500000       0.000000
      0.416667       0.416667       0.000000
      0.437500       0.416667       0.000000
      0.437500       0.437500       0.000000
      0.416667       0.437500       0.000000
      0.437500       0.416667       0.000000
      0.458333       0.416667       0.000000
      0.458333       0.437500       0.000000
      0.437500       0.437500       0.000000
      0.416667       0.437500       0.000000
      0.437500       0.437500       0.000000
      0.437500       0.458333       0.000000
      0.416667       0.458333       0.000000
      0.437500       0.437500       0.000000
      0.458333       0.437500       0.000000
      0.458333       0.458333       0.000000
      0.437500       0.458333       0.000000
      0.458333       0.416667       0.000000
      0.479167       0.416667       0.000000
      0.479167       0.437500       0.000000
      0.458333       0.437500       0.000000
      0.479167       0.416667       0.000000
      0.500000       0.416667       0.000000
      0.500000       0.437500       0.000000
      0.479167       0.437500       0.000000
      0.458333       0.437500       0.000000
      0.479167       0.437500       0.000000
      0.479167       0.458333       0.000000
      0.458333       0.458333       0.000000
      0.479167       0.437500       0.000000
      0.500000       0.437500       0.000000
      0.500000       0.458333       0.000000
      0.479167       0.458333       0.000000
      0.416667       0.458333       0.000000
      0.437500       0.458333       0.000000
      0.437500       0.479167       0.000000
      0.416667       0.479167       0.000000
      0.437500       0.458333       0.000000
      0.458333       0.458333       0.000000
      0.458333       0.479167       0.000000
      0.437500       0.479167       0.000000
      0.416667       0.479167       0.000000
      0.437500       0.479167       0.000000
      0.437500       0.500000       0.000000
      0.416667       0.500000       0.000000
[...]
POINT_DATA  1152
VECTORS U float 
      0.000000       0.000000       0.000000
      0.000000       0.000000       0.000000
      0.000071      -0.000018       0.000000
      0.000050      -0.000021       0.000000
      0.000000       0.000000       0.000000
      0.000000       0.000000       0.000000
      0.000091       0.000013       0.000000
      0.000071      -0.000018       0.000000
      0.000050      -0.000021       0.000000
      0.000071      -0.000018       0.000000
      0.000074      -0.000046       0.000000
      0.000049      -0.000092       0.000000
      0.000071      -0.000018       0.000000
      0.000091       0.000013       0.000000
      0.000098       0.000015       0.000000
      0.000074      -0.000046       0.000000
      0.000000       0.000000       0.000000
      0.000000       0.000000       0.000000
      0.000110       0.000054       0.000000
      0.000091       0.000013       0.000000
      0.000000       0.000000       0.000000
      0.000000       0.000000       0.000000
      0.000121       0.000107       0.000000
      0.000110       0.000054       0.000000
      0.000091       0.000013       0.000000
      0.000110       0.000054       0.000000
      0.000123       0.000096       0.000000
      0.000098       0.000015       0.000000
      0.000110       0.000054       0.000000
      0.000121       0.000107       0.000000
      0.000139       0.000209       0.000000
      0.000123       0.000096       0.000000
      0.000000       0.000000       0.000000
      0.000000       0.000000       0.000000
      0.000114       0.000172       0.000000
      0.000121       0.000107       0.000000
      0.000000       0.000000       0.000000
      0.000000       0.000000       0.000000
      0.000081       0.000242       0.000000
      0.000114       0.000172       0.000000
      0.000121       0.000107       0.000000
      0.000114       0.000172       0.000000
      0.000127       0.000356       0.000000
      0.000139       0.000209       0.000000
      0.000114       0.000172       0.000000
      0.000081       0.000242       0.000000
      0.000067       0.000518       0.000000
      0.000127       0.000356       0.000000
      0.000049      -0.000092       0.000000
      0.000074      -0.000046       0.000000
     -0.000002      -0.000078       0.000000
     -0.000026      -0.000171       0.000000
      0.000074      -0.000046       0.000000
      0.000098       0.000015       0.000000
      0.000019       0.000010       0.000000
     -0.000002      -0.000078       0.000000
     -0.000026      -0.000171       0.000000
     -0.000002      -0.000078       0.000000
     -0.000146      -0.000106       0.000000
     -0.000160      -0.000232       0.000000
     -0.000002      -0.000078       0.000000
      0.000019       0.000010       0.000000
     -0.000134       0.000002       0.000000
     -0.000146      -0.000106       0.000000
      0.000098       0.000015       0.000000
      0.000123       0.000096       0.000000
      0.000045       0.000125       0.000000
      0.000019       0.000010       0.000000
      0.000123       0.000096       0.000000
      0.000139       0.000209       0.000000
      0.000067       0.000298       0.000000
      0.000045       0.000125       0.000000
      0.000019       0.000010       0.000000
      0.000045       0.000125       0.000000
     -0.000119       0.000139       0.000000
     -0.000134       0.000002       0.000000
      0.000045       0.000125       0.000000
      0.000067       0.000298       0.000000
     -0.000098       0.000358       0.000000
     -0.000119       0.000139       0.000000
      0.000139       0.000209       0.000000
      0.000127       0.000356       0.000000
      0.000058       0.000542       0.000000
      0.000067       0.000298       0.000000
      0.000127       0.000356       0.000000
      0.000067       0.000518       0.000000
     -0.000020       0.000829       0.000000
      0.000058       0.000542       0.000000
      0.000067       0.000298       0.000000
      0.000058       0.000542       0.000000
     -0.000093       0.000711       0.000000
     -0.000098       0.000358       0.000000
      0.000058       0.000542       0.000000
     -0.000020       0.000829       0.000000
     -0.000174       0.001178       0.000000
     -0.000093       0.000711       0.000000
     -0.000160      -0.000232       0.000000
     -0.000146      -0.000106       0.000000
     -0.000321      -0.000120       0.000000
     -0.000323      -0.000258       0.000000
     -0.000146      -0.000106       0.000000
     -0.000134       0.000002       0.000000
     -0.000331      -0.000001       0.000000
     -0.000321      -0.000120       0.000000
     -0.000323      -0.000258       0.000000
     -0.000321      -0.000120       0.000000
     -0.000479      -0.000119       0.000000
     -0.000477      -0.000260       0.000000
     -0.000321      -0.000120       0.000000
     -0.000331      -0.000001       0.000000
     -0.000508       0.000012       0.000000
     -0.000479      -0.000119       0.000000
     -0.000134       0.000002       0.000000
     -0.000119       0.000139       0.000000
     -0.000350       0.000146       0.000000
     -0.000331      -0.000001       0.000000
     -0.000119       0.000139       0.000000
     -0.000098       0.000358       0.000000
     -0.000371       0.000384       0.000000
     -0.000350       0.000146       0.000000
     -0.000331      -0.000001       0.000000
     -0.000350       0.000146       0.000000
     -0.000584       0.000172       0.000000
     -0.000508       0.000012       0.000000
     -0.000350       0.000146       0.000000
     -0.000371       0.000384       0.000000
     -0.000717       0.000422       0.000000
     -0.000584       0.000172       0.000000
     -0.000098       0.000358       0.000000
     -0.000091       0.000516       0.000000
     -0.000213       0.000549       0.000000
     -0.000220       0.000374       0.000000
     -0.000091       0.000516       0.000000
     -0.000093       0.000711       0.000000
     -0.000211       0.000777       0.000000
     -0.000213       0.000549       0.000000
     -0.000220       0.000374       0.000000
     -0.000213       0.000549       0.000000
     -0.000375       0.000569       0.000000
     -0.000371       0.000384       0.000000
     -0.000213       0.000549       0.000000
     -0.000211       0.000777       0.000000
     -0.000374       0.000822       0.000000
     -0.000375       0.000569       0.000000
     -0.000093       0.000711       0.000000
     -0.000117       0.000938       0.000000
     -0.000226       0.001059       0.000000
     -0.000211       0.000777       0.000000
     -0.000117       0.000938       0.000000
     -0.000174       0.001178       0.000000
     -0.000283       0.001371       0.000000
     -0.000226       0.001059       0.000000
     -0.000211       0.000777       0.000000
     -0.000226       0.001059       0.000000
     -0.000378       0.001165       0.000000
     -0.000374       0.000822       0.000000
     -0.000226       0.001059       0.000000
     -0.000283       0.001371       0.000000
     -0.000429       0.001586       0.000000
     -0.000378       0.001165       0.000000
     -0.000371       0.000384       0.000000
     -0.000375       0.000569       0.000000
     -0.000580       0.000582       0.000000
     -0.000544       0.000396       0.000000
     -0.000375       0.000569       0.000000
     -0.000374       0.000822       0.000000
     -0.000608       0.000843       0.000000
     -0.000580       0.000582       0.000000
     -0.000544       0.000396       0.000000
     -0.000580       0.000582       0.000000
     -0.000806       0.000610       0.000000
     -0.000717       0.000422       0.000000
     -0.000580       0.000582       0.000000
     -0.000608       0.000843       0.000000
     -0.000912       0.000872       0.000000
     -0.000806       0.000610       0.000000
     -0.000374       0.000822       0.000000
     -0.000373       0.000981       0.000000
     -0.000480       0.001004       0.000000
     -0.000481       0.000835       0.000000
     -0.000373       0.000981       0.000000
     -0.000378       0.001165       0.000000
     -0.000480       0.001207       0.000000
     -0.000480       0.001004       0.000000
     -0.000481       0.000835       0.000000
     -0.000480       0.001004       0.000000
     -0.000614       0.001017       0.000000
     -0.000608       0.000843       0.000000
     -0.000480       0.001004       0.000000
     -0.000480       0.001207       0.000000
     -0.000614       0.001235       0.000000
     -0.000614       0.001017       0.000000
     -0.000378       0.001165       0.000000
     -0.000394       0.001371       0.000000
     -0.000490       0.001445       0.000000
     -0.000480       0.001207       0.000000
     -0.000394       0.001371       0.000000
     -0.000429       0.001586       0.000000
     -0.000523       0.001706       0.000000
     -0.000490       0.001445       0.000000
     -0.000480       0.001207       0.000000
     -0.000490       0.001445       0.000000
     -0.000615       0.001512       0.000000
     -0.000614       0.001235       0.000000
     -0.000490       0.001445       0.000000
     -0.000523       0.001706       0.000000
     -0.000643       0.001845       0.000000
     -0.000615       0.001512       0.000000
     -0.000608       0.000843       0.000000
     -0.000614       0.001017       0.000000
     -0.000782       0.001027       0.000000
     -0.000755       0.000853       0.000000
     -0.000614       0.001017       0.000000
     -0.000614       0.001235       0.000000
     -0.000799       0.001248       0.000000
     -0.000782       0.001027       0.000000
     -0.000755       0.000853       0.000000
     -0.000782       0.001027       0.000000
     -0.000973       0.001045       0.000000
     -0.000912       0.000872       0.000000
     -0.000782       0.001027       0.000000
     -0.000799       0.001248       0.000000
     -0.001040       0.001265       0.000000
     -0.000973       0.001045       0.000000
     -0.000614       0.001235       0.000000
     -0.000613       0.001365       0.000000
     -0.000697       0.001379       0.000000
     -0.000699       0.001242       0.000000
     -0.000613       0.001365       0.000000
     -0.000615       0.001512       0.000000
     -0.000695       0.001539       0.000000
     -0.000697       0.001379       0.000000
     -0.000699       0.001242       0.000000
     -0.000697       0.001379       0.000000
     -0.000801       0.001386       0.000000
     -0.000799       0.001248       0.000000
     -0.000697       0.001379       0.000000
     -0.000695       0.001539       0.000000
     -0.000797       0.001557       0.000000
     -0.000801       0.001386       0.000000
     -0.000615       0.001512       0.000000
     -0.000623       0.001675       0.000000
     -0.000699       0.001725       0.000000
     -0.000695       0.001539       0.000000
     -0.000623       0.001675       0.000000
     -0.000643       0.001845       0.000000
     -0.000718       0.001930       0.000000
     -0.000699       0.001725       0.000000
     -0.000695       0.001539       0.000000
     -0.000699       0.001725       0.000000
     -0.000792       0.001775       0.000000
     -0.000797       0.001557       0.000000
     -0.000699       0.001725       0.000000
     -0.000718       0.001930       0.000000
     -0.000810       0.002038       0.000000
     -0.000792       0.001775       0.000000
     -0.000799       0.001248       0.000000
     -0.000801       0.001386       0.000000
     -0.000930       0.001391       0.000000
     -0.000915       0.001253       0.000000
     -0.000801       0.001386       0.000000
     -0.000797       0.001557       0.000000
     -0.000938       0.001564       0.000000
     -0.000930       0.001391       0.000000
     -0.000915       0.001253       0.000000
     -0.000930       0.001391       0.000000
     -0.001079       0.001403       0.000000
     -0.001040       0.001265       0.000000
     -0.000930       0.001391       0.000000
     -0.000938       0.001564       0.000000
     -0.001126       0.001577       0.000000
     -0.001079       0.001403       0.000000
     -0.000797       0.001557       0.000000
     -0.000792       0.001775       0.000000
     -0.000927       0.001811       0.000000
     -0.000938       0.001564       0.000000
     -0.000792       0.001775       0.000000
     -0.000810       0.002038       0.000000
     -0.000939       0.002213       0.000000
     -0.000927       0.001811       0.000000
     -0.000938       0.001564       0.000000
     -0.000927       0.001811       0.000000
     -0.001195       0.001840       0.000000
     -0.001126       0.001577       0.000000
     -0.000927       0.001811       0.000000
     -0.000939       0.002213       0.000000
     -0.001352       0.002901       0.000000
     -0.001195       0.001840       0.000000
      0.000000       0.000000       0.000000
      0.000000       0.000000       0.000000
      0.000020       0.000304       0.000000
      0.000081       0.000242       0.000000
      0.000000       0.000000       0.000000
      0.000000       0.000000       0.000000
     -0.000061       0.000354       0.000000
      0.000020       0.000304       0.000000
      0.000081       0.000242       0.000000
      0.000020       0.000304       0.000000
     -0.000045       0.000665       0.000000
      0.000067       0.000518       0.000000
      0.000020       0.000304       0.000000
     -0.000061       0.000354       0.000000
     -0.000196       0.000776       0.000000
     -0.000045       0.000665       0.000000
      0.000000       0.000000       0.000000
      0.000000       0.000000       0.000000
     -0.000156       0.000393       0.000000
     -0.000061       0.000354       0.000000
      0.000000       0.000000       0.000000
      0.000000       0.000000       0.000000
     -0.000266       0.000437       0.000000
     -0.000156       0.000393       0.000000
     -0.000061       0.000354       0.000000
     -0.000156       0.000393       0.000000
     -0.000368       0.000860       0.000000
     -0.000196       0.000776       0.000000
     -0.000156       0.000393       0.000000
     -0.000266       0.000437       0.000000
     -0.000557       0.000946       0.000000
     -0.000368       0.000860       0.000000
      0.000000       0.000000       0.000000
      0.000000       0.000000       0.000000
     -0.000419       0.000529       0.000000
     -0.000266       0.000437       0.000000
      0.000000       0.000000       0.000000
      0.000000       0.000000       0.000000
     -0.000651       0.000799       0.000000
     -0.000419       0.000529       0.000000
     -0.000266       0.000437       0.000000
     -0.000419       0.000529       0.000000
     -0.000770       0.001086       0.000000
     -0.000557       0.000946       0.000000
     -0.000419       0.000529       0.000000
     -0.000651       0.000799       0.000000
     -0.000991       0.001328       0.000000
     -0.000770       0.001086       0.000000
      0.000067       0.000518       0.000000
     -0.000045       0.000665       0.000000
     -0.000179       0.001086       0.000000
     -0.000020       0.000829       0.000000
     -0.000045       0.000665       0.000000
     -0.000196       0.000776       0.000000
     -0.000387       0.001264       0.000000
     -0.000179       0.001086       0.000000
     -0.000020       0.000829       0.000000
     -0.000179       0.001086       0.000000
     -0.000383       0.001586       0.000000
     -0.000174       0.001178       0.000000
     -0.000179       0.001086       0.000000
     -0.000387       0.001264       0.000000
     -0.000631       0.001812       0.000000
     -0.000383       0.001586       0.000000
     -0.000196       0.000776       0.000000
     -0.000368       0.000860       0.000000
     -0.000609       0.001378       0.000000
     -0.000387       0.001264       0.000000
     -0.000368       0.000860       0.000000
     -0.000557       0.000946       0.000000
     -0.000829       0.001476       0.000000
     -0.000609       0.001378       0.000000
     -0.000387       0.001264       0.000000
     -0.000609       0.001378       0.000000
     -0.000857       0.001918       0.000000
     -0.000631       0.001812       0.000000
     -0.000609       0.001378       0.000000
     -0.000829       0.001476       0.000000
     -0.001067       0.001995       0.000000
     -0.000857       0.001918       0.000000
     -0.000557       0.000946       0.000000
     -0.000770       0.001086       0.000000
     -0.001047       0.001607       0.000000
     -0.000829       0.001476       0.000000
     -0.000770       0.001086       0.000000
     -0.000991       0.001328       0.000000
     -0.001252       0.001803       0.000000
     -0.001047       0.001607       0.000000
     -0.000829       0.001476       0.000000
     -0.001047       0.001607       0.000000
     -0.001270       0.002092       0.000000
     -0.001067       0.001995       0.000000
     -0.001047       0.001607       0.000000
     -0.001252       0.001803       0.000000
     -0.001459       0.002237       0.000000
     -0.001270       0.002092       0.000000
     -0.000631       0.001812       0.000000
     -0.000857       0.001918       0.000000
     -0.001070       0.002441       0.000000
     -0.000905       0.002384       0.000000
     -0.000857       0.001918       0.000000
     -0.001067       0.001995       0.000000
     -0.001243       0.002486       0.000000
     -0.001070       0.002441       0.000000
     -0.000905       0.002384       0.000000
     -0.001070       0.002441       0.000000
     -0.001169       0.002924       0.000000
     -0.001061       0.002904       0.000000
     -0.001070       0.002441       0.000000
     -0.001243       0.002486       0.000000
     -0.001319       0.002953       0.000000
     -0.001169       0.002924       0.000000
     -0.001067       0.001995       0.000000
     -0.001270       0.002092       0.000000
     -0.001425       0.002547       0.000000
     -0.001243       0.002486       0.000000
     -0.001270       0.002092       0.000000
     -0.001459       0.002237       0.000000
     -0.001602       0.002635       0.000000
     -0.001425       0.002547       0.000000
     -0.001243       0.002486       0.000000
     -0.001425       0.002547       0.000000
     -0.001492       0.002985       0.000000
     -0.001319       0.002953       0.000000
     -0.001425       0.002547       0.000000
     -0.001602       0.002635       0.000000
     -0.001665       0.003013       0.000000
     -0.001492       0.002985       0.000000
     -0.000174       0.001178       0.000000
     -0.000266       0.001402       0.000000
     -0.000389       0.001661       0.000000
     -0.000283       0.001371       0.000000
     -0.000266       0.001402       0.000000
     -0.000383       0.001586       0.000000
     -0.000522       0.001879       0.000000
     -0.000389       0.001661       0.000000
     -0.000283       0.001371       0.000000
     -0.000389       0.001661       0.000000
     -0.000555       0.001970       0.000000
     -0.000429       0.001586       0.000000
     -0.000389       0.001661       0.000000
     -0.000522       0.001879       0.000000
     -0.000698       0.002209       0.000000
     -0.000555       0.001970       0.000000
     -0.000383       0.001586       0.000000
     -0.000509       0.001720       0.000000
     -0.000653       0.002018       0.000000
     -0.000522       0.001879       0.000000
     -0.000509       0.001720       0.000000
     -0.000631       0.001812       0.000000
     -0.000770       0.002100       0.000000
     -0.000653       0.002018       0.000000
     -0.000522       0.001879       0.000000
     -0.000653       0.002018       0.000000
     -0.000813       0.002327       0.000000