# vtk DataFile Version 2.0
time_10.vtk
ASCII
DATASET UNSTRUCTURED_GRID
POINTS  1152 float
      0.000000       0.000000       0.000000
      0.083333       0.000000       0.000000
      0.083333       0.083333       0.000000
      0.000000       0.083333       0.000000
      0.083333       0.000000       0.000000
      0.166667       0.000000       0.000000
      0.166667       0.083333       0.000000
      0.083333       0.083333       0.000000
      0.000000       0.083333       0.000000
      0.083333       0.083333       0.000000
      0.083333       0.166667       0.000000
      0.000000       0.166667       0.000000
      0.083333       0.083333       0.000000
      0.166667       0.083333       0.000000
      0.166667       0.166667       0.000000
      0.083333       0.166667       0.000000
      0.166667       0.000000       0.000000
      0.250000       0.000000       0.000000
      0.250000       0.083333       0.000000
      0.166667       0.083333       0.000000
      0.250000       0.000000       0.000000
      0.333333       0.000000       0.000000
      0.333333       0.083333       0.000000
      0.250000       0.083333       0.000000
      0.166667       0.083333       0.000000
      0.250000       0.083333       0.000000
      0.250000       0.166667       0.000000
      0.166667       0.166667       0.000000
      0.250000       0.083333       0.000000
      0.333333       0.083333       0.000000
      0.333333       0.166667       0.000000
      0.250000       0.166667       0.000000
      0.333333       0.000000       0.000000
      0.416667      -0.000000       0.000000
      0.416667       0.083333       0.000000
      0.333333       0.083333       0.000000
      0.416667      -0.000000       0.000000
      0.500000       0.000000       0.000000
      0.500000       0.083333       0.000000
      0.416667       0.083333       0.000000
      0.333333       0.083333       0.000000
      0.416667       0.083333       0.000000
      0.416667       0.166667       0.000000
      0.333333       0.166667       0.000000
      0.416667       0.083333       0.000000
      0.500000       0.083333       0.000000
      0.500000       0.166667       0.000000
      0.416667       0.166667       0.000000
      0.000000       0.166667       0.000000
      0.083333       0.166667       0.000000
      0.083333       0.250000       0.000000
      0.000000       0.250000       0.000000
      0.083333       0.166667       0.000000
      0.166667       0.166667       0.000000
      0.166667       0.250000       0.000000
      0.083333       0.250000       0.000000
      0.000000       0.250000       0.000000
      0.083333       0.250000       0.000000
      0.083333       0.333333       0.000000
      0.000000       0.333333       0.000000
      0.083333       0.250000       0.000000
      0.166667       0.250000       0.000000
      0.166667       0.333333       0.000000
      0.083333       0.333333       0.000000
      0.166667       0.166667       0.000000
      0.250000       0.166667       0.000000
      0.250000       0.250000       0.000000
      0.166667       0.250000       0.000000
      0.250000       0.166667       0.000000
      0.333333       0.166667       0.000000
      0.333333       0.250000       0.000000
      0.250000       0.250000       0.000000
      0.166667       0.250000       0.000000
      0.250000       0.250000       0.000000
      0.250000       0.333333       0.000000
      0.166667       0.333333       0.000000
      0.250000       0.250000       0.000000
      0.333333       0.250000       0.000000
      0.333333       0.333333       0.000000
      0.250000       0.333333       0.000000
      0.333333       0.166667       0.000000
      0.416667       0.166667       0.000000
      0.416667       0.250000       0.000000
      0.333333       0.250000       0.000000
      0.416667       0.166667       0.000000
      0.500000       0.166667       0.000000
      0.500000       0.250000       0.000000
      0.416667       0.250000       0.000000
      0.333333       0.250000       0.000000
      0.416667       0.250000       0.000000
      0.416667       0.333333       0.000000
      0.333333       0.333333       0.000000
      0.416667       0.250000       0.000000
      0.500000       0.250000       0.000000
      0.500000       0.333333       0.000000
      0.416667       0.333333       0.000000
      0.000000       0.333333       0.000000
      0.083333       0.333333       0.000000
      0.083333       0.416667       0.000000
     -0.000000       0.416667       0.000000
      0.083333       0.333333       0.000000
      0.166667       0.333333       0.000000
      0.166667       0.416667       0.000000
      0.083333       0.416667       0.000000
     -0.000000       0.416667       0.000000
      0.083333       0.416667       0.000000
      0.083333       0.500000       0.000000
      0.000000       0.500000       0.000000
      0.083333       0.416667       0.000000
      0.166667       0.416667       0.000000
      0.166667       0.500000       0.000000
      0.083333       0.500000       0.000000
      0.166667       0.333333       0.000000
      0.250000       0.333333       0.000000
      0.250000       0.416667       0.000000
      0.166667       0.416667       0.000000
      0.250000       0.333333       0.000000
      0.333333       0.333333       0.000000
      0.333333       0.416667       0.000000
      0.250000       0.416667       0.000000
      0.166667       0.416667       0.000000
      0.250000       0.416667       0.000000
      0.250000       0.500000       0.000000
      0.166667       0.500000       0.000000
      0.250000       0.416667       0.000000
      0.333333       0.416667       0.000000
      0.333333       0.500000       0.000000
      0.250000       0.500000       0.000000
      0.333333       0.333333       0.000000
      0.375000       0.333333       0.000000
      0.375000       0.375000       0.000000
      0.333333       0.375000       0.000000
      0.375000       0.333333       0.000000
      0.416667       0.333333       0.000000
      0.416667       0.375000       0.000000
      0.375000       0.375000       0.000000
      0.333333       0.375000       0.000000
      0.375000       0.375000       0.000000
      0.375000       0.416667       0.000000
      0.333333       0.416667       0.000000
      0.375000       0.375000       0.000000
      0.416667       0.375000       0.000000
      0.416667       0.416667       0.000000
      0.375000       0.416667       0.000000
      0.416667       0.333333       0.000000
      0.458333       0.333333       0.000000
      0.458333       0.375000       0.000000
      0.416667       0.375000       0.000000
      0.458333       0.333333       0.000000
      0.500000       0.333333       0.000000
      0.500000       0.375000       0.000000
      0.458333       0.375000       0.000000
      0.416667       0.375000       0.000000
      0.458333       0.375000       0.000000
      0.458333       0.416667       0.000000
      0.416667       0.416667       0.000000
      0.458333       0.375000       0.000000
      0.500000       0.375000       0.000000
      0.500000       0.416667       0.000000
      0.458333       0.416667       0.000000
      0.333333       0.416667       0.000000
      0.375000       0.416667       0.000000
      0.375000       0.458333       0.000000
      0.333333       0.458333       0.000000
      0.375000       0.416667       0.000000
      0.416667       0.416667       0.000000
      0.416667       0.458333       0.000000
      0.375000       0.458333       0.000000
      0.333333       0.458333       0.000000
      0.375000       0.458333       0.000000
      0.375000       0.500000       0.000000
      0.333333       0.500000       0.000000
      0.375000       0.458333       0.000000
      0.416667       0.458333       0.000000
      0.416667       0.500000       0.000000
      0.375000       0.500000       0.000000
      0.416667       0.416667       0.000000
      0.437500       0.416667       0.000000
      0.437500       0.437500       0.000000
      0.416667       0.437500       0.000000
      0.437500       0.416667       0.000000
      0.458333       0.416667       0.000000
      0.458333       0.437500       0.000000
      0.437500       0.437500       0.000000
      0.416667       0.437500       0.000000
      0.437500       0.437500       0.000000
      0.437500       0.458333       0.000000
      0.416667       0.458333       0.000000
      0.437500       0.437500       0.000000
      0.458333       0.437500       0.000000
      0.458333       0.458333       0.000000
      0.437500       0.458333       0.000000
      0.458333       0.416667       0.000000
      0.479167       0.416667       0.000000
      0.479167       0.437500       0.000000
      0.458333       0.437500       0.000000
      0.479167       0.416667       0.000000
      0.500000       0.416667       0.000000
      0.500000       0.437500       0.000000
      0.479167       0.437500       0.000000
      0.458333       0.437500       0.000000
      0.479167       0.437500       0.000000
      0.479167       0.458333       0.000000
      0.458333       0.458333       0.000000
      0.479167       0.437500       0.000000
      0.500000       0.437500       0.000000
      0.500000       0.458333       0.000000
      0.479167       0.458333       0.000000
      0.416667       0.458333       0.000000
      0.437500       0.458333       0.000000
      0.437500       0.479167       0.000000
      0.416667       0.479167       0.000000
      0.437500       0.458333       0.000000
      0.458333       0.458333       0.000000
      0.458333       0.479167       0.000000
      0.437500       0.479167       0.000000
      0.416667       0.479167       0.000000
      0.437500       0.479167       0.000000
      0.437500       0.500000       0.000000
      0.416667       0.500000       0.000000
[...]
POINT_DATA  1152
VECTORS U float 
      0.000000       0.000000       0.000000
      0.000000       0.000000       0.000000
      0.000073      -0.000014       0.000000
      0.000054      -0.000015       0.000000
      0.000000       0.000000       0.000000
      0.000000       0.000000       0.000000
      0.000092       0.000015       0.000000
      0.000073      -0.000014       0.000000
      0.000054      -0.000015       0.000000
      0.000073      -0.000014       0.000000
      0.000081      -0.000039       0.000000
      0.000057      -0.000081       0.000000
      0.000073      -0.000014       0.000000
      0.000092       0.000015       0.000000
      0.000103       0.000019       0.000000
      0.000081      -0.000039       0.000000
      0.000000       0.000000       0.000000
      0.000000       0.000000       0.000000
      0.000109       0.000054       0.000000
      0.000092       0.000015       0.000000
      0.000000       0.000000       0.000000
      0.000000       0.000000       0.000000
      0.000118       0.000105       0.000000
      0.000109       0.000054       0.000000
      0.000092       0.000015       0.000000
      0.000109       0.000054       0.000000
      0.000125       0.000098       0.000000
      0.000103       0.000019       0.000000
      0.000109       0.000054       0.000000
      0.000118       0.000105       0.000000
      0.000139       0.000207       0.000000
      0.000125       0.000098       0.000000
      0.000000       0.000000       0.000000
      0.000000       0.000000       0.000000
      0.000109       0.000167       0.000000
      0.000118       0.000105       0.000000
      0.000000       0.000000       0.000000
      0.000000       0.000000       0.000000
      0.000076       0.000232       0.000000
      0.000109       0.000167       0.000000
      0.000118       0.000105       0.000000
      0.000109       0.000167       0.000000
      0.000124       0.000347       0.000000
      0.000139       0.000207       0.000000
      0.000109       0.000167       0.000000
      0.000076       0.000232       0.000000
      0.000063       0.000498       0.000000
      0.000124       0.000347       0.000000
      0.000057      -0.000081       0.000000
      0.000081      -0.000039       0.000000
      0.000012      -0.000068       0.000000
     -0.000011      -0.000155       0.000000
      0.000081      -0.000039       0.000000
      0.000103       0.000019       0.000000
      0.000032       0.000017       0.000000
      0.000012      -0.000068       0.000000
     -0.000011      -0.000155       0.000000
      0.000012      -0.000068       0.000000
     -0.000123      -0.000093       0.000000
     -0.000137      -0.000213       0.000000
      0.000012      -0.000068       0.000000
      0.000032       0.000017       0.000000
     -0.000112       0.000010       0.000000
     -0.000123      -0.000093       0.000000
      0.000103       0.000019       0.000000
      0.000125       0.000098       0.000000
      0.000056       0.000129       0.000000
      0.000032       0.000017       0.000000
      0.000125       0.000098       0.000000
      0.000139       0.000207       0.000000
      0.000075       0.000297       0.000000
      0.000056       0.000129       0.000000
      0.000032       0.000017       0.000000
      0.000056       0.000129       0.000000
     -0.000097       0.000144       0.000000
     -0.000112       0.000010       0.000000
      0.000056       0.000129       0.000000
      0.000075       0.000297       0.000000
     -0.000076       0.000359       0.000000
     -0.000097       0.000144       0.000000
      0.000139       0.000207       0.000000
      0.000124       0.000347       0.000000
      0.000063       0.000531       0.000000
      0.000075       0.000297       0.000000
      0.000124       0.000347       0.000000
      0.000063       0.000498       0.000000
     -0.000017       0.000799       0.000000
      0.000063       0.000531       0.000000
      0.000075       0.000297       0.000000
      0.000063       0.000531       0.000000
     -0.000073       0.000702       0.000000
     -0.000076       0.000359       0.000000
      0.000063       0.000531       0.000000
     -0.000017       0.000799       0.000000
     -0.000159       0.001141       0.000000
     -0.000073       0.000702       0.000000
     -0.000137      -0.000213       0.000000
     -0.000123      -0.000093       0.000000
     -0.000290      -0.000107       0.000000
     -0.000292      -0.000239       0.000000
     -0.000123      -0.000093       0.000000
     -0.000112       0.000010       0.000000
     -0.000299       0.000008       0.000000
     -0.000290      -0.000107       0.000000
     -0.000292      -0.000239       0.000000
     -0.000290      -0.000107       0.000000
     -0.000442      -0.000106       0.000000
     -0.000440      -0.000241       0.000000
     -0.000290      -0.000107       0.000000
     -0.000299       0.000008       0.000000
     -0.000470       0.000020       0.000000
     -0.000442      -0.000106       0.000000
     -0.000112       0.000010       0.000000
     -0.000097       0.000144       0.000000
     -0.000317       0.000151       0.000000
     -0.000299       0.000008       0.000000
     -0.000097       0.000144       0.000000
     -0.000076       0.000359       0.000000
     -0.000333       0.000385       0.000000
     -0.000317       0.000151       0.000000
     -0.000299       0.000008       0.000000
     -0.000317       0.000151       0.000000
     -0.000543       0.000176       0.000000
     -0.000470       0.000020       0.000000
     -0.000317       0.000151       0.000000
     -0.000333       0.000385       0.000000
     -0.000671       0.000420       0.000000
     -0.000543       0.000176       0.000000
     -0.000076       0.000359       0.000000
     -0.000069       0.000513       0.000000
     -0.000183       0.000548       0.000000
     -0.000191       0.000376       0.000000
     -0.000069       0.000513       0.000000
     -0.000073       0.000702       0.000000
     -0.000180       0.000771       0.000000
     -0.000183       0.000548       0.000000
     -0.000191       0.000376       0.000000
     -0.000183       0.000548       0.000000
     -0.000335       0.000567       0.000000
     -0.000333       0.000385       0.000000
     -0.000183       0.000548       0.000000
     -0.000180       0.000771       0.000000
     -0.000331       0.000818       0.000000
     -0.000335       0.000567       0.000000
     -0.000073       0.000702       0.000000
     -0.000100       0.000919       0.000000
     -0.000199       0.001044       0.000000
     -0.000180       0.000771       0.000000
     -0.000100       0.000919       0.000000
     -0.000159       0.001141       0.000000
     -0.000259       0.001336       0.000000
     -0.000199       0.001044       0.000000
     -0.000180       0.000771       0.000000
     -0.000199       0.001044       0.000000
     -0.000335       0.001157       0.000000
     -0.000331       0.000818       0.000000
     -0.000199       0.001044       0.000000
     -0.000259       0.001336       0.000000
     -0.000392       0.001557       0.000000
     -0.000335       0.001157       0.000000
     -0.000333       0.000385       0.000000
     -0.000335       0.000567       0.000000
     -0.000533       0.000580       0.000000
     -0.000501       0.000396       0.000000
     -0.000335       0.000567       0.000000
     -0.000331       0.000818       0.000000
     -0.000556       0.000839       0.000000
     -0.000533       0.000580       0.000000
     -0.000501       0.000396       0.000000
     -0.000533       0.000580       0.000000
     -0.000756       0.000606       0.000000
     -0.000671       0.000420       0.000000
     -0.000533       0.000580       0.000000
     -0.000556       0.000839       0.000000
     -0.000859       0.000865       0.000000
     -0.000756       0.000606       0.000000
     -0.000331       0.000818       0.000000
     -0.000330       0.000976       0.000000
     -0.000430       0.001000       0.000000
     -0.000433       0.000831       0.000000
     -0.000330       0.000976       0.000000
     -0.000335       0.001157       0.000000
     -0.000429       0.001203       0.000000
     -0.000430       0.001000       0.000000
     -0.000433       0.000831       0.000000
     -0.000430       0.001000       0.000000
     -0.000559       0.001013       0.000000
     -0.000556       0.000839       0.000000
     -0.000430       0.001000       0.000000
     -0.000429       0.001203       0.000000
     -0.000555       0.001234       0.000000
     -0.000559       0.001013       0.000000
     -0.000335       0.001157       0.000000
     -0.000354       0.001356       0.000000
     -0.000440       0.001438       0.000000
     -0.000429       0.001203       0.000000
     -0.000354       0.001356       0.000000
     -0.000392       0.001557       0.000000
     -0.000479       0.001685       0.000000
     -0.000440       0.001438       0.000000
     -0.000429       0.001203       0.000000
     -0.000440       0.001438       0.000000
     -0.000554       0.001515       0.000000
     -0.000555       0.001234       0.000000
     -0.000440       0.001438       0.000000
     -0.000479       0.001685       0.000000
     -0.000588       0.001838       0.000000
     -0.000554       0.001515       0.000000
     -0.000556       0.000839       0.000000
     -0.000559       0.001013       0.000000
     -0.000725       0.001022       0.000000
     -0.000702       0.000848       0.000000
     -0.000559       0.001013       0.000000
     -0.000555       0.001234       0.000000
     -0.000737       0.001247       0.000000
     -0.000725       0.001022       0.000000
     -0.000702       0.000848       0.000000
     -0.000725       0.001022       0.000000
     -0.000918       0.001039       0.000000
     -0.000859       0.000865       0.000000
     -0.000725       0.001022       0.000000
     -0.000737       0.001247       0.000000
     -0.000985       0.001262       0.000000
     -0.000918       0.001039       0.000000
     -0.000555       0.001234       0.000000
     -0.000553       0.001366       0.000000
     -0.000633       0.001382       0.000000
     -0.000637       0.001242       0.000000
     -0.000553       0.001366       0.000000
     -0.000554       0.001515       0.000000
     -0.000629       0.001546       0.000000
     -0.000633       0.001382       0.000000
     -0.000637       0.001242       0.000000
     -0.000633       0.001382       0.000000
     -0.000736       0.001390       0.000000
     -0.000737       0.001247       0.000000
     -0.000633       0.001382       0.000000
     -0.000629       0.001546       0.000000
     -0.000728       0.001567       0.000000
     -0.000736       0.001390       0.000000
     -0.000554       0.001515       0.000000
     -0.000564       0.001676       0.000000
     -0.000633       0.001735       0.000000
     -0.000629       0.001546       0.000000
     -0.000564       0.001676       0.000000
     -0.000588       0.001838       0.000000
     -0.000657       0.001931       0.000000
     -0.000633       0.001735       0.000000
     -0.000629       0.001546       0.000000
     -0.000633       0.001735       0.000000
     -0.000722       0.001792       0.000000
     -0.000728       0.001567       0.000000
     -0.000633       0.001735       0.000000
     -0.000657       0.001931       0.000000
     -0.000743       0.002047       0.000000
     -0.000722       0.001792       0.000000
     -0.000737       0.001247       0.000000
     -0.000736       0.001390       0.000000
     -0.000868       0.001394       0.000000
     -0.000856       0.001251       0.000000
     -0.000736       0.001390       0.000000
     -0.000728       0.001567       0.000000
     -0.000872       0.001575       0.000000
     -0.000868       0.001394       0.000000
     -0.000856       0.001251       0.000000
     -0.000868       0.001394       0.000000
     -0.001023       0.001405       0.000000
     -0.000985       0.001262       0.000000
     -0.000868       0.001394       0.000000
     -0.000872       0.001575       0.000000
     -0.001068       0.001586       0.000000
     -0.001023       0.001405       0.000000
     -0.000728       0.001567       0.000000
     -0.000722       0.001792       0.000000
     -0.000856       0.001832       0.000000
     -0.000872       0.001575       0.000000
     -0.000722       0.001792       0.000000
     -0.000743       0.002047       0.000000
     -0.000865       0.002215       0.000000
     -0.000856       0.001832       0.000000
     -0.000872       0.001575       0.000000
     -0.000856       0.001832       0.000000
     -0.001127       0.001852       0.000000
     -0.001068       0.001586       0.000000
     -0.000856       0.001832       0.000000
     -0.000865       0.002215       0.000000
     -0.001191       0.002659       0.000000
     -0.001127       0.001852       0.000000
      0.000000       0.000000       0.000000
      0.000000       0.000000       0.000000
      0.000016       0.000289       0.000000
      0.000076       0.000232       0.000000
      0.000000       0.000000       0.000000
      0.000000       0.000000       0.000000
     -0.000061       0.000332       0.000000
      0.000016       0.000289       0.000000
      0.000076       0.000232       0.000000
      0.000016       0.000289       0.000000
     -0.000045       0.000630       0.000000
      0.000063       0.000498       0.000000
      0.000016       0.000289       0.000000
     -0.000061       0.000332       0.000000
     -0.000186       0.000727       0.000000
     -0.000045       0.000630       0.000000
      0.000000       0.000000       0.000000
      0.000000       0.000000       0.000000
     -0.000148       0.000366       0.000000
     -0.000061       0.000332       0.000000
      0.000000       0.000000       0.000000
      0.000000       0.000000       0.000000
     -0.000249       0.000403       0.000000
     -0.000148       0.000366       0.000000
     -0.000061       0.000332       0.000000
     -0.000148       0.000366       0.000000
     -0.000344       0.000797       0.000000
     -0.000186       0.000727       0.000000
     -0.000148       0.000366       0.000000
     -0.000249       0.000403       0.000000
     -0.000516       0.000870       0.000000
     -0.000344       0.000797       0.000000
      0.000000       0.000000       0.000000
      0.000000       0.000000       0.000000
     -0.000387       0.000483       0.000000
     -0.000249       0.000403       0.000000
      0.000000       0.000000       0.000000
      0.000000       0.000000       0.000000
     -0.000598       0.000728       0.000000
     -0.000387       0.000483       0.000000
     -0.000249       0.000403       0.000000
     -0.000387       0.000483       0.000000
     -0.000710       0.000993       0.000000
     -0.000516       0.000870       0.000000
     -0.000387       0.000483       0.000000
     -0.000598       0.000728       0.000000
     -0.000912       0.001212       0.000000
     -0.000710       0.000993       0.000000
      0.000063       0.000498       0.000000
     -0.000045       0.000630       0.000000
     -0.000170       0.001029       0.000000
     -0.000017       0.000799       0.000000
     -0.000045       0.000630       0.000000
     -0.000186       0.000727       0.000000
     -0.000363       0.001180       0.000000
     -0.000170       0.001029       0.000000
     -0.000017       0.000799       0.000000
     -0.000170       0.001029       0.000000
     -0.000360       0.001499       0.000000
     -0.000159       0.001141       0.000000
     -0.000170       0.001029       0.000000
     -0.000363       0.001180       0.000000
     -0.000584       0.001682       0.000000
     -0.000360       0.001499       0.000000
     -0.000186       0.000727       0.000000
     -0.000344       0.000797       0.000000
     -0.000563       0.001273       0.000000
     -0.000363       0.001180       0.000000
     -0.000344       0.000797       0.000000
     -0.000516       0.000870       0.000000
     -0.000763       0.001355       0.000000
     -0.000563       0.001273       0.000000
     -0.000363       0.001180       0.000000
     -0.000563       0.001273       0.000000
     -0.000785       0.001765       0.000000
     -0.000584       0.001682       0.000000
     -0.000563       0.001273       0.000000
     -0.000763       0.001355       0.000000
     -0.000975       0.001830       0.000000
     -0.000785       0.001765       0.000000
     -0.000516       0.000870       0.000000
     -0.000710       0.000993       0.000000
     -0.000962       0.001470       0.000000
     -0.000763       0.001355       0.000000
     -0.000710       0.000993       0.000000
     -0.000912       0.001212       0.000000
     -0.001150       0.001647       0.000000
     -0.000962       0.001470       0.000000
     -0.000763       0.001355       0.000000
     -0.000962       0.001470       0.000000
     -0.001161       0.001916       0.000000
     -0.000975       0.001830       0.000000
     -0.000962       0.001470       0.000000
     -0.001150       0.001647       0.000000
     -0.001336       0.002047       0.000000
     -0.001161       0.001916       0.000000
     -0.000584       0.001682       0.000000
     -0.000785       0.001765       0.000000
     -0.000972       0.002241       0.000000
     -0.000823       0.002197       0.000000
     -0.000785       0.001765       0.000000
     -0.000975       0.001830       0.000000
     -0.001131       0.002281       0.000000
     -0.000972       0.002241       0.000000
     -0.000823       0.002197       0.000000
     -0.000972       0.002241       0.000000
     -0.001058       0.002683       0.000000
     -0.000955       0.002665       0.000000
     -0.000972       0.002241       0.000000
     -0.001131       0.002281       0.000000
     -0.001198       0.002711       0.000000
     -0.001058       0.002683       0.000000
     -0.000975       0.001830       0.000000
     -0.001161       0.001916       0.000000
     -0.001300       0.002336       0.000000
     -0.001131       0.002281       0.000000
     -0.001161       0.001916       0.000000
     -0.001336       0.002047       0.000000
     -0.001463       0.002415       0.000000
     -0.001300       0.002336       0.000000
     -0.001131       0.002281       0.000000
     -0.001300       0.002336       0.000000
     -0.001359       0.002742       0.000000
     -0.001198       0.002711       0.000000
     -0.001300       0.002336       0.000000
     -0.001463       0.002415       0.000000
     -0.001520       0.002768       0.000000
     -0.001359       0.002742       0.000000
     -0.000159       0.001141       0.000000
     -0.000250       0.001342       0.000000
     -0.000365       0.001591       0.000000
     -0.000259       0.001336       0.000000
     -0.000250       0.001342       0.000000
     -0.000360       0.001499       0.000000
     -0.000488       0.001771       0.000000
     -0.000365       0.001591       0.000000
     -0.000259       0.001336       0.000000
     -0.000365       0.001591       0.000000
     -0.000519       0.001887       0.000000
     -0.000392       0.001557       0.000000
     -0.000365       0.001591       0.000000
     -0.000488       0.001771       0.000000
     -0.000646       0.002070       0.000000
     -0.000519       0.001887       0.000000
     -0.000360       0.001499       0.000000
     -0.000474       0.001609       0.000000
     -0.000604       0.001880       0.000000
     -0.000488       0.001771       0.000000
     -0.000474       0.001609       0.000000
     -0.000584       0.001682       0.000000
     -0.000706       0.001942       0.000000
     -0.000604       0.001880       0.000000
     -0.000488       0.001771       0.000000
     -0.000604       0.001880       0.000000
     -0.000744       0.002155       0.000000