# vtk DataFile Version 2.0
time_10.vtk
ASCII
DATASET UNSTRUCTURED_GRID
POINTS  3780 float
      0.000000       0.000000       0.000000
      0.162500       0.000000       0.000000
      0.163542       0.125000       0.000000
     -0.000000       0.125000       0.000000
      0.162500       0.000000       0.000000
      0.325000       0.000000       0.000000
      0.327083       0.125000       0.000000
      0.163542       0.125000       0.000000
     -0.000000       0.125000       0.000000
      0.163542       0.125000       0.000000
      0.164583       0.250000       0.000000
      0.000000       0.250000       0.000000
      0.163542       0.125000       0.000000
      0.327083       0.125000       0.000000
      0.329167       0.250000       0.000000
      0.164583       0.250000       0.000000
      0.325000       0.000000       0.000000
      0.487500       0.000000       0.000000
      0.490625       0.125000       0.000000
      0.327083       0.125000       0.000000
      0.487500       0.000000       0.000000
      0.650000       0.000000       0.000000
      0.654167       0.125000       0.000000
      0.490625       0.125000       0.000000
      0.327083       0.125000       0.000000
      0.490625       0.125000       0.000000
      0.493750       0.250000       0.000000
      0.329167       0.250000       0.000000
      0.490625       0.125000       0.000000
      0.654167       0.125000       0.000000
      0.658333       0.250000       0.000000
      0.493750       0.250000       0.000000
      0.650000       0.000000       0.000000
      0.812500       0.000000       0.000000
      0.817708       0.125000       0.000000
      0.654167       0.125000       0.000000
      0.812500       0.000000       0.000000
      0.975000       0.000000       0.000000
      0.981250       0.125000       0.000000
      0.817708       0.125000       0.000000
      0.654167       0.125000       0.000000
      0.817708       0.125000       0.000000
      0.822917       0.250000       0.000000
      0.658333       0.250000       0.000000
      0.817708       0.125000       0.000000
      0.981250       0.125000       0.000000
      0.987500       0.250000       0.000000
      0.822917       0.250000       0.000000
      0.975000       0.000000       0.000000
      1.137500      -0.000000       0.000000
      1.144792       0.125000       0.000000
      0.981250       0.125000       0.000000
      1.137500      -0.000000       0.000000
      1.300000       0.000000       0.000000
      1.308333       0.125000       0.000000
      1.144792       0.125000       0.000000
      0.981250       0.125000       0.000000
      1.144792       0.125000       0.000000
      1.152083       0.250000       0.000000
      0.987500       0.250000       0.000000
      1.144792       0.125000       0.000000
      1.308333       0.125000       0.000000
      1.316667       0.250000       0.000000
      1.152083       0.250000       0.000000
      1.300000       0.000000       0.000000
      1.462500       0.000000       0.000000
      1.471875       0.125000       0.000000
      1.308333       0.125000       0.000000
      1.462500       0.000000       0.000000
      1.625000       0.000000       0.000000
      1.635417       0.125000       0.000000
      1.471875       0.125000       0.000000
      1.308333       0.125000       0.000000
      1.471875       0.125000       0.000000
      1.481250       0.250000       0.000000
      1.316667       0.250000       0.000000
      1.471875       0.125000       0.000000
      1.635417       0.125000       0.000000
      1.645833       0.250000       0.000000
      1.481250       0.250000       0.000000
      1.625000       0.000000       0.000000
      1.787500      -0.000000       0.000000
      1.798958       0.125000       0.000000
      1.635417       0.125000       0.000000
      1.787500      -0.000000       0.000000
      1.950000       0.000000       0.000000
      1.962500       0.125000       0.000000
      1.798958       0.125000       0.000000
      1.635417       0.125000       0.000000
      1.798958       0.125000       0.000000
      1.810417       0.250000       0.000000
      1.645833       0.250000       0.000000
      1.798958       0.125000       0.000000
      1.962500       0.125000       0.000000
      1.975000       0.250000       0.000000
      1.810417       0.250000       0.000000
      1.950000       0.000000       0.000000
      2.112500      -0.000000       0.000000
      2.126042       0.125000       0.000000
      1.962500       0.125000       0.000000
      2.112500      -0.000000       0.000000
      2.275000       0.000000       0.000000
      2.289583       0.125000       0.000000
      2.126042       0.125000       0.000000
      1.962500       0.125000       0.000000
      2.126042       0.125000       0.000000
      2.139583       0.250000       0.000000
      1.975000       0.250000       0.000000
      2.126042       0.125000       0.000000
      2.289583       0.125000       0.000000
      2.304167       0.250000       0.000000
      2.139583       0.250000       0.000000
      2.275000       0.000000       0.000000
      2.437500       0.000000       0.000000
      2.453125       0.125000       0.000000
      2.289583       0.125000       0.000000
      2.437500       0.000000       0.000000
      2.600000       0.000000       0.000000
      2.616667       0.125000       0.000000
      2.453125       0.125000       0.000000
      2.289583       0.125000       0.000000
      2.453125       0.125000       0.000000
      2.468750       0.250000       0.000000
      2.304167       0.250000       0.000000
      2.453125       0.125000       0.000000
      2.616667       0.125000       0.000000
      2.633333       0.250000       0.000000
      2.468750       0.250000       0.000000
      2.600000       0.000000       0.000000
      2.762500       0.000000       0.000000
      2.780208       0.125000       0.000000
      2.616667       0.125000       0.000000
      2.762500       0.000000       0.000000
      2.925000       0.000000       0.000000
      2.943750       0.125000       0.000000
      2.780208       0.125000       0.000000
      2.616667       0.125000       0.000000
      2.780208       0.125000       0.000000
      2.797917       0.250000       0.000000
      2.633333       0.250000       0.000000
      2.780208       0.125000       0.000000
      2.943750       0.125000       0.000000
      2.962500       0.250000       0.000000
      2.797917       0.250000       0.000000
      2.925000       0.000000       0.000000
      3.087500       0.000000       0.000000
      3.107292       0.125000       0.000000
      2.943750       0.125000       0.000000
      3.087500       0.000000       0.000000
      3.250000       0.000000       0.000000
      3.270833       0.125000       0.000000
      3.107292       0.125000       0.000000
      2.943750       0.125000       0.000000
      3.107292       0.125000       0.000000
      3.127083       0.250000       0.000000
      2.962500       0.250000       0.000000
      3.107292       0.125000       0.000000
      3.270833       0.125000       0.000000
      3.291667       0.250000       0.000000
      3.127083       0.250000       0.000000
      3.250000       0.000000       0.000000
      3.412500       0.000000       0.000000
      3.434375       0.125000       0.000000
      3.270833       0.125000       0.000000
      3.412500       0.000000       0.000000
      3.575000       0.000000       0.000000
      3.597917       0.125000       0.000000
      3.434375       0.125000       0.000000
      3.270833       0.125000       0.000000
      3.434375       0.125000       0.000000
      3.456250       0.250000       0.000000
      3.291667       0.250000       0.000000
      3.434375       0.125000       0.000000
      3.597917       0.125000       0.000000
      3.620833       0.250000       0.000000
      3.456250       0.250000       0.000000
      3.575000       0.000000       0.000000
      3.737500      -0.000000       0.000000
      3.761458       0.125000       0.000000
      3.597917       0.125000       0.000000
      3.737500      -0.000000       0.000000
      3.900000       0.000000       0.000000
      3.925000       0.125000       0.000000
      3.761458       0.125000       0.000000
      3.597917       0.125000       0.000000
      3.761458       0.125000       0.000000
      3.785417       0.250000       0.000000
      3.620833       0.250000       0.000000
      3.761458       0.125000       0.000000
      3.925000       0.125000       0.000000
      3.950000       0.250000       0.000000
      3.785417       0.250000       0.000000
      0.000000       0.250000       0.000000
      0.164583       0.250000       0.000000
      0.165625       0.375000       0.000000
     -0.000000       0.375000       0.000000
      0.164583       0.250000       0.000000
      0.329167       0.250000       0.000000
      0.331250       0.375000       0.000000
      0.165625       0.375000       0.000000
     -0.000000       0.375000       0.000000
      0.165625       0.375000       0.000000
      0.166667       0.500000       0.000000
      0.000000       0.500000       0.000000
      0.165625       0.375000       0.000000
      0.331250       0.375000       0.000000
      0.333333       0.500000       0.000000
      0.166667       0.500000       0.000000
      0.329167       0.250000       0.000000
      0.493750       0.250000       0.000000
      0.496875       0.375000       0.000000
      0.331250       0.375000       0.000000
      0.493750       0.250000       0.000000
      0.658333       0.250000       0.000000
      0.662500       0.375000       0.000000
      0.496875       0.375000       0.000000
      0.331250       0.375000       0.000000
      0.496875       0.375000       0.000000
      0.500000       0.500000       0.000000
      0.333333       0.500000       0.000000
[...]
POINT_DATA  3780
VECTORS U float 
      0.000000       0.000000       0.000000
      0.000077      -0.001540       0.000000
      0.001163      -0.001557       0.000000
      0.001156      -0.000125       0.000000
      0.000077      -0.001540       0.000000
      0.000099      -0.002933       0.000000
      0.001165      -0.002955       0.000000
      0.001163      -0.001557       0.000000
      0.001156      -0.000125       0.000000
      0.001163      -0.001557       0.000000
      0.002228      -0.001568       0.000000
      0.002221      -0.000160       0.000000
      0.001163      -0.001557       0.000000
      0.001165      -0.002955       0.000000
      0.002227      -0.002973       0.000000
      0.002228      -0.001568       0.000000
      0.000099      -0.002933       0.000000
      0.000113      -0.004310       0.000000
      0.001170      -0.004340       0.000000
      0.001165      -0.002955       0.000000
      0.000113      -0.004310       0.000000
      0.000123      -0.005681       0.000000
      0.001177      -0.005719       0.000000
      0.001170      -0.004340       0.000000
      0.001165      -0.002955       0.000000
      0.001170      -0.004340       0.000000
      0.002228      -0.004367       0.000000
      0.002227      -0.002973       0.000000
      0.001170      -0.004340       0.000000
      0.001177      -0.005719       0.000000
      0.002231      -0.005755       0.000000
      0.002228      -0.004367       0.000000
      0.000123      -0.005681       0.000000
      0.000131      -0.007049       0.000000
      0.001183      -0.007095       0.000000
      0.001177      -0.005719       0.000000
      0.000131      -0.007049       0.000000
      0.000139      -0.008415       0.000000
      0.001189      -0.008470       0.000000
      0.001183      -0.007095       0.000000
      0.001177      -0.005719       0.000000
      0.001183      -0.007095       0.000000
      0.002234      -0.007141       0.000000
      0.002231      -0.005755       0.000000
      0.001183      -0.007095       0.000000
      0.001189      -0.008470       0.000000
      0.002239      -0.008524       0.000000
      0.002234      -0.007141       0.000000
      0.000139      -0.008415       0.000000
      0.000147      -0.009779       0.000000
      0.001196      -0.009843       0.000000
      0.001189      -0.008470       0.000000
      0.000147      -0.009779       0.000000
      0.000156      -0.011142       0.000000
      0.001203      -0.011215       0.000000
      0.001196      -0.009843       0.000000
      0.001189      -0.008470       0.000000
      0.001196      -0.009843       0.000000
      0.002244      -0.009906       0.000000
      0.002239      -0.008524       0.000000
      0.001196      -0.009843       0.000000
      0.001203      -0.011215       0.000000
      0.002250      -0.011287       0.000000
      0.002244      -0.009906       0.000000
      0.000156      -0.011142       0.000000
      0.000164      -0.012504       0.000000
      0.001211      -0.012585       0.000000
      0.001203      -0.011215       0.000000
      0.000164      -0.012504       0.000000
      0.000174      -0.013864       0.000000
      0.001220      -0.013954       0.000000
      0.001211      -0.012585       0.000000
      0.001203      -0.011215       0.000000
      0.001211      -0.012585       0.000000
      0.002257      -0.012666       0.000000
      0.002250      -0.011287       0.000000
      0.001211      -0.012585       0.000000
      0.001220      -0.013954       0.000000
      0.002264      -0.014044       0.000000
      0.002257      -0.012666       0.000000
      0.000174      -0.013864       0.000000
      0.000184      -0.015223       0.000000
      0.001229      -0.015322       0.000000
      0.001220      -0.013954       0.000000
      0.000184      -0.015223       0.000000
      0.000196      -0.016579       0.000000
      0.001239      -0.016687       0.000000
      0.001229      -0.015322       0.000000
      0.001220      -0.013954       0.000000
      0.001229      -0.015322       0.000000
      0.002272      -0.015420       0.000000
      0.002264      -0.014044       0.000000
      0.001229      -0.015322       0.000000
      0.001239      -0.016687       0.000000
      0.002280      -0.016795       0.000000
      0.002272      -0.015420       0.000000
      0.000196      -0.016579       0.000000
      0.000208      -0.017934       0.000000
      0.001249      -0.018051       0.000000
      0.001239      -0.016687       0.000000
      0.000208      -0.017934       0.000000
      0.000221      -0.019287       0.000000
      0.001261      -0.019412       0.000000
      0.001249      -0.018051       0.000000
      0.001239      -0.016687       0.000000
      0.001249      -0.018051       0.000000
      0.002290      -0.018167       0.000000
      0.002280      -0.016795       0.000000
      0.001249      -0.018051       0.000000
      0.001261      -0.019412       0.000000
      0.002299      -0.019537       0.000000
      0.002290      -0.018167       0.000000
      0.000221      -0.019287       0.000000
      0.000235      -0.020637       0.000000
      0.001273      -0.020771       0.000000
      0.001261      -0.019412       0.000000
      0.000235      -0.020637       0.000000
      0.000249      -0.021984       0.000000
      0.001286      -0.022127       0.000000
      0.001273      -0.020771       0.000000
      0.001261      -0.019412       0.000000
      0.001273      -0.020771       0.000000
      0.002310      -0.020904       0.000000
      0.002299      -0.019537       0.000000
      0.001273      -0.020771       0.000000
      0.001286      -0.022127       0.000000
      0.002321      -0.022269       0.000000
      0.002310      -0.020904       0.000000
      0.000249      -0.021984       0.000000
      0.000265      -0.023328       0.000000
      0.001299      -0.023479       0.000000
      0.001286      -0.022127       0.000000
      0.000265      -0.023328       0.000000
      0.000280      -0.024669       0.000000
      0.001312      -0.024828       0.000000
      0.001299      -0.023479       0.000000
      0.001286      -0.022127       0.000000
      0.001299      -0.023479       0.000000
      0.002332      -0.023630       0.000000
      0.002321      -0.022269       0.000000
      0.001299      -0.023479       0.000000
      0.001312      -0.024828       0.000000
      0.002344      -0.024987       0.000000
      0.002332      -0.023630       0.000000
      0.000280      -0.024669       0.000000
      0.000295      -0.026007       0.000000
      0.001325      -0.026174       0.000000
      0.001312      -0.024828       0.000000
      0.000295      -0.026007       0.000000
      0.000309      -0.027341       0.000000
      0.001337      -0.027516       0.000000
      0.001325      -0.026174       0.000000
      0.001312      -0.024828       0.000000
      0.001325      -0.026174       0.000000
      0.002356      -0.026341       0.000000
      0.002344      -0.024987       0.000000
      0.001325      -0.026174       0.000000
      0.001337      -0.027516       0.000000
      0.002368      -0.027691       0.000000
      0.002356      -0.026341       0.000000
      0.000309      -0.027341       0.000000
      0.000319      -0.028673       0.000000
      0.001347      -0.028856       0.000000
      0.001337      -0.027516       0.000000
      0.000319      -0.028673       0.000000
      0.000326      -0.030005       0.000000
      0.001355      -0.030194       0.000000
      0.001347      -0.028856       0.000000
      0.001337      -0.027516       0.000000
      0.001347      -0.028856       0.000000
      0.002379      -0.029038       0.000000
      0.002368      -0.027691       0.000000
      0.001347      -0.028856       0.000000
      0.001355      -0.030194       0.000000
      0.002389      -0.030384       0.000000
      0.002379      -0.029038       0.000000
      0.000326      -0.030005       0.000000
      0.000328      -0.031339       0.000000
      0.001359      -0.031537       0.000000
      0.001355      -0.030194       0.000000
      0.000328      -0.031339       0.000000
      0.000328      -0.032679       0.000000
      0.001360      -0.032886       0.000000
      0.001359      -0.031537       0.000000
      0.001355      -0.030194       0.000000
      0.001359      -0.031537       0.000000
      0.002395      -0.031733       0.000000
      0.002389      -0.030384       0.000000
      0.001359      -0.031537       0.000000
      0.001360      -0.032886       0.000000
      0.002396      -0.033093       0.000000
      0.002395      -0.031733       0.000000
      0.002221      -0.000160       0.000000
      0.002228      -0.001568       0.000000
      0.003283      -0.001584       0.000000
      0.003276      -0.000180       0.000000
      0.002228      -0.001568       0.000000
      0.002227      -0.002973       0.000000
      0.003283      -0.002991       0.000000
      0.003283      -0.001584       0.000000
      0.003276      -0.000180       0.000000
      0.003283      -0.001584       0.000000
      0.004333      -0.001600       0.000000
      0.004327      -0.000195       0.000000
      0.003283      -0.001584       0.000000
      0.003283      -0.002991       0.000000
      0.004334      -0.003011       0.000000
      0.004333      -0.001600       0.000000
      0.002227      -0.002973       0.000000
      0.002228      -0.004367       0.000000
      0.003282      -0.004393       0.000000
      0.003283      -0.002991       0.000000
      0.002228      -0.004367       0.000000
      0.002231      -0.005755       0.000000
      0.003283      -0.005791       0.000000
      0.003282      -0.004393       0.000000
      0.003283      -0.002991       0.000000
      0.003282      -0.004393       0.000000
      0.004334      -0.004420       0.000000
      0.004334      -0.003011       0.000000
      0.003282      -0.004393       0.000000
      0.003283      -0.005791       0.000000
      0.004333      -0.005826       0.000000
      0.004334      -0.004420       0.000000
      0.002231      -0.005755       0.000000
      0.002234      -0.007141       0.000000
      0.003285      -0.007185       0.000000
      0.003283      -0.005791       0.000000
      0.002234      -0.007141       0.000000
      0.002239      -0.008524       0.000000
      0.003288      -0.008578       0.000000
      0.003285      -0.007185       0.000000
      0.003283      -0.005791       0.000000
      0.003285      -0.007185       0.000000
      0.004334      -0.007230       0.000000
      0.004333      -0.005826       0.000000
      0.003285      -0.007185       0.000000
      0.003288      -0.008578       0.000000
      0.004336      -0.008631       0.000000
      0.004334      -0.007230       0.000000
      0.002239      -0.008524       0.000000
      0.002244      -0.009906       0.000000
      0.003292      -0.009969       0.000000
      0.003288      -0.008578       0.000000
      0.002244      -0.009906       0.000000
      0.002250      -0.011287       0.000000
      0.003296      -0.011359       0.000000
      0.003292      -0.009969       0.000000
      0.003288      -0.008578       0.000000
      0.003292      -0.009969       0.000000
      0.004338      -0.010031       0.000000
      0.004336      -0.008631       0.000000
      0.003292      -0.009969       0.000000
      0.003296      -0.011359       0.000000
      0.004342      -0.011430       0.000000
      0.004338      -0.010031       0.000000
      0.002250      -0.011287       0.000000
      0.002257      -0.012666       0.000000
      0.003302      -0.012747       0.000000
      0.003296      -0.011359       0.000000
      0.002257      -0.012666       0.000000
      0.002264      -0.014044       0.000000
      0.003308      -0.014133       0.000000
      0.003302      -0.012747       0.000000
      0.003296      -0.011359       0.000000
      0.003302      -0.012747       0.000000
      0.004345      -0.012827       0.000000
      0.004342      -0.011430       0.000000
      0.003302      -0.012747       0.000000
      0.003308      -0.014133       0.000000
      0.004350      -0.014222       0.000000
      0.004345      -0.012827       0.000000
      0.002264      -0.014044       0.000000
      0.002272      -0.015420       0.000000
      0.003314      -0.015518       0.000000
      0.003308      -0.014133       0.000000
      0.002272      -0.015420       0.000000
      0.002280      -0.016795       0.000000
      0.003321      -0.016902       0.000000
      0.003314      -0.015518       0.000000
      0.003308      -0.014133       0.000000
      0.003314      -0.015518       0.000000
      0.004355      -0.015616       0.000000
      0.004350      -0.014222       0.000000
      0.003314      -0.015518       0.000000
      0.003321      -0.016902       0.000000
      0.004361      -0.017008       0.000000
      0.004355      -0.015616       0.000000
      0.002280      -0.016795       0.000000
      0.002290      -0.018167       0.000000
      0.003329      -0.018283       0.000000
      0.003321      -0.016902       0.000000
      0.002290      -0.018167       0.000000
      0.002299      -0.019537       0.000000
      0.003337      -0.019661       0.000000
      0.003329      -0.018283       0.000000
      0.003321      -0.016902       0.000000
      0.003329      -0.018283       0.000000
      0.004367      -0.018398       0.000000
      0.004361      -0.017008       0.000000
      0.003329      -0.018283       0.000000
      0.003337      -0.019661       0.000000
      0.004373      -0.019785       0.000000
      0.004367      -0.018398       0.000000
      0.002299      -0.019537       0.000000
      0.002310      -0.020904       0.000000
      0.003346      -0.021037       0.000000
      0.003337      -0.019661       0.000000
      0.002310      -0.020904       0.000000
      0.002321      -0.022269       0.000000
      0.003355      -0.022410       0.000000
      0.003346      -0.021037       0.000000
      0.003337      -0.019661       0.000000
      0.003346      -0.021037       0.000000
      0.004381      -0.021170       0.000000
      0.004373      -0.019785       0.000000
      0.003346      -0.021037       0.000000
      0.003355      -0.022410       0.000000
      0.004389      -0.022552       0.000000
      0.004381      -0.021170       0.000000
      0.002321      -0.022269       0.000000
      0.002332      -0.023630       0.000000
      0.003365      -0.023780       0.000000
      0.003355      -0.022410       0.000000
      0.002332      -0.023630       0.000000
      0.002344      -0.024987       0.000000
      0.003376      -0.025146       0.000000
      0.003365      -0.023780       0.000000
      0.003355      -0.022410       0.000000
      0.003365      -0.023780       0.000000
      0.004398      -0.023930       0.000000
      0.004389      -0.022552       0.000000
      0.003365      -0.023780       0.000000
      0.003376      -0.025146       0.000000
      0.004408      -0.025305       0.000000
      0.004398      -0.023930       0.000000
      0.002344      -0.024987       0.000000
      0.002356      -0.026341       0.000000
      0.003388      -0.026508       0.000000
      0.003376      -0.025146       0.000000
      0.002356      -0.026341       0.000000
      0.002368      -0.027691       0.000000
      0.003400      -0.027867       0.000000
      0.003388      -0.026508       0.000000
      0.003376      -0.025146       0.000000
      0.003388      -0.026508       0.000000
      0.004419      -0.026676       0.000000
      0.004408      -0.025305       0.000000
      0.003388      -0.026508       0.000000
      0.003400      -0.027867       0.000000
      0.004432      -0.028044       0.000000
      0.004419      -0.026676       0.000000
      0.002368      -0.027691       0.000000
      0.002379      -0.029038       0.000000
      0.003413      -0.029222       0.000000
      0.003400      -0.027867       0.000000
      0.002379      -0.029038       0.000000
      0.002389      -0.030384       0.000000
      0.003426      -0.030575       0.000000
      0.003413      -0.029222       0.000000
      0.003400      -0.027867       0.000000
      0.003413      -0.029222       0.000000
      0.004446      -0.029407       0.000000
      0.004432      -0.028044       0.000000
      0.003413      -0.029222       0.000000
      0.003426      -0.030575       0.000000
      0.004463      -0.030768       0.000000
      0.004446      -0.029407       0.000000
      0.002389      -0.030384       0.000000
      0.002392      -0.031058       0.000000
      0.002912      -0.031155       0.000000
      0.002907      -0.030480       0.000000
      0.002392      -0.031058       0.000000
      0.002395      -0.031733       0.000000
      0.002915      -0.031831       0.000000
      0.002912      -0.031155       0.000000
      0.002907      -0.030480       0.000000
      0.002912      -0.031155       0.000000
      0.003432      -0.031252       0.000000
      0.003426      -0.030575       0.000000
      0.002912      -0.031155       0.000000
      0.002915      -0.031831       0.000000
      0.003437      -0.031929       0.000000
      0.003432      -0.031252       0.000000
      0.002395      -0.031733       0.000000
      0.002396      -0.032411       0.000000
      0.002916      -0.032511       0.000000
      0.002915      -0.031831       0.000000
      0.002396      -0.032411       0.000000
      0.002396      -0.033093       0.000000
      0.002916      -0.033196       0.000000
      0.002916      -0.032511       0.000000
      0.002915      -0.031831       0.000000
      0.002916      -0.032511       0.000000
      0.003440      -0.032610       0.000000
      0.003437      -0.031929       0.000000
      0.002916      -0.032511       0.000000
      0.002916      -0.033196       0.000000
      0.003439      -0.033298       0.000000
      0.003440      -0.032610       0.000000
      0.003426      -0.030575       0.000000
      0.003432      -0.031252       0.000000
      0.003953      -0.031349       0.000000
      0.003945      -0.030671       0.000000
      0.003432      -0.031252       0.000000
      0.003437      -0.031929       0.000000
      0.003960      -0.032028       0.000000
      0.003953      -0.031349       0.000000
      0.003945      -0.030671       0.000000
      0.003953      -0.031349       0.000000
      0.004473      -0.031448       0.000000
      0.004463      -0.030768       0.000000
      0.003953      -0.031349       0.000000
      0.003960      -0.032028       0.000000
      0.004483      -0.032128       0.000000
      0.004473      -0.031448       0.000000
      0.003437      -0.031929       0.000000
      0.003439      -0.032269       0.000000
      0.003701      -0.032318       0.000000
      0.003698      -0.031979       0.000000
      0.003439      -0.032269       0.000000
      0.003440      -0.032610       0.000000
      0.003703      -0.032659       0.000000
      0.003701      -0.032318       0.000000
      0.003698      -0.031979       0.000000
      0.003701      -0.032318       0.000000
      0.003964      -0.032368       0.000000
      0.003960      -0.032028       0.000000
      0.003701      -0.032318       0.000000
      0.003703      -0.032659       0.000000
      0.003966      -0.032709       0.000000
      0.003964      -0.032368       0.000000
      0.003440      -0.032610       0.000000
      0.003440      -0.032953       0.000000
      0.003703      -0.033002       0.000000
      0.003703      -0.032659       0.000000
      0.003440      -0.032953       0.000000
      0.003439      -0.033298       0.000000
      0.003702      -0.033349       0.000000
      0.003703      -0.033002       0.000000
      0.003703      -0.032659       0.000000
      0.003703      -0.033002       0.000000
      0.003968      -0.033052       0.000000