# vtk DataFile Version 2.0
time_10.vtk
ASCII
DATASET UNSTRUCTURED_GRID
POINTS  3648 float
      0.000000       0.000000       0.000000
      0.162500       0.000000       0.000000
      0.163542       0.125000       0.000000
     -0.000000       0.125000       0.000000
      0.162500       0.000000       0.000000
      0.325000       0.000000       0.000000
      0.327083       0.125000       0.000000
      0.163542       0.125000       0.000000
     -0.000000       0.125000       0.000000
      0.163542       0.125000       0.000000
      0.164583       0.250000       0.000000
      0.000000       0.250000       0.000000
      0.163542       0.125000       0.000000
      0.327083       0.125000       0.000000
      0.329167       0.250000       0.000000
      0.164583       0.250000       0.000000
      0.325000       0.000000       0.000000
      0.487500       0.000000       0.000000
      0.490625       0.125000       0.000000
      0.327083       0.125000       0.000000
      0.487500       0.000000       0.000000
      0.650000       0.000000       0.000000
      0.654167       0.125000       0.000000
      0.490625       0.125000       0.000000
      0.327083       0.125000       0.000000
      0.490625       0.125000       0.000000
      0.493750       0.250000       0.000000
      0.329167       0.250000       0.000000
      0.490625       0.125000       0.000000
      0.654167       0.125000       0.000000
      0.658333       0.250000       0.000000
      0.493750       0.250000       0.000000
      0.650000       0.000000       0.000000
      0.812500       0.000000       0.000000
      0.817708       0.125000       0.000000
      0.654167       0.125000       0.000000
      0.812500       0.000000       0.000000
      0.975000       0.000000       0.000000
      0.981250       0.125000       0.000000
      0.817708       0.125000       0.000000
      0.654167       0.125000       0.000000
      0.817708       0.125000       0.000000
      0.822917       0.250000       0.000000
      0.658333       0.250000       0.000000
      0.817708       0.125000       0.000000
      0.981250       0.125000       0.000000
      0.987500       0.250000       0.000000
      0.822917       0.250000       0.000000
      0.975000       0.000000       0.000000
      1.137500      -0.000000       0.000000
      1.144792       0.125000       0.000000
      0.981250       0.125000       0.000000
      1.137500      -0.000000       0.000000
      1.300000       0.000000       0.000000
      1.308333       0.125000       0.000000
      1.144792       0.125000       0.000000
      0.981250       0.125000       0.000000
      1.144792       0.125000       0.000000
      1.152083       0.250000       0.000000
      0.987500       0.250000       0.000000
      1.144792       0.125000       0.000000
      1.308333       0.125000       0.000000
      1.316667       0.250000       0.000000
      1.152083       0.250000       0.000000
      1.300000       0.000000       0.000000
      1.462500       0.000000       0.000000
      1.471875       0.125000       0.000000
      1.308333       0.125000       0.000000
      1.462500       0.000000       0.000000
      1.625000       0.000000       0.000000
      1.635417       0.125000       0.000000
      1.471875       0.125000       0.000000
      1.308333       0.125000       0.000000
      1.471875       0.125000       0.000000
      1.481250       0.250000       0.000000
      1.316667       0.250000       0.000000
      1.471875       0.125000       0.000000
      1.635417       0.125000       0.000000
      1.645833       0.250000       0.000000
      1.481250       0.250000       0.000000
      1.625000       0.000000       0.000000
      1.787500      -0.000000       0.000000
      1.798958       0.125000       0.000000
      1.635417       0.125000       0.000000
      1.787500      -0.000000       0.000000
      1.950000       0.000000       0.000000
      1.962500       0.125000       0.000000
      1.798958       0.125000       0.000000
      1.635417       0.125000       0.000000
      1.798958       0.125000       0.000000
      1.810417       0.250000       0.000000
      1.645833       0.250000       0.000000
      1.798958       0.125000       0.000000
      1.962500       0.125000       0.000000
      1.975000       0.250000       0.000000
      1.810417       0.250000       0.000000
      1.950000       0.000000       0.000000
      2.112500      -0.000000       0.000000
      2.126042       0.125000       0.000000
      1.962500       0.125000       0.000000
      2.112500      -0.000000       0.000000
      2.275000       0.000000       0.000000
      2.289583       0.125000       0.000000
      2.126042       0.125000       0.000000
      1.962500       0.125000       0.000000
      2.126042       0.125000       0.000000
      2.139583       0.250000       0.000000
      1.975000       0.250000       0.000000
      2.126042       0.125000       0.000000
      2.289583       0.125000       0.000000
      2.304167       0.250000       0.000000
      2.139583       0.250000       0.000000
      2.275000       0.000000       0.000000
      2.437500       0.000000       0.000000
      2.453125       0.125000       0.000000
      2.289583       0.125000       0.000000
      2.437500       0.000000       0.000000
      2.600000       0.000000       0.000000
      2.616667       0.125000       0.000000
      2.453125       0.125000       0.000000
      2.289583       0.125000       0.000000
      2.453125       0.125000       0.000000
      2.468750       0.250000       0.000000
      2.304167       0.250000       0.000000
      2.453125       0.125000       0.000000
      2.616667       0.125000       0.000000
      2.633333       0.250000       0.000000
      2.468750       0.250000       0.000000
      2.600000       0.000000       0.000000
      2.762500       0.000000       0.000000
      2.780208       0.125000       0.000000
      2.616667       0.125000       0.000000
      2.762500       0.000000       0.000000
      2.925000       0.000000       0.000000
      2.943750       0.125000       0.000000
      2.780208       0.125000       0.000000
      2.616667       0.125000       0.000000
      2.780208       0.125000       0.000000
      2.797917       0.250000       0.000000
      2.633333       0.250000       0.000000
      2.780208       0.125000       0.000000
      2.943750       0.125000       0.000000
      2.962500       0.250000       0.000000
      2.797917       0.250000       0.000000
      2.925000       0.000000       0.000000
      3.087500       0.000000       0.000000
      3.107292       0.125000       0.000000
      2.943750       0.125000       0.000000
      3.087500       0.000000       0.000000
      3.250000       0.000000       0.000000
      3.270833       0.125000       0.000000
      3.107292       0.125000       0.000000
      2.943750       0.125000       0.000000
      3.107292       0.125000       0.000000
      3.127083       0.250000       0.000000
      2.962500       0.250000       0.000000
      3.107292       0.125000       0.000000
      3.270833       0.125000       0.000000
      3.291667       0.250000       0.000000
      3.127083       0.250000       0.000000
      3.250000       0.000000       0.000000
      3.412500       0.000000       0.000000
      3.434375       0.125000       0.000000
      3.270833       0.125000       0.000000
      3.412500       0.000000       0.000000
      3.575000       0.000000       0.000000
      3.597917       0.125000       0.000000
      3.434375       0.125000       0.000000
      3.270833       0.125000       0.000000
      3.434375       0.125000       0.000000
      3.456250       0.250000       0.000000
      3.291667       0.250000       0.000000
      3.434375       0.125000       0.000000
      3.597917       0.125000       0.000000
      3.620833       0.250000       0.000000
      3.456250       0.250000       0.000000
      3.575000       0.000000       0.000000
      3.737500      -0.000000       0.000000
      3.761458       0.125000       0.000000
      3.597917       0.125000       0.000000
      3.737500      -0.000000       0.000000
      3.900000       0.000000       0.000000
      3.925000       0.125000       0.000000
      3.761458       0.125000       0.000000
      3.597917       0.125000       0.000000
      3.761458       0.125000       0.000000
      3.785417       0.250000       0.000000
      3.620833       0.250000       0.000000
      3.761458       0.125000       0.000000
      3.925000       0.125000       0.000000
      3.950000       0.250000       0.000000
      3.785417       0.250000       0.000000
      0.000000       0.250000       0.000000
      0.164583       0.250000       0.000000
      0.165625       0.375000       0.000000
     -0.000000       0.375000       0.000000
      0.164583       0.250000       0.000000
      0.329167       0.250000       0.000000
      0.331250       0.375000       0.000000
      0.165625       0.375000       0.000000
     -0.000000       0.375000       0.000000
      0.165625       0.375000       0.000000
      0.166667       0.500000       0.000000
      0.000000       0.500000       0.000000
      0.165625       0.375000       0.000000
      0.331250       0.375000       0.000000
      0.333333       0.500000       0.000000
      0.166667       0.500000       0.000000
      0.329167       0.250000       0.000000
      0.493750       0.250000       0.000000
      0.496875       0.375000       0.000000
      0.331250       0.375000       0.000000
      0.493750       0.250000       0.000000
      0.658333       0.250000       0.000000
      0.662500       0.375000       0.000000
      0.496875       0.375000       0.000000
      0.331250       0.375000       0.000000
      0.496875       0.375000       0.000000
      0.500000       0.500000       0.000000
      0.333333       0.500000       0.000000
[...]
POINT_DATA  3648
VECTORS U float 
      0.000000       0.000000       0.000000
      0.001766      -0.005232       0.000000
      0.003429      -0.005409       0.000000
      0.003262      -0.003042       0.000000
      0.001766      -0.005232       0.000000
      0.002208      -0.007048       0.000000
      0.003463      -0.007144       0.000000
      0.003429      -0.005409       0.000000
      0.003262      -0.003042       0.000000
      0.003429      -0.005409       0.000000
      0.004685      -0.005476       0.000000
      0.004536      -0.003725       0.000000
      0.003429      -0.005409       0.000000
      0.003463      -0.007144       0.000000
      0.004661      -0.007169       0.000000
      0.004685      -0.005476       0.000000
      0.002208      -0.007048       0.000000
      0.002465      -0.008524       0.000000
      0.003571      -0.008606       0.000000
      0.003463      -0.007144       0.000000
      0.002465      -0.008524       0.000000
      0.002656      -0.009883       0.000000
      0.003691      -0.009965       0.000000
      0.003571      -0.008606       0.000000
      0.003463      -0.007144       0.000000
      0.003571      -0.008606       0.000000
      0.004672      -0.008650       0.000000
      0.004661      -0.007169       0.000000
      0.003571      -0.008606       0.000000
      0.003691      -0.009965       0.000000
      0.004724      -0.010024       0.000000
      0.004672      -0.008650       0.000000
      0.002656      -0.009883       0.000000
      0.002821      -0.011183       0.000000
      0.003812      -0.011269       0.000000
      0.003691      -0.009965       0.000000
      0.002821      -0.011183       0.000000
      0.002975      -0.012444       0.000000
      0.003937      -0.012538       0.000000
      0.003812      -0.011269       0.000000
      0.003691      -0.009965       0.000000
      0.003812      -0.011269       0.000000
      0.004799      -0.011341       0.000000
      0.004724      -0.010024       0.000000
      0.003812      -0.011269       0.000000
      0.003937      -0.012538       0.000000
      0.004889      -0.012620       0.000000
      0.004799      -0.011341       0.000000
      0.002975      -0.012444       0.000000
      0.003129      -0.013675       0.000000
      0.004067      -0.013778       0.000000
      0.003937      -0.012538       0.000000
      0.003129      -0.013675       0.000000
      0.003289      -0.014880       0.000000
      0.004205      -0.014991       0.000000
      0.004067      -0.013778       0.000000
      0.003937      -0.012538       0.000000
      0.004067      -0.013778       0.000000
      0.004991      -0.013870       0.000000
      0.004889      -0.012620       0.000000
      0.004067      -0.013778       0.000000
      0.004205      -0.014991       0.000000
      0.005105      -0.015095       0.000000
      0.004991      -0.013870       0.000000
      0.003289      -0.014880       0.000000
      0.003459      -0.016057       0.000000
      0.004354      -0.016178       0.000000
      0.004205      -0.014991       0.000000
      0.003459      -0.016057       0.000000
      0.003642      -0.017206       0.000000
      0.004515      -0.017337       0.000000
      0.004354      -0.016178       0.000000
      0.004205      -0.014991       0.000000
      0.004354      -0.016178       0.000000
      0.005230      -0.016292       0.000000
      0.005105      -0.015095       0.000000
      0.004354      -0.016178       0.000000
      0.004515      -0.017337       0.000000
      0.005367      -0.017460       0.000000
      0.005230      -0.016292       0.000000
      0.003642      -0.017206       0.000000
      0.003839      -0.018323       0.000000
      0.004689      -0.018464       0.000000
      0.004515      -0.017337       0.000000
      0.003839      -0.018323       0.000000
      0.004052      -0.019407       0.000000
      0.004875      -0.019557       0.000000
      0.004689      -0.018464       0.000000
      0.004515      -0.017337       0.000000
      0.004689      -0.018464       0.000000
      0.005515      -0.018597       0.000000
      0.005367      -0.017460       0.000000
      0.004689      -0.018464       0.000000
      0.004875      -0.019557       0.000000
      0.005676      -0.019698       0.000000
      0.005515      -0.018597       0.000000
      0.004052      -0.019407       0.000000
      0.004280      -0.020453       0.000000
      0.005076      -0.020611       0.000000
      0.004875      -0.019557       0.000000
      0.004280      -0.020453       0.000000
      0.004522      -0.021457       0.000000
      0.005289      -0.021622       0.000000
      0.005076      -0.020611       0.000000
      0.004875      -0.019557       0.000000
      0.005076      -0.020611       0.000000
      0.005849      -0.020760       0.000000
      0.005676      -0.019698       0.000000
      0.005076      -0.020611       0.000000
      0.005289      -0.021622       0.000000
      0.006034      -0.021778       0.000000
      0.005849      -0.020760       0.000000
      0.004522      -0.021457       0.000000
      0.004778      -0.022416       0.000000
      0.005513      -0.022587       0.000000
      0.005289      -0.021622       0.000000
      0.004778      -0.022416       0.000000
      0.005044      -0.023327       0.000000
      0.005745      -0.023500       0.000000
      0.005513      -0.022587       0.000000
      0.005289      -0.021622       0.000000
      0.005513      -0.022587       0.000000
      0.006229      -0.022748       0.000000
      0.006034      -0.021778       0.000000
      0.005513      -0.022587       0.000000
      0.005745      -0.023500       0.000000
      0.006434      -0.023665       0.000000
      0.006229      -0.022748       0.000000
      0.005044      -0.023327       0.000000
      0.005315      -0.024185       0.000000
      0.005982      -0.024359       0.000000
      0.005745      -0.023500       0.000000
      0.005315      -0.024185       0.000000
      0.005583      -0.024990       0.000000
      0.006219      -0.025162       0.000000
      0.005982      -0.024359       0.000000
      0.005745      -0.023500       0.000000
      0.005982      -0.024359       0.000000
      0.006646      -0.024526       0.000000
      0.006434      -0.023665       0.000000
      0.005982      -0.024359       0.000000
      0.006219      -0.025162       0.000000
      0.006862      -0.025329       0.000000
      0.006646      -0.024526       0.000000
      0.005583      -0.024990       0.000000
      0.005837      -0.025745       0.000000
      0.006445      -0.025909       0.000000
      0.006219      -0.025162       0.000000
      0.005837      -0.025745       0.000000
      0.006057      -0.026457       0.000000
      0.006652      -0.026610       0.000000
      0.006445      -0.025909       0.000000
      0.006219      -0.025162       0.000000
      0.006445      -0.025909       0.000000
      0.007081      -0.026074       0.000000
      0.006862      -0.025329       0.000000
      0.006445      -0.025909       0.000000
      0.006652      -0.026610       0.000000
      0.007297      -0.026770       0.000000
      0.007081      -0.026074       0.000000
      0.006057      -0.026457       0.000000
      0.006223      -0.027149       0.000000
      0.006825      -0.027287       0.000000
      0.006652      -0.026610       0.000000
      0.006223      -0.027149       0.000000
      0.006309      -0.027863       0.000000
      0.006947      -0.027988       0.000000
      0.006825      -0.027287       0.000000
      0.006652      -0.026610       0.000000
      0.006825      -0.027287       0.000000
      0.007502      -0.027439       0.000000
      0.007297      -0.026770       0.000000
      0.006825      -0.027287       0.000000
      0.006947      -0.027988       0.000000
      0.007678      -0.028122       0.000000
      0.007502      -0.027439       0.000000
      0.006309      -0.027863       0.000000
      0.006316      -0.028660       0.000000
      0.007006      -0.028786       0.000000
      0.006947      -0.027988       0.000000
      0.006316      -0.028660       0.000000
      0.006301      -0.029565       0.000000
      0.007013      -0.029719       0.000000
      0.007006      -0.028786       0.000000
      0.006947      -0.027988       0.000000
      0.007006      -0.028786       0.000000
      0.007782      -0.028901       0.000000
      0.007678      -0.028122       0.000000
      0.007006      -0.028786       0.000000
      0.007013      -0.029719       0.000000
      0.007795      -0.029899       0.000000
      0.007782      -0.028901       0.000000
      0.004536      -0.003725       0.000000
      0.004685      -0.005476       0.000000
      0.005724      -0.005622       0.000000
      0.005599      -0.004117       0.000000
      0.004685      -0.005476       0.000000
      0.004661      -0.007169       0.000000
      0.005730      -0.007201       0.000000
      0.005724      -0.005622       0.000000
      0.005599      -0.004117       0.000000
      0.005724      -0.005622       0.000000
      0.006680      -0.005775       0.000000
      0.006577      -0.004393       0.000000
      0.005724      -0.005622       0.000000
      0.005730      -0.007201       0.000000
      0.006706      -0.007257       0.000000
      0.006680      -0.005775       0.000000
      0.004661      -0.007169       0.000000
      0.004672      -0.008650       0.000000
      0.005717      -0.008678       0.000000
      0.005730      -0.007201       0.000000
      0.004672      -0.008650       0.000000
      0.004724      -0.010024       0.000000
      0.005728      -0.010066       0.000000
      0.005717      -0.008678       0.000000
      0.005730      -0.007201       0.000000
      0.005717      -0.008678       0.000000
      0.006697      -0.008708       0.000000
      0.006706      -0.007257       0.000000
      0.005717      -0.008678       0.000000
      0.005728      -0.010066       0.000000
      0.006692      -0.010101       0.000000
      0.006697      -0.008708       0.000000
      0.004724      -0.010024       0.000000
      0.004799      -0.011341       0.000000
      0.005767      -0.011397       0.000000
      0.005728      -0.010066       0.000000
      0.004799      -0.011341       0.000000
      0.004889      -0.012620       0.000000
      0.005825      -0.012690       0.000000
      0.005767      -0.011397       0.000000
      0.005728      -0.010066       0.000000
      0.005767      -0.011397       0.000000
      0.006706      -0.011444       0.000000
      0.006692      -0.010101       0.000000
      0.005767      -0.011397       0.000000
      0.005825      -0.012690       0.000000
      0.006739      -0.012750       0.000000
      0.006706      -0.011444       0.000000
      0.004889      -0.012620       0.000000
      0.004991      -0.013870       0.000000
      0.005899      -0.013953       0.000000
      0.005825      -0.012690       0.000000
      0.004991      -0.013870       0.000000
      0.005105      -0.015095       0.000000
      0.005987      -0.015188       0.000000
      0.005899      -0.013953       0.000000
      0.005825      -0.012690       0.000000
      0.005899      -0.013953       0.000000
      0.006788      -0.014026       0.000000
      0.006739      -0.012750       0.000000
      0.005899      -0.013953       0.000000
      0.005987      -0.015188       0.000000
      0.006851      -0.015273       0.000000
      0.006788      -0.014026       0.000000
      0.005105      -0.015095       0.000000
      0.005230      -0.016292       0.000000
      0.006087      -0.016396       0.000000
      0.005987      -0.015188       0.000000
      0.005230      -0.016292       0.000000
      0.005367      -0.017460       0.000000
      0.006199      -0.017575       0.000000
      0.006087      -0.016396       0.000000
      0.005987      -0.015188       0.000000
      0.006087      -0.016396       0.000000
      0.006927      -0.016492       0.000000
      0.006851      -0.015273       0.000000
      0.006087      -0.016396       0.000000
      0.006199      -0.017575       0.000000
      0.007014      -0.017680       0.000000
      0.006927      -0.016492       0.000000
      0.005367      -0.017460       0.000000
      0.005515      -0.018597       0.000000
      0.006322      -0.018721       0.000000
      0.006199      -0.017575       0.000000
      0.005515      -0.018597       0.000000
      0.005676      -0.019698       0.000000
      0.006457      -0.019831       0.000000
      0.006322      -0.018721       0.000000
      0.006199      -0.017575       0.000000
      0.006322      -0.018721       0.000000
      0.007112      -0.018836       0.000000
      0.007014      -0.017680       0.000000
      0.006322      -0.018721       0.000000
      0.006457      -0.019831       0.000000
      0.007220      -0.019955       0.000000
      0.007112      -0.018836       0.000000
      0.005676      -0.019698       0.000000
      0.005849      -0.020760       0.000000
      0.006603      -0.020901       0.000000
      0.006457      -0.019831       0.000000
      0.005849      -0.020760       0.000000
      0.006034      -0.021778       0.000000
      0.006761      -0.021926       0.000000
      0.006603      -0.020901       0.000000
      0.006457      -0.019831       0.000000
      0.006603      -0.020901       0.000000
      0.007340      -0.021034       0.000000
      0.007220      -0.019955       0.000000
      0.006603      -0.020901       0.000000
      0.006761      -0.021926       0.000000
      0.007471      -0.022067       0.000000
      0.007340      -0.021034       0.000000
      0.006034      -0.021778       0.000000
      0.006229      -0.022748       0.000000
      0.006930      -0.022903       0.000000
      0.006761      -0.021926       0.000000
      0.006229      -0.022748       0.000000
      0.006434      -0.023665       0.000000
      0.007110      -0.023826       0.000000
      0.006930      -0.022903       0.000000
      0.006761      -0.021926       0.000000
      0.006930      -0.022903       0.000000
      0.007614      -0.023052       0.000000
      0.007471      -0.022067       0.000000
      0.006930      -0.022903       0.000000
      0.007110      -0.023826       0.000000
      0.007771      -0.023983       0.000000
      0.007614      -0.023052       0.000000
      0.006434      -0.023665       0.000000
      0.006646      -0.024526       0.000000
      0.007302      -0.024692       0.000000
      0.007110      -0.023826       0.000000
      0.006646      -0.024526       0.000000
      0.006862      -0.025329       0.000000
      0.007506      -0.025499       0.000000
      0.007302      -0.024692       0.000000
      0.007110      -0.023826       0.000000
      0.007302      -0.024692       0.000000
      0.007944      -0.024858       0.000000
      0.007771      -0.023983       0.000000
      0.007302      -0.024692       0.000000
      0.007506      -0.025499       0.000000
      0.008138      -0.025676       0.000000
      0.007944      -0.024858       0.000000
      0.006862      -0.025329       0.000000
      0.007081      -0.026074       0.000000
      0.007726      -0.026249       0.000000
      0.007506      -0.025499       0.000000
      0.007081      -0.026074       0.000000
      0.007297      -0.026770       0.000000
      0.007963      -0.026949       0.000000
      0.007726      -0.026249       0.000000
      0.007506      -0.025499       0.000000
      0.007726      -0.026249       0.000000
      0.008359      -0.026437       0.000000
      0.008138      -0.025676       0.000000
      0.007726      -0.026249       0.000000
      0.007963      -0.026949       0.000000
      0.008615      -0.027150       0.000000
      0.008359      -0.026437       0.000000
      0.007297      -0.026770       0.000000
      0.007502      -0.027439       0.000000
      0.008216      -0.027615       0.000000
      0.007963      -0.026949       0.000000
      0.007502      -0.027439       0.000000
      0.007678      -0.028122       0.000000
      0.008477      -0.028278       0.000000
      0.008216      -0.027615       0.000000
      0.007963      -0.026949       0.000000
      0.008216      -0.027615       0.000000
      0.008916      -0.027826       0.000000
      0.008615      -0.027150       0.000000
      0.008216      -0.027615       0.000000
      0.008477      -0.028278       0.000000
      0.009279      -0.028487       0.000000
      0.008916      -0.027826       0.000000
      0.007678      -0.028122       0.000000
      0.007742      -0.028493       0.000000
      0.008159      -0.028556       0.000000
      0.008071      -0.028196       0.000000
      0.007742      -0.028493       0.000000
      0.007782      -0.028901       0.000000
      0.008219      -0.028953       0.000000
      0.008159      -0.028556       0.000000
      0.008071      -0.028196       0.000000
      0.008159      -0.028556       0.000000
      0.008599      -0.028626       0.000000
      0.008477      -0.028278       0.000000
      0.008159      -0.028556       0.000000
      0.008219      -0.028953       0.000000
      0.008699      -0.029005       0.000000
      0.008599      -0.028626       0.000000
      0.007782      -0.028901       0.000000
      0.007794      -0.029366       0.000000
      0.008242      -0.029421       0.000000
      0.008219      -0.028953       0.000000
      0.007794      -0.029366       0.000000
      0.007795      -0.029899       0.000000
      0.008240      -0.029995       0.000000
      0.008242      -0.029421       0.000000
      0.008219      -0.028953       0.000000
      0.008242      -0.029421       0.000000
      0.008752      -0.029464       0.000000
      0.008699      -0.029005       0.000000
      0.008242      -0.029421       0.000000
      0.008240      -0.029995       0.000000
      0.008749      -0.030096       0.000000
      0.008752      -0.029464       0.000000
      0.008477      -0.028278       0.000000
      0.008599      -0.028626       0.000000
      0.009053      -0.028712       0.000000
      0.008885      -0.028374       0.000000
      0.008599      -0.028626       0.000000
      0.008699      -0.029005       0.000000
      0.009221      -0.029072       0.000000
      0.009053      -0.028712       0.000000
      0.008885      -0.028374       0.000000
      0.009053      -0.028712       0.000000
      0.009495      -0.028823       0.000000
      0.009279      -0.028487       0.000000
      0.009053      -0.028712       0.000000
      0.009221      -0.029072       0.000000
      0.009749      -0.029178       0.000000
      0.009495      -0.028823       0.000000
      0.008699      -0.029005       0.000000
      0.008733      -0.029220       0.000000
      0.009007      -0.029243       0.000000
      0.008956      -0.029036       0.000000
      0.008733      -0.029220       0.000000
      0.008752      -0.029464       0.000000
      0.009041      -0.029482       0.000000
      0.009007      -0.029243       0.000000
      0.008956      -0.029036       0.000000
      0.009007      -0.029243       0.000000
      0.009298      -0.029272       0.000000
      0.009221      -0.029072       0.000000
      0.009007      -0.029243       0.000000
      0.009041      -0.029482       0.000000
      0.009361      -0.029500       0.000000
      0.009298      -0.029272       0.000000
      0.008752      -0.029464       0.000000
      0.008754      -0.029754       0.000000
      0.009050      -0.029776       0.000000
      0.009041      -0.029482       0.000000
      0.008754      -0.029754       0.000000
      0.008749      -0.030096       0.000000
      0.009043      -0.030150       0.000000
      0.009050      -0.029776       0.000000
      0.009041      -0.029482       0.000000
      0.009050      -0.029776       0.000000
      0.009391      -0.029790       0.000000