# vtk DataFile Version 2.0
time_10.vtk
ASCII
DATASET UNSTRUCTURED_GRID
POINTS  3648 float
      0.000000       0.000000       0.000000
      0.162500       0.000000       0.000000
      0.163542       0.125000       0.000000
     -0.000000       0.125000       0.000000
      0.162500       0.000000       0.000000
      0.325000       0.000000       0.000000
      0.327083       0.125000       0.000000
      0.163542       0.125000       0.000000
     -0.000000       0.125000       0.000000
      0.163542       0.125000       0.000000
      0.164583       0.250000       0.000000
      0.000000       0.250000       0.000000
      0.163542       0.125000       0.000000
      0.327083       0.125000       0.000000
      0.329167       0.250000       0.000000
      0.164583       0.250000       0.000000
      0.325000       0.000000       0.000000
      0.487500       0.000000       0.000000
      0.490625       0.125000       0.000000
      0.327083       0.125000       0.000000
      0.487500       0.000000       0.000000
      0.650000       0.000000       0.000000
      0.654167       0.125000       0.000000
      0.490625       0.125000       0.000000
      0.327083       0.125000       0.000000
      0.490625       0.125000       0.000000
      0.493750       0.250000       0.000000
      0.329167       0.250000       0.000000
      0.490625       0.125000       0.000000
      0.654167       0.125000       0.000000
      0.658333       0.250000       0.000000
      0.493750       0.250000       0.000000
      0.650000       0.000000       0.000000
      0.812500       0.000000       0.000000
      0.817708       0.125000       0.000000
      0.654167       0.125000       0.000000
      0.812500       0.000000       0.000000
      0.975000       0.000000       0.000000
      0.981250       0.125000       0.000000
      0.817708       0.125000       0.000000
      0.654167       0.125000       0.000000
      0.817708       0.125000       0.000000
      0.822917       0.250000       0.000000
      0.658333       0.250000       0.000000
      0.817708       0.125000       0.000000
      0.981250       0.125000       0.000000
      0.987500       0.250000       0.000000
      0.822917       0.250000       0.000000
      0.975000       0.000000       0.000000
      1.137500      -0.000000       0.000000
      1.144792       0.125000       0.000000
      0.981250       0.125000       0.000000
      1.137500      -0.000000       0.000000
      1.300000       0.000000       0.000000
      1.308333       0.125000       0.000000
      1.144792       0.125000       0.000000
      0.981250       0.125000       0.000000
      1.144792       0.125000       0.000000
      1.152083       0.250000       0.000000
      0.987500       0.250000       0.000000
      1.144792       0.125000       0.000000
      1.308333       0.125000       0.000000
      1.316667       0.250000       0.000000
      1.152083       0.250000       0.000000
      1.300000       0.000000       0.000000
      1.462500       0.000000       0.000000
      1.471875       0.125000       0.000000
      1.308333       0.125000       0.000000
      1.462500       0.000000       0.000000
      1.625000       0.000000       0.000000
      1.635417       0.125000       0.000000
      1.471875       0.125000       0.000000
      1.308333       0.125000       0.000000
      1.471875       0.125000       0.000000
      1.481250       0.250000       0.000000
      1.316667       0.250000       0.000000
      1.471875       0.125000       0.000000
      1.635417       0.125000       0.000000
      1.645833       0.250000       0.000000
      1.481250       0.250000       0.000000
      1.625000       0.000000       0.000000
      1.787500      -0.000000       0.000000
      1.798958       0.125000       0.000000
      1.635417       0.125000       0.000000
      1.787500      -0.000000       0.000000
      1.950000       0.000000       0.000000
      1.962500       0.125000       0.000000
      1.798958       0.125000       0.000000
      1.635417       0.125000       0.000000
      1.798958       0.125000       0.000000
      1.810417       0.250000       0.000000
      1.645833       0.250000       0.000000
      1.798958       0.125000       0.000000
      1.962500       0.125000       0.000000
      1.975000       0.250000       0.000000
      1.810417       0.250000       0.000000
      1.950000       0.000000       0.000000
      2.112500      -0.000000       0.000000
      2.126042       0.125000       0.000000
      1.962500       0.125000       0.000000
      2.112500      -0.000000       0.000000
      2.275000       0.000000       0.000000
      2.289583       0.125000       0.000000
      2.126042       0.125000       0.000000
      1.962500       0.125000       0.000000
      2.126042       0.125000       0.000000
      2.139583       0.250000       0.000000
      1.975000       0.250000       0.000000
      2.126042       0.125000       0.000000
      2.289583       0.125000       0.000000
      2.304167       0.250000       0.000000
      2.139583       0.250000       0.000000
      2.275000       0.000000       0.000000
      2.437500       0.000000       0.000000
      2.453125       0.125000       0.000000
      2.289583       0.125000       0.000000
      2.437500       0.000000       0.000000
      2.600000       0.000000       0.000000
      2.616667       0.125000       0.000000
      2.453125       0.125000       0.000000
      2.289583       0.125000       0.000000
      2.453125       0.125000       0.000000
      2.468750       0.250000       0.000000
      2.304167       0.250000       0.000000
      2.453125       0.125000       0.000000
      2.616667       0.125000       0.000000
      2.633333       0.250000       0.000000
      2.468750       0.250000       0.000000
      2.600000       0.000000       0.000000
      2.762500       0.000000       0.000000
      2.780208       0.125000       0.000000
      2.616667       0.125000       0.000000
      2.762500       0.000000       0.000000
      2.925000       0.000000       0.000000
      2.943750       0.125000       0.000000
      2.780208       0.125000       0.000000
      2.616667       0.125000       0.000000
      2.780208       0.125000       0.000000
      2.797917       0.250000       0.000000
      2.633333       0.250000       0.000000
      2.780208       0.125000       0.000000
      2.943750       0.125000       0.000000
      2.962500       0.250000       0.000000
      2.797917       0.250000       0.000000
      2.925000       0.000000       0.000000
      3.087500       0.000000       0.000000
      3.107292       0.125000       0.000000
      2.943750       0.125000       0.000000
      3.087500       0.000000       0.000000
      3.250000       0.000000       0.000000
      3.270833       0.125000       0.000000
      3.107292       0.125000       0.000000
      2.943750       0.125000       0.000000
      3.107292       0.125000       0.000000
      3.127083       0.250000       0.000000
      2.962500       0.250000       0.000000
      3.107292       0.125000       0.000000
      3.270833       0.125000       0.000000
      3.291667       0.250000       0.000000
      3.127083       0.250000       0.000000
      3.250000       0.000000       0.000000
      3.412500       0.000000       0.000000
      3.434375       0.125000       0.000000
      3.270833       0.125000       0.000000
      3.412500       0.000000       0.000000
      3.575000       0.000000       0.000000
      3.597917       0.125000       0.000000
      3.434375       0.125000       0.000000
      3.270833       0.125000       0.000000
      3.434375       0.125000       0.000000
      3.456250       0.250000       0.000000
      3.291667       0.250000       0.000000
      3.434375       0.125000       0.000000
      3.597917       0.125000       0.000000
      3.620833       0.250000       0.000000
      3.456250       0.250000       0.000000
      3.575000       0.000000       0.000000
      3.737500      -0.000000       0.000000
      3.761458       0.125000       0.000000
      3.597917       0.125000       0.000000
      3.737500      -0.000000       0.000000
      3.900000       0.000000       0.000000
      3.925000       0.125000       0.000000
      3.761458       0.125000       0.000000
      3.597917       0.125000       0.000000
      3.761458       0.125000       0.000000
      3.785417       0.250000       0.000000
      3.620833       0.250000       0.000000
      3.761458       0.125000       0.000000
      3.925000       0.125000       0.000000
      3.950000       0.250000       0.000000
      3.785417       0.250000       0.000000
      0.000000       0.250000       0.000000
      0.164583       0.250000       0.000000
      0.165625       0.375000       0.000000
     -0.000000       0.375000       0.000000
      0.164583       0.250000       0.000000
      0.329167       0.250000       0.000000
      0.331250       0.375000       0.000000
      0.165625       0.375000       0.000000
     -0.000000       0.375000       0.000000
      0.165625       0.375000       0.000000
      0.166667       0.500000       0.000000
      0.000000       0.500000       0.000000
      0.165625       0.375000       0.000000
      0.331250       0.375000       0.000000
      0.333333       0.500000       0.000000
      0.166667       0.500000       0.000000
      0.329167       0.250000       0.000000
      0.493750       0.250000       0.000000
      0.496875       0.375000       0.000000
      0.331250       0.375000       0.000000
      0.493750       0.250000       0.000000
      0.658333       0.250000       0.000000
      0.662500       0.375000       0.000000
      0.496875       0.375000       0.000000
      0.331250       0.375000       0.000000
      0.496875       0.375000       0.000000
      0.500000       0.500000       0.000000
      0.333333       0.500000       0.000000
[...]
POINT_DATA  3648
VECTORS U float 
      0.000000       0.000000       0.000000
      0.001079      -0.003278       0.000000
      0.002199      -0.003395       0.000000
      0.002098      -0.001783       0.000000
      0.001079      -0.003278       0.000000
      0.001375      -0.004503       0.000000
      0.002225      -0.004568       0.000000
      0.002199      -0.003395       0.000000
      0.002098      -0.001783       0.000000
      0.002199      -0.003395       0.000000
      0.003052      -0.003439       0.000000
      0.002953      -0.002250       0.000000
      0.002199      -0.003395       0.000000
      0.002225      -0.004568       0.000000
      0.003036      -0.004585       0.000000
      0.003052      -0.003439       0.000000
      0.001375      -0.004503       0.000000
      0.001550      -0.005502       0.000000
      0.002299      -0.005558       0.000000
      0.002225      -0.004568       0.000000
      0.001550      -0.005502       0.000000
      0.001680      -0.006422       0.000000
      0.002380      -0.006477       0.000000
      0.002299      -0.005558       0.000000
      0.002225      -0.004568       0.000000
      0.002299      -0.005558       0.000000
      0.003044      -0.005588       0.000000
      0.003036      -0.004585       0.000000
      0.002299      -0.005558       0.000000
      0.002380      -0.006477       0.000000
      0.003079      -0.006518       0.000000
      0.003044      -0.005588       0.000000
      0.001680      -0.006422       0.000000
      0.001792      -0.007301       0.000000
      0.002463      -0.007360       0.000000
      0.002380      -0.006477       0.000000
      0.001792      -0.007301       0.000000
      0.001897      -0.008154       0.000000
      0.002548      -0.008218       0.000000
      0.002463      -0.007360       0.000000
      0.002380      -0.006477       0.000000
      0.002463      -0.007360       0.000000
      0.003131      -0.007408       0.000000
      0.003079      -0.006518       0.000000
      0.002463      -0.007360       0.000000
      0.002548      -0.008218       0.000000
      0.003192      -0.008274       0.000000
      0.003131      -0.007408       0.000000
      0.001897      -0.008154       0.000000
      0.002003      -0.008987       0.000000
      0.002637      -0.009056       0.000000
      0.002548      -0.008218       0.000000
      0.002003      -0.008987       0.000000
      0.002112      -0.009801       0.000000
      0.002731      -0.009877       0.000000
      0.002637      -0.009056       0.000000
      0.002548      -0.008218       0.000000
      0.002637      -0.009056       0.000000
      0.003262      -0.009119       0.000000
      0.003192      -0.008274       0.000000
      0.002637      -0.009056       0.000000
      0.002731      -0.009877       0.000000
      0.003339      -0.009947       0.000000
      0.003262      -0.009119       0.000000
      0.002112      -0.009801       0.000000
      0.002228      -0.010597       0.000000
      0.002833      -0.010679       0.000000
      0.002731      -0.009877       0.000000
      0.002228      -0.010597       0.000000
      0.002353      -0.011373       0.000000
      0.002942      -0.011462       0.000000
      0.002833      -0.010679       0.000000
      0.002731      -0.009877       0.000000
      0.002833      -0.010679       0.000000
      0.003424      -0.010756       0.000000
      0.003339      -0.009947       0.000000
      0.002833      -0.010679       0.000000
      0.002942      -0.011462       0.000000
      0.003518      -0.011546       0.000000
      0.003424      -0.010756       0.000000
      0.002353      -0.011373       0.000000
      0.002487      -0.012128       0.000000
      0.003061      -0.012224       0.000000
      0.002942      -0.011462       0.000000
      0.002487      -0.012128       0.000000
      0.002632      -0.012860       0.000000
      0.003188      -0.012962       0.000000
      0.003061      -0.012224       0.000000
      0.002942      -0.011462       0.000000
      0.003061      -0.012224       0.000000
      0.003619      -0.012314       0.000000
      0.003518      -0.011546       0.000000
      0.003061      -0.012224       0.000000
      0.003188      -0.012962       0.000000
      0.003729      -0.013058       0.000000
      0.003619      -0.012314       0.000000
      0.002632      -0.012860       0.000000
      0.002787      -0.013566       0.000000
      0.003325      -0.013674       0.000000
      0.003188      -0.012962       0.000000
      0.002787      -0.013566       0.000000
      0.002953      -0.014244       0.000000
      0.003470      -0.014356       0.000000
      0.003325      -0.013674       0.000000
      0.003188      -0.012962       0.000000
      0.003325      -0.013674       0.000000
      0.003847      -0.013775       0.000000
      0.003729      -0.013058       0.000000
      0.003325      -0.013674       0.000000
      0.003470      -0.014356       0.000000
      0.003973      -0.014462       0.000000
      0.003847      -0.013775       0.000000
      0.002953      -0.014244       0.000000
      0.003127      -0.014891       0.000000
      0.003623      -0.015007       0.000000
      0.003470      -0.014356       0.000000
      0.003127      -0.014891       0.000000
      0.003308      -0.015505       0.000000
      0.003781      -0.015623       0.000000
      0.003623      -0.015007       0.000000
      0.003470      -0.014356       0.000000
      0.003623      -0.015007       0.000000
      0.004106      -0.015116       0.000000
      0.003973      -0.014462       0.000000
      0.003623      -0.015007       0.000000
      0.003781      -0.015623       0.000000
      0.004245      -0.015735       0.000000
      0.004106      -0.015116       0.000000
      0.003308      -0.015505       0.000000
      0.003493      -0.016084       0.000000
      0.003943      -0.016202       0.000000
      0.003781      -0.015623       0.000000
      0.003493      -0.016084       0.000000
      0.003676      -0.016626       0.000000
      0.004104      -0.016742       0.000000
      0.003943      -0.016202       0.000000
      0.003781      -0.015623       0.000000
      0.003943      -0.016202       0.000000
      0.004390      -0.016315       0.000000
      0.004245      -0.015735       0.000000
      0.003943      -0.016202       0.000000
      0.004104      -0.016742       0.000000
      0.004537      -0.016855       0.000000
      0.004390      -0.016315       0.000000
      0.003676      -0.016626       0.000000
      0.003848      -0.017134       0.000000
      0.004259      -0.017245       0.000000
      0.004104      -0.016742       0.000000
      0.003848      -0.017134       0.000000
      0.003999      -0.017613       0.000000
      0.004400      -0.017716       0.000000
      0.004259      -0.017245       0.000000
      0.004104      -0.016742       0.000000
      0.004259      -0.017245       0.000000
      0.004687      -0.017357       0.000000
      0.004537      -0.016855       0.000000
      0.004259      -0.017245       0.000000
      0.004400      -0.017716       0.000000
      0.004834      -0.017825       0.000000
      0.004687      -0.017357       0.000000
      0.003999      -0.017613       0.000000
      0.004113      -0.018078       0.000000
      0.004518      -0.018171       0.000000
      0.004400      -0.017716       0.000000
      0.004113      -0.018078       0.000000
      0.004173      -0.018557       0.000000
      0.004602      -0.018642       0.000000
      0.004518      -0.018171       0.000000
      0.004400      -0.017716       0.000000
      0.004518      -0.018171       0.000000
      0.004974      -0.018274       0.000000
      0.004834      -0.017825       0.000000
      0.004518      -0.018171       0.000000
      0.004602      -0.018642       0.000000
      0.005095      -0.018733       0.000000
      0.004974      -0.018274       0.000000
      0.004173      -0.018557       0.000000
      0.004178      -0.019094       0.000000
      0.004642      -0.019178       0.000000
      0.004602      -0.018642       0.000000
      0.004178      -0.019094       0.000000
      0.004168      -0.019703       0.000000
      0.004648      -0.019807       0.000000
      0.004642      -0.019178       0.000000
      0.004602      -0.018642       0.000000
      0.004642      -0.019178       0.000000
      0.005167      -0.019256       0.000000
      0.005095      -0.018733       0.000000
      0.004642      -0.019178       0.000000
      0.004648      -0.019807       0.000000
      0.005176      -0.019929       0.000000
      0.005167      -0.019256       0.000000
      0.002953      -0.002250       0.000000
      0.003052      -0.003439       0.000000
      0.003756      -0.003537       0.000000
      0.003671      -0.002518       0.000000
      0.003052      -0.003439       0.000000
      0.003036      -0.004585       0.000000
      0.003759      -0.004607       0.000000
      0.003756      -0.003537       0.000000
      0.003671      -0.002518       0.000000
      0.003756      -0.003537       0.000000
      0.004402      -0.003641       0.000000
      0.004332      -0.002706       0.000000
      0.003756      -0.003537       0.000000
      0.003759      -0.004607       0.000000
      0.004420      -0.004645       0.000000
      0.004402      -0.003641       0.000000
      0.003036      -0.004585       0.000000
      0.003044      -0.005588       0.000000
      0.003750      -0.005607       0.000000
      0.003759      -0.004607       0.000000
      0.003044      -0.005588       0.000000
      0.003079      -0.006518       0.000000
      0.003759      -0.006546       0.000000
      0.003750      -0.005607       0.000000
      0.003759      -0.004607       0.000000
      0.003750      -0.005607       0.000000
      0.004413      -0.005627       0.000000
      0.004420      -0.004645       0.000000
      0.003750      -0.005607       0.000000
      0.003759      -0.006546       0.000000
      0.004410      -0.006570       0.000000
      0.004413      -0.005627       0.000000
      0.003079      -0.006518       0.000000
      0.003131      -0.007408       0.000000
      0.003785      -0.007447       0.000000
      0.003759      -0.006546       0.000000
      0.003131      -0.007408       0.000000
      0.003192      -0.008274       0.000000
      0.003825      -0.008321       0.000000
      0.003785      -0.007447       0.000000
      0.003759      -0.006546       0.000000
      0.003785      -0.007447       0.000000
      0.004420      -0.007479       0.000000
      0.004410      -0.006570       0.000000
      0.003785      -0.007447       0.000000
      0.003825      -0.008321       0.000000
      0.004443      -0.008362       0.000000
      0.004420      -0.007479       0.000000
      0.003192      -0.008274       0.000000
      0.003262      -0.009119       0.000000
      0.003875      -0.009175       0.000000
      0.003825      -0.008321       0.000000
      0.003262      -0.009119       0.000000
      0.003339      -0.009947       0.000000
      0.003935      -0.010011       0.000000
      0.003875      -0.009175       0.000000
      0.003825      -0.008321       0.000000
      0.003875      -0.009175       0.000000
      0.004476      -0.009225       0.000000
      0.004443      -0.008362       0.000000
      0.003875      -0.009175       0.000000
      0.003935      -0.010011       0.000000
      0.004519      -0.010068       0.000000
      0.004476      -0.009225       0.000000
      0.003339      -0.009947       0.000000
      0.003424      -0.010756       0.000000
      0.004004      -0.010827       0.000000
      0.003935      -0.010011       0.000000
      0.003424      -0.010756       0.000000
      0.003518      -0.011546       0.000000
      0.004080      -0.011623       0.000000
      0.004004      -0.010827       0.000000
      0.003935      -0.010011       0.000000
      0.004004      -0.010827       0.000000
      0.004571      -0.010892       0.000000
      0.004519      -0.010068       0.000000
      0.004004      -0.010827       0.000000
      0.004080      -0.011623       0.000000
      0.004630      -0.011695       0.000000
      0.004571      -0.010892       0.000000
      0.003518      -0.011546       0.000000
      0.003619      -0.012314       0.000000
      0.004164      -0.012398       0.000000
      0.004080      -0.011623       0.000000
      0.003619      -0.012314       0.000000
      0.003729      -0.013058       0.000000
      0.004256      -0.013148       0.000000
      0.004164      -0.012398       0.000000
      0.004080      -0.011623       0.000000
      0.004164      -0.012398       0.000000
      0.004697      -0.012476       0.000000
      0.004630      -0.011695       0.000000
      0.004164      -0.012398       0.000000
      0.004256      -0.013148       0.000000
      0.004771      -0.013232       0.000000
      0.004697      -0.012476       0.000000
      0.003729      -0.013058       0.000000
      0.003847      -0.013775       0.000000
      0.004356      -0.013870       0.000000
      0.004256      -0.013148       0.000000
      0.003847      -0.013775       0.000000
      0.003973      -0.014462       0.000000
      0.004463      -0.014562       0.000000
      0.004356      -0.013870       0.000000
      0.004256      -0.013148       0.000000
      0.004356      -0.013870       0.000000
      0.004852      -0.013960       0.000000
      0.004771      -0.013232       0.000000
      0.004356      -0.013870       0.000000
      0.004463      -0.014562       0.000000
      0.004941      -0.014658       0.000000
      0.004852      -0.013960       0.000000
      0.003973      -0.014462       0.000000
      0.004106      -0.015116       0.000000
      0.004578      -0.015221       0.000000
      0.004463      -0.014562       0.000000
      0.004106      -0.015116       0.000000
      0.004245      -0.015735       0.000000
      0.004701      -0.015843       0.000000
      0.004578      -0.015221       0.000000
      0.004463      -0.014562       0.000000
      0.004578      -0.015221       0.000000
      0.005039      -0.015322       0.000000
      0.004941      -0.014658       0.000000
      0.004578      -0.015221       0.000000
      0.004701      -0.015843       0.000000
      0.005146      -0.015950       0.000000
      0.005039      -0.015322       0.000000
      0.004245      -0.015735       0.000000
      0.004390      -0.016315       0.000000
      0.004831      -0.016427       0.000000
      0.004701      -0.015843       0.000000
      0.004390      -0.016315       0.000000
      0.004537      -0.016855       0.000000
      0.004971      -0.016971       0.000000
      0.004831      -0.016427       0.000000
      0.004701      -0.015843       0.000000
      0.004831      -0.016427       0.000000
      0.005264      -0.016540       0.000000
      0.005146      -0.015950       0.000000
      0.004831      -0.016427       0.000000
      0.004971      -0.016971       0.000000
      0.005396      -0.017090       0.000000
      0.005264      -0.016540       0.000000
      0.004537      -0.016855       0.000000
      0.004687      -0.017357       0.000000
      0.005121      -0.017475       0.000000
      0.004971      -0.016971       0.000000
      0.004687      -0.017357       0.000000
      0.004834      -0.017825       0.000000
      0.005282      -0.017946       0.000000
      0.005121      -0.017475       0.000000
      0.004971      -0.016971       0.000000
      0.005121      -0.017475       0.000000
      0.005547      -0.017603       0.000000
      0.005396      -0.017090       0.000000
      0.005121      -0.017475       0.000000
      0.005282      -0.017946       0.000000
      0.005721      -0.018082       0.000000
      0.005547      -0.017603       0.000000
      0.004834      -0.017825       0.000000
      0.004974      -0.018274       0.000000
      0.005455      -0.018394       0.000000
      0.005282      -0.017946       0.000000
      0.004974      -0.018274       0.000000
      0.005095      -0.018733       0.000000
      0.005634      -0.018839       0.000000
      0.005455      -0.018394       0.000000
      0.005282      -0.017946       0.000000
      0.005455      -0.018394       0.000000
      0.005926      -0.018537       0.000000
      0.005721      -0.018082       0.000000
      0.005455      -0.018394       0.000000
      0.005634      -0.018839       0.000000
      0.006174      -0.018981       0.000000
      0.005926      -0.018537       0.000000
      0.005095      -0.018733       0.000000
      0.005139      -0.018982       0.000000
      0.005421      -0.019024       0.000000
      0.005360      -0.018783       0.000000
      0.005139      -0.018982       0.000000
      0.005167      -0.019256       0.000000
      0.005463      -0.019291       0.000000
      0.005421      -0.019024       0.000000
      0.005360      -0.018783       0.000000
      0.005421      -0.019024       0.000000
      0.005718      -0.019072       0.000000
      0.005634      -0.018839       0.000000
      0.005421      -0.019024       0.000000
      0.005463      -0.019291       0.000000
      0.005787      -0.019326       0.000000
      0.005718      -0.019072       0.000000
      0.005167      -0.019256       0.000000
      0.005176      -0.019569       0.000000
      0.005479      -0.019605       0.000000
      0.005463      -0.019291       0.000000
      0.005176      -0.019569       0.000000
      0.005176      -0.019929       0.000000
      0.005477      -0.019993       0.000000
      0.005479      -0.019605       0.000000
      0.005463      -0.019291       0.000000
      0.005479      -0.019605       0.000000
      0.005825      -0.019634       0.000000
      0.005787      -0.019326       0.000000
      0.005479      -0.019605       0.000000
      0.005477      -0.019993       0.000000
      0.005822      -0.020061       0.000000
      0.005825      -0.019634       0.000000
      0.005634      -0.018839       0.000000
      0.005718      -0.019072       0.000000
      0.006024      -0.019131       0.000000
      0.005909      -0.018904       0.000000
      0.005718      -0.019072       0.000000
      0.005787      -0.019326       0.000000
      0.006140      -0.019372       0.000000
      0.006024      -0.019131       0.000000
      0.005909      -0.018904       0.000000
      0.006024      -0.019131       0.000000
      0.006321      -0.019207       0.000000
      0.006174      -0.018981       0.000000
      0.006024      -0.019131       0.000000
      0.006140      -0.019372       0.000000
      0.006494      -0.019445       0.000000
      0.006321      -0.019207       0.000000
      0.005787      -0.019326       0.000000
      0.005811      -0.019470       0.000000
      0.005997      -0.019486       0.000000
      0.005961      -0.019347       0.000000
      0.005811      -0.019470       0.000000
      0.005825      -0.019634       0.000000
      0.006021      -0.019646       0.000000
      0.005997      -0.019486       0.000000
      0.005961      -0.019347       0.000000
      0.005997      -0.019486       0.000000
      0.006194      -0.019506       0.000000
      0.006140      -0.019372       0.000000
      0.005997      -0.019486       0.000000
      0.006021      -0.019646       0.000000
      0.006237      -0.019658       0.000000
      0.006194      -0.019506       0.000000
      0.005825      -0.019634       0.000000
      0.005826      -0.019829       0.000000
      0.006027      -0.019844       0.000000
      0.006021      -0.019646       0.000000
      0.005826      -0.019829       0.000000
      0.005822      -0.020061       0.000000
      0.006022      -0.020097       0.000000
      0.006027      -0.019844       0.000000
      0.006021      -0.019646       0.000000
      0.006027      -0.019844       0.000000
      0.006259      -0.019853       0.000000