# vtk DataFile Version 2.0
time_10.vtk
ASCII
DATASET UNSTRUCTURED_GRID
POINTS  3780 float
      0.000000       0.000000       0.000000
      0.162500       0.000000       0.000000
      0.163542       0.125000       0.000000
     -0.000000       0.125000       0.000000
      0.162500       0.000000       0.000000
      0.325000       0.000000       0.000000
      0.327083       0.125000       0.000000
      0.163542       0.125000       0.000000
     -0.000000       0.125000       0.000000
      0.163542       0.125000       0.000000
      0.164583       0.250000       0.000000
      0.000000       0.250000       0.000000
      0.163542       0.125000       0.000000
      0.327083       0.125000       0.000000
      0.329167       0.250000       0.000000
      0.164583       0.250000       0.000000
      0.325000       0.000000       0.000000
      0.487500       0.000000       0.000000
      0.490625       0.125000       0.000000
      0.327083       0.125000       0.000000
      0.487500       0.000000       0.000000
      0.650000       0.000000       0.000000
      0.654167       0.125000       0.000000
      0.490625       0.125000       0.000000
      0.327083       0.125000       0.000000
      0.490625       0.125000       0.000000
      0.493750       0.250000       0.000000
      0.329167       0.250000       0.000000
      0.490625       0.125000       0.000000
      0.654167       0.125000       0.000000
      0.658333       0.250000       0.000000
      0.493750       0.250000       0.000000
      0.650000       0.000000       0.000000
      0.812500       0.000000       0.000000
      0.817708       0.125000       0.000000
      0.654167       0.125000       0.000000
      0.812500       0.000000       0.000000
      0.975000       0.000000       0.000000
      0.981250       0.125000       0.000000
      0.817708       0.125000       0.000000
      0.654167       0.125000       0.000000
      0.817708       0.125000       0.000000
      0.822917       0.250000       0.000000
      0.658333       0.250000       0.000000
      0.817708       0.125000       0.000000
      0.981250       0.125000       0.000000
      0.987500       0.250000       0.000000
      0.822917       0.250000       0.000000
      0.975000       0.000000       0.000000
      1.137500      -0.000000       0.000000
      1.144792       0.125000       0.000000
      0.981250       0.125000       0.000000
      1.137500      -0.000000       0.000000
      1.300000       0.000000       0.000000
      1.308333       0.125000       0.000000
      1.144792       0.125000       0.000000
      0.981250       0.125000       0.000000
      1.144792       0.125000       0.000000
      1.152083       0.250000       0.000000
      0.987500       0.250000       0.000000
      1.144792       0.125000       0.000000
      1.308333       0.125000       0.000000
      1.316667       0.250000       0.000000
      1.152083       0.250000       0.000000
      1.300000       0.000000       0.000000
      1.462500       0.000000       0.000000
      1.471875       0.125000       0.000000
      1.308333       0.125000       0.000000
      1.462500       0.000000       0.000000
      1.625000       0.000000       0.000000
      1.635417       0.125000       0.000000
      1.471875       0.125000       0.000000
      1.308333       0.125000       0.000000
      1.471875       0.125000       0.000000
      1.481250       0.250000       0.000000
      1.316667       0.250000       0.000000
      1.471875       0.125000       0.000000
      1.635417       0.125000       0.000000
      1.645833       0.250000       0.000000
      1.481250       0.250000       0.000000
      1.625000       0.000000       0.000000
      1.787500      -0.000000       0.000000
      1.798958       0.125000       0.000000
      1.635417       0.125000       0.000000
      1.787500      -0.000000       0.000000
      1.950000       0.000000       0.000000
      1.962500       0.125000       0.000000
      1.798958       0.125000       0.000000
      1.635417       0.125000       0.000000
      1.798958       0.125000       0.000000
      1.810417       0.250000       0.000000
      1.645833       0.250000       0.000000
      1.798958       0.125000       0.000000
      1.962500       0.125000       0.000000
      1.975000       0.250000       0.000000
      1.810417       0.250000       0.000000
      1.950000       0.000000       0.000000
      2.112500      -0.000000       0.000000
      2.126042       0.125000       0.000000
      1.962500       0.125000       0.000000
      2.112500      -0.000000       0.000000
      2.275000       0.000000       0.000000
      2.289583       0.125000       0.000000
      2.126042       0.125000       0.000000
      1.962500       0.125000       0.000000
      2.126042       0.125000       0.000000
      2.139583       0.250000       0.000000
      1.975000       0.250000       0.000000
      2.126042       0.125000       0.000000
      2.289583       0.125000       0.000000
      2.304167       0.250000       0.000000
      2.139583       0.250000       0.000000
      2.275000       0.000000       0.000000
      2.437500       0.000000       0.000000
      2.453125       0.125000       0.000000
      2.289583       0.125000       0.000000
      2.437500       0.000000       0.000000
      2.600000       0.000000       0.000000
      2.616667       0.125000       0.000000
      2.453125       0.125000       0.000000
      2.289583       0.125000       0.000000
      2.453125       0.125000       0.000000
      2.468750       0.250000       0.000000
      2.304167       0.250000       0.000000
      2.453125       0.125000       0.000000
      2.616667       0.125000       0.000000
      2.633333       0.250000       0.000000
      2.468750       0.250000       0.000000
      2.600000       0.000000       0.000000
      2.762500       0.000000       0.000000
      2.780208       0.125000       0.000000
      2.616667       0.125000       0.000000
      2.762500       0.000000       0.000000
      2.925000       0.000000       0.000000
      2.943750       0.125000       0.000000
      2.780208       0.125000       0.000000
      2.616667       0.125000       0.000000
      2.780208       0.125000       0.000000
      2.797917       0.250000       0.000000
      2.633333       0.250000       0.000000
      2.780208       0.125000       0.000000
      2.943750       0.125000       0.000000
      2.962500       0.250000       0.000000
      2.797917       0.250000       0.000000
      2.925000       0.000000       0.000000
      3.087500       0.000000       0.000000
      3.107292       0.125000       0.000000
      2.943750       0.125000       0.000000
      3.087500       0.000000       0.000000
      3.250000       0.000000       0.000000
      3.270833       0.125000       0.000000
      3.107292       0.125000       0.000000
      2.943750       0.125000       0.000000
      3.107292       0.125000       0.000000
      3.127083       0.250000       0.000000
      2.962500       0.250000       0.000000
      3.107292       0.125000       0.000000
      3.270833       0.125000       0.000000
      3.291667       0.250000       0.000000
      3.127083       0.250000       0.000000
      3.250000       0.000000       0.000000
      3.412500       0.000000       0.000000
      3.434375       0.125000       0.000000
      3.270833       0.125000       0.000000
      3.412500       0.000000       0.000000
      3.575000       0.000000       0.000000
      3.597917       0.125000       0.000000
      3.434375       0.125000       0.000000
      3.270833       0.125000       0.000000
      3.434375       0.125000       0.000000
      3.456250       0.250000       0.000000
      3.291667       0.250000       0.000000
      3.434375       0.125000       0.000000
      3.597917       0.125000       0.000000
      3.620833       0.250000       0.000000
      3.456250       0.250000       0.000000
      3.575000       0.000000       0.000000
      3.737500      -0.000000       0.000000
      3.761458       0.125000       0.000000
      3.597917       0.125000       0.000000
      3.737500      -0.000000       0.000000
      3.900000       0.000000       0.000000
      3.925000       0.125000       0.000000
      3.761458       0.125000       0.000000
      3.597917       0.125000       0.000000
      3.761458       0.125000       0.000000
      3.785417       0.250000       0.000000
      3.620833       0.250000       0.000000
      3.761458       0.125000       0.000000
      3.925000       0.125000       0.000000
      3.950000       0.250000       0.000000
      3.785417       0.250000       0.000000
      0.000000       0.250000       0.000000
      0.164583       0.250000       0.000000
      0.165625       0.375000       0.000000
     -0.000000       0.375000       0.000000
      0.164583       0.250000       0.000000
      0.329167       0.250000       0.000000
      0.331250       0.375000       0.000000
      0.165625       0.375000       0.000000
     -0.000000       0.375000       0.000000
      0.165625       0.375000       0.000000
      0.166667       0.500000       0.000000
      0.000000       0.500000       0.000000
      0.165625       0.375000       0.000000
      0.331250       0.375000       0.000000
      0.333333       0.500000       0.000000
      0.166667       0.500000       0.000000
      0.329167       0.250000       0.000000
      0.493750       0.250000       0.000000
      0.496875       0.375000       0.000000
      0.331250       0.375000       0.000000
      0.493750       0.250000       0.000000
      0.658333       0.250000       0.000000
      0.662500       0.375000       0.000000
      0.496875       0.375000       0.000000
      0.331250       0.375000       0.000000
      0.496875       0.375000       0.000000
      0.500000       0.500000       0.000000
      0.333333       0.500000       0.000000
[...]
POINT_DATA  3780
VECTORS U float 
      0.000000       0.000000       0.000000
      0.000077      -0.001538       0.000000
      0.001161      -0.001555       0.000000
      0.001154      -0.000125       0.000000
      0.000077      -0.001538       0.000000
      0.000099      -0.002929       0.000000
      0.001163      -0.002951       0.000000
      0.001161      -0.001555       0.000000
      0.001154      -0.000125       0.000000
      0.001161      -0.001555       0.000000
      0.002225      -0.001566       0.000000
      0.002218      -0.000160       0.000000
      0.001161      -0.001555       0.000000
      0.001163      -0.002951       0.000000
      0.002224      -0.002969       0.000000
      0.002225      -0.001566       0.000000
      0.000099      -0.002929       0.000000
      0.000113      -0.004304       0.000000
      0.001169      -0.004334       0.000000
      0.001163      -0.002951       0.000000
      0.000113      -0.004304       0.000000
      0.000123      -0.005673       0.000000
      0.001175      -0.005711       0.000000
      0.001169      -0.004334       0.000000
      0.001163      -0.002951       0.000000
      0.001169      -0.004334       0.000000
      0.002225      -0.004361       0.000000
      0.002224      -0.002969       0.000000
      0.001169      -0.004334       0.000000
      0.001175      -0.005711       0.000000
      0.002228      -0.005747       0.000000
      0.002225      -0.004361       0.000000
      0.000123      -0.005673       0.000000
      0.000131      -0.007039       0.000000
      0.001181      -0.007085       0.000000
      0.001175      -0.005711       0.000000
      0.000131      -0.007039       0.000000
      0.000139      -0.008403       0.000000
      0.001188      -0.008458       0.000000
      0.001181      -0.007085       0.000000
      0.001175      -0.005711       0.000000
      0.001181      -0.007085       0.000000
      0.002231      -0.007131       0.000000
      0.002228      -0.005747       0.000000
      0.001181      -0.007085       0.000000
      0.001188      -0.008458       0.000000
      0.002236      -0.008512       0.000000
      0.002231      -0.007131       0.000000
      0.000139      -0.008403       0.000000
      0.000147      -0.009766       0.000000
      0.001195      -0.009829       0.000000
      0.001188      -0.008458       0.000000
      0.000147      -0.009766       0.000000
      0.000156      -0.011127       0.000000
      0.001202      -0.011199       0.000000
      0.001195      -0.009829       0.000000
      0.001188      -0.008458       0.000000
      0.001195      -0.009829       0.000000
      0.002241      -0.009892       0.000000
      0.002236      -0.008512       0.000000
      0.001195      -0.009829       0.000000
      0.001202      -0.011199       0.000000
      0.002247      -0.011271       0.000000
      0.002241      -0.009892       0.000000
      0.000156      -0.011127       0.000000
      0.000164      -0.012486       0.000000
      0.001210      -0.012567       0.000000
      0.001202      -0.011199       0.000000
      0.000164      -0.012486       0.000000
      0.000174      -0.013844       0.000000
      0.001218      -0.013934       0.000000
      0.001210      -0.012567       0.000000
      0.001202      -0.011199       0.000000
      0.001210      -0.012567       0.000000
      0.002254      -0.012648       0.000000
      0.002247      -0.011271       0.000000
      0.001210      -0.012567       0.000000
      0.001218      -0.013934       0.000000
      0.002261      -0.014024       0.000000
      0.002254      -0.012648       0.000000
      0.000174      -0.013844       0.000000
      0.000184      -0.015201       0.000000
      0.001227      -0.015300       0.000000
      0.001218      -0.013934       0.000000
      0.000184      -0.015201       0.000000
      0.000196      -0.016556       0.000000
      0.001237      -0.016663       0.000000
      0.001227      -0.015300       0.000000
      0.001218      -0.013934       0.000000
      0.001227      -0.015300       0.000000
      0.002269      -0.015398       0.000000
      0.002261      -0.014024       0.000000
      0.001227      -0.015300       0.000000
      0.001237      -0.016663       0.000000
      0.002277      -0.016771       0.000000
      0.002269      -0.015398       0.000000
      0.000196      -0.016556       0.000000
      0.000208      -0.017908       0.000000
      0.001248      -0.018025       0.000000
      0.001237      -0.016663       0.000000
      0.000208      -0.017908       0.000000
      0.000221      -0.019259       0.000000
      0.001259      -0.019384       0.000000
      0.001248      -0.018025       0.000000
      0.001237      -0.016663       0.000000
      0.001248      -0.018025       0.000000
      0.002286      -0.018141       0.000000
      0.002277      -0.016771       0.000000
      0.001248      -0.018025       0.000000
      0.001259      -0.019384       0.000000
      0.002296      -0.019509       0.000000
      0.002286      -0.018141       0.000000
      0.000221      -0.019259       0.000000
      0.000235      -0.020607       0.000000
      0.001271      -0.020741       0.000000
      0.001259      -0.019384       0.000000
      0.000235      -0.020607       0.000000
      0.000249      -0.021952       0.000000
      0.001284      -0.022095       0.000000
      0.001271      -0.020741       0.000000
      0.001259      -0.019384       0.000000
      0.001271      -0.020741       0.000000
      0.002307      -0.020874       0.000000
      0.002296      -0.019509       0.000000
      0.001271      -0.020741       0.000000
      0.001284      -0.022095       0.000000
      0.002318      -0.022237       0.000000
      0.002307      -0.020874       0.000000
      0.000249      -0.021952       0.000000
      0.000265      -0.023295       0.000000
      0.001297      -0.023445       0.000000
      0.001284      -0.022095       0.000000
      0.000265      -0.023295       0.000000
      0.000280      -0.024634       0.000000
      0.001311      -0.024792       0.000000
      0.001297      -0.023445       0.000000
      0.001284      -0.022095       0.000000
      0.001297      -0.023445       0.000000
      0.002329      -0.023596       0.000000
      0.002318      -0.022237       0.000000
      0.001297      -0.023445       0.000000
      0.001311      -0.024792       0.000000
      0.002341      -0.024951       0.000000
      0.002329      -0.023596       0.000000
      0.000280      -0.024634       0.000000
      0.000295      -0.025969       0.000000
      0.001323      -0.026136       0.000000
      0.001311      -0.024792       0.000000
      0.000295      -0.025969       0.000000
      0.000309      -0.027302       0.000000
      0.001336      -0.027476       0.000000
      0.001323      -0.026136       0.000000
      0.001311      -0.024792       0.000000
      0.001323      -0.026136       0.000000
      0.002353      -0.026303       0.000000
      0.002341      -0.024951       0.000000
      0.001323      -0.026136       0.000000
      0.001336      -0.027476       0.000000
      0.002365      -0.027651       0.000000
      0.002353      -0.026303       0.000000
      0.000309      -0.027302       0.000000
      0.000319      -0.028632       0.000000
      0.001346      -0.028814       0.000000
      0.001336      -0.027476       0.000000
      0.000319      -0.028632       0.000000
      0.000326      -0.029961       0.000000
      0.001353      -0.030151       0.000000
      0.001346      -0.028814       0.000000
      0.001336      -0.027476       0.000000
      0.001346      -0.028814       0.000000
      0.002376      -0.028996       0.000000
      0.002365      -0.027651       0.000000
      0.001346      -0.028814       0.000000
      0.001353      -0.030151       0.000000
      0.002386      -0.030340       0.000000
      0.002376      -0.028996       0.000000
      0.000326      -0.029961       0.000000
      0.000328      -0.031294       0.000000
      0.001357      -0.031491       0.000000
      0.001353      -0.030151       0.000000
      0.000328      -0.031294       0.000000
      0.000328      -0.032631       0.000000
      0.001358      -0.032838       0.000000
      0.001357      -0.031491       0.000000
      0.001353      -0.030151       0.000000
      0.001357      -0.031491       0.000000
      0.002392      -0.031687       0.000000
      0.002386      -0.030340       0.000000
      0.001357      -0.031491       0.000000
      0.001358      -0.032838       0.000000
      0.002393      -0.033045       0.000000
      0.002392      -0.031687       0.000000
      0.002218      -0.000160       0.000000
      0.002225      -0.001566       0.000000
      0.003278      -0.001582       0.000000
      0.003272      -0.000180       0.000000
      0.002225      -0.001566       0.000000
      0.002224      -0.002969       0.000000
      0.003278      -0.002987       0.000000
      0.003278      -0.001582       0.000000
      0.003272      -0.000180       0.000000
      0.003278      -0.001582       0.000000
      0.004327      -0.001598       0.000000
      0.004321      -0.000195       0.000000
      0.003278      -0.001582       0.000000
      0.003278      -0.002987       0.000000
      0.004328      -0.003007       0.000000
      0.004327      -0.001598       0.000000
      0.002224      -0.002969       0.000000
      0.002225      -0.004361       0.000000
      0.003278      -0.004387       0.000000
      0.003278      -0.002987       0.000000
      0.002225      -0.004361       0.000000
      0.002228      -0.005747       0.000000
      0.003278      -0.005783       0.000000
      0.003278      -0.004387       0.000000
      0.003278      -0.002987       0.000000
      0.003278      -0.004387       0.000000
      0.004327      -0.004414       0.000000
      0.004328      -0.003007       0.000000
      0.003278      -0.004387       0.000000
      0.003278      -0.005783       0.000000
      0.004327      -0.005818       0.000000
      0.004327      -0.004414       0.000000
      0.002228      -0.005747       0.000000
      0.002231      -0.007131       0.000000
      0.003280      -0.007175       0.000000
      0.003278      -0.005783       0.000000
      0.002231      -0.007131       0.000000
      0.002236      -0.008512       0.000000
      0.003283      -0.008566       0.000000
      0.003280      -0.007175       0.000000
      0.003278      -0.005783       0.000000
      0.003280      -0.007175       0.000000
      0.004328      -0.007219       0.000000
      0.004327      -0.005818       0.000000
      0.003280      -0.007175       0.000000
      0.003283      -0.008566       0.000000
      0.004330      -0.008619       0.000000
      0.004328      -0.007219       0.000000
      0.002236      -0.008512       0.000000
      0.002241      -0.009892       0.000000
      0.003287      -0.009955       0.000000
      0.003283      -0.008566       0.000000
      0.002241      -0.009892       0.000000
      0.002247      -0.011271       0.000000
      0.003292      -0.011342       0.000000
      0.003287      -0.009955       0.000000
      0.003283      -0.008566       0.000000
      0.003287      -0.009955       0.000000
      0.004332      -0.010017       0.000000
      0.004330      -0.008619       0.000000
      0.003287      -0.009955       0.000000
      0.003292      -0.011342       0.000000
      0.004335      -0.011413       0.000000
      0.004332      -0.010017       0.000000
      0.002247      -0.011271       0.000000
      0.002254      -0.012648       0.000000
      0.003297      -0.012729       0.000000
      0.003292      -0.011342       0.000000
      0.002254      -0.012648       0.000000
      0.002261      -0.014024       0.000000
      0.003303      -0.014113       0.000000
      0.003297      -0.012729       0.000000
      0.003292      -0.011342       0.000000
      0.003297      -0.012729       0.000000
      0.004339      -0.012808       0.000000
      0.004335      -0.011413       0.000000
      0.003297      -0.012729       0.000000
      0.003303      -0.014113       0.000000
      0.004344      -0.014202       0.000000
      0.004339      -0.012808       0.000000
      0.002261      -0.014024       0.000000
      0.002269      -0.015398       0.000000
      0.003309      -0.015496       0.000000
      0.003303      -0.014113       0.000000
      0.002269      -0.015398       0.000000
      0.002277      -0.016771       0.000000
      0.003316      -0.016877       0.000000
      0.003309      -0.015496       0.000000
      0.003303      -0.014113       0.000000
      0.003309      -0.015496       0.000000
      0.004349      -0.015594       0.000000
      0.004344      -0.014202       0.000000
      0.003309      -0.015496       0.000000
      0.003316      -0.016877       0.000000
      0.004354      -0.016984       0.000000
      0.004349      -0.015594       0.000000
      0.002277      -0.016771       0.000000
      0.002286      -0.018141       0.000000
      0.003324      -0.018256       0.000000
      0.003316      -0.016877       0.000000
      0.002286      -0.018141       0.000000
      0.002296      -0.019509       0.000000
      0.003332      -0.019633       0.000000
      0.003324      -0.018256       0.000000
      0.003316      -0.016877       0.000000
      0.003324      -0.018256       0.000000
      0.004361      -0.018371       0.000000
      0.004354      -0.016984       0.000000
      0.003324      -0.018256       0.000000
      0.003332      -0.019633       0.000000
      0.004367      -0.019757       0.000000
      0.004361      -0.018371       0.000000
      0.002296      -0.019509       0.000000
      0.002307      -0.020874       0.000000
      0.003341      -0.021007       0.000000
      0.003332      -0.019633       0.000000
      0.002307      -0.020874       0.000000
      0.002318      -0.022237       0.000000
      0.003351      -0.022378       0.000000
      0.003341      -0.021007       0.000000
      0.003332      -0.019633       0.000000
      0.003341      -0.021007       0.000000
      0.004375      -0.021140       0.000000
      0.004367      -0.019757       0.000000
      0.003341      -0.021007       0.000000
      0.003351      -0.022378       0.000000
      0.004383      -0.022519       0.000000
      0.004375      -0.021140       0.000000
      0.002318      -0.022237       0.000000
      0.002329      -0.023596       0.000000
      0.003361      -0.023746       0.000000
      0.003351      -0.022378       0.000000
      0.002329      -0.023596       0.000000
      0.002341      -0.024951       0.000000
      0.003372      -0.025110       0.000000
      0.003361      -0.023746       0.000000
      0.003351      -0.022378       0.000000
      0.003361      -0.023746       0.000000
      0.004392      -0.023896       0.000000
      0.004383      -0.022519       0.000000
      0.003361      -0.023746       0.000000
      0.003372      -0.025110       0.000000
      0.004402      -0.025269       0.000000
      0.004392      -0.023896       0.000000
      0.002341      -0.024951       0.000000
      0.002353      -0.026303       0.000000
      0.003383      -0.026470       0.000000
      0.003372      -0.025110       0.000000
      0.002353      -0.026303       0.000000
      0.002365      -0.027651       0.000000
      0.003395      -0.027826       0.000000
      0.003383      -0.026470       0.000000
      0.003372      -0.025110       0.000000
      0.003383      -0.026470       0.000000
      0.004413      -0.026638       0.000000
      0.004402      -0.025269       0.000000
      0.003383      -0.026470       0.000000
      0.003395      -0.027826       0.000000
      0.004426      -0.028003       0.000000
      0.004413      -0.026638       0.000000
      0.002365      -0.027651       0.000000
      0.002376      -0.028996       0.000000
      0.003408      -0.029179       0.000000
      0.003395      -0.027826       0.000000
      0.002376      -0.028996       0.000000
      0.002386      -0.030340       0.000000
      0.003421      -0.030531       0.000000
      0.003408      -0.029179       0.000000
      0.003395      -0.027826       0.000000
      0.003408      -0.029179       0.000000
      0.004440      -0.029364       0.000000
      0.004426      -0.028003       0.000000
      0.003408      -0.029179       0.000000
      0.003421      -0.030531       0.000000
      0.004457      -0.030723       0.000000
      0.004440      -0.029364       0.000000
      0.002386      -0.030340       0.000000
      0.002389      -0.031013       0.000000
      0.002908      -0.031109       0.000000
      0.002903      -0.030435       0.000000
      0.002389      -0.031013       0.000000
      0.002392      -0.031687       0.000000
      0.002911      -0.031785       0.000000
      0.002908      -0.031109       0.000000
      0.002903      -0.030435       0.000000
      0.002908      -0.031109       0.000000
      0.003427      -0.031206       0.000000
      0.003421      -0.030531       0.000000
      0.002908      -0.031109       0.000000
      0.002911      -0.031785       0.000000
      0.003432      -0.031883       0.000000
      0.003427      -0.031206       0.000000
      0.002392      -0.031687       0.000000
      0.002393      -0.032364       0.000000
      0.002913      -0.032464       0.000000
      0.002911      -0.031785       0.000000
      0.002393      -0.032364       0.000000
      0.002393      -0.033045       0.000000
      0.002912      -0.033148       0.000000
      0.002913      -0.032464       0.000000
      0.002911      -0.031785       0.000000
      0.002913      -0.032464       0.000000
      0.003435      -0.032563       0.000000
      0.003432      -0.031883       0.000000
      0.002913      -0.032464       0.000000
      0.002912      -0.033148       0.000000
      0.003434      -0.033250       0.000000
      0.003435      -0.032563       0.000000
      0.003421      -0.030531       0.000000
      0.003427      -0.031206       0.000000
      0.003947      -0.031304       0.000000
      0.003939      -0.030627       0.000000
      0.003427      -0.031206       0.000000
      0.003432      -0.031883       0.000000
      0.003955      -0.031981       0.000000
      0.003947      -0.031304       0.000000
      0.003939      -0.030627       0.000000
      0.003947      -0.031304       0.000000
      0.004466      -0.031402       0.000000
      0.004457      -0.030723       0.000000
      0.003947      -0.031304       0.000000
      0.003955      -0.031981       0.000000
      0.004477      -0.032081       0.000000
      0.004466      -0.031402       0.000000
      0.003432      -0.031883       0.000000
      0.003434      -0.032222       0.000000
      0.003696      -0.032271       0.000000
      0.003693      -0.031932       0.000000
      0.003434      -0.032222       0.000000
      0.003435      -0.032563       0.000000
      0.003698      -0.032612       0.000000
      0.003696      -0.032271       0.000000
      0.003693      -0.031932       0.000000
      0.003696      -0.032271       0.000000
      0.003958      -0.032321       0.000000
      0.003955      -0.031981       0.000000
      0.003696      -0.032271       0.000000
      0.003698      -0.032612       0.000000
      0.003961      -0.032661       0.000000
      0.003958      -0.032321       0.000000
      0.003435      -0.032563       0.000000
      0.003435      -0.032905       0.000000
      0.003698      -0.032954       0.000000
      0.003698      -0.032612       0.000000
      0.003435      -0.032905       0.000000
      0.003434      -0.033250       0.000000
      0.003697      -0.033301       0.000000
      0.003698      -0.032954       0.000000
      0.003698      -0.032612       0.000000
      0.003698      -0.032954       0.000000
      0.003962      -0.033003       0.000000