# vtk DataFile Version 2.0
time_10.vtk
ASCII
DATASET UNSTRUCTURED_GRID
POINTS  3648 float
      0.000000       0.000000       0.000000
      0.162500       0.000000       0.000000
      0.163542       0.125000       0.000000
     -0.000000       0.125000       0.000000
      0.162500       0.000000       0.000000
      0.325000       0.000000       0.000000
      0.327083       0.125000       0.000000
      0.163542       0.125000       0.000000
     -0.000000       0.125000       0.000000
      0.163542       0.125000       0.000000
      0.164583       0.250000       0.000000
      0.000000       0.250000       0.000000
      0.163542       0.125000       0.000000
      0.327083       0.125000       0.000000
      0.329167       0.250000       0.000000
      0.164583       0.250000       0.000000
      0.325000       0.000000       0.000000
      0.487500       0.000000       0.000000
      0.490625       0.125000       0.000000
      0.327083       0.125000       0.000000
      0.487500       0.000000       0.000000
      0.650000       0.000000       0.000000
      0.654167       0.125000       0.000000
      0.490625       0.125000       0.000000
      0.327083       0.125000       0.000000
      0.490625       0.125000       0.000000
      0.493750       0.250000       0.000000
      0.329167       0.250000       0.000000
      0.490625       0.125000       0.000000
      0.654167       0.125000       0.000000
      0.658333       0.250000       0.000000
      0.493750       0.250000       0.000000
      0.650000       0.000000       0.000000
      0.812500       0.000000       0.000000
      0.817708       0.125000       0.000000
      0.654167       0.125000       0.000000
      0.812500       0.000000       0.000000
      0.975000       0.000000       0.000000
      0.981250       0.125000       0.000000
      0.817708       0.125000       0.000000
      0.654167       0.125000       0.000000
      0.817708       0.125000       0.000000
      0.822917       0.250000       0.000000
      0.658333       0.250000       0.000000
      0.817708       0.125000       0.000000
      0.981250       0.125000       0.000000
      0.987500       0.250000       0.000000
      0.822917       0.250000       0.000000
      0.975000       0.000000       0.000000
      1.137500      -0.000000       0.000000
      1.144792       0.125000       0.000000
      0.981250       0.125000       0.000000
      1.137500      -0.000000       0.000000
      1.300000       0.000000       0.000000
      1.308333       0.125000       0.000000
      1.144792       0.125000       0.000000
      0.981250       0.125000       0.000000
      1.144792       0.125000       0.000000
      1.152083       0.250000       0.000000
      0.987500       0.250000       0.000000
      1.144792       0.125000       0.000000
      1.308333       0.125000       0.000000
      1.316667       0.250000       0.000000
      1.152083       0.250000       0.000000
      1.300000       0.000000       0.000000
      1.462500       0.000000       0.000000
      1.471875       0.125000       0.000000
      1.308333       0.125000       0.000000
      1.462500       0.000000       0.000000
      1.625000       0.000000       0.000000
      1.635417       0.125000       0.000000
      1.471875       0.125000       0.000000
      1.308333       0.125000       0.000000
      1.471875       0.125000       0.000000
      1.481250       0.250000       0.000000
      1.316667       0.250000       0.000000
      1.471875       0.125000       0.000000
      1.635417       0.125000       0.000000
      1.645833       0.250000       0.000000
      1.481250       0.250000       0.000000
      1.625000       0.000000       0.000000
      1.787500      -0.000000       0.000000
      1.798958       0.125000       0.000000
      1.635417       0.125000       0.000000
      1.787500      -0.000000       0.000000
      1.950000       0.000000       0.000000
      1.962500       0.125000       0.000000
      1.798958       0.125000       0.000000
      1.635417       0.125000       0.000000
      1.798958       0.125000       0.000000
      1.810417       0.250000       0.000000
      1.645833       0.250000       0.000000
      1.798958       0.125000       0.000000
      1.962500       0.125000       0.000000
      1.975000       0.250000       0.000000
      1.810417       0.250000       0.000000
      1.950000       0.000000       0.000000
      2.112500      -0.000000       0.000000
      2.126042       0.125000       0.000000
      1.962500       0.125000       0.000000
      2.112500      -0.000000       0.000000
      2.275000       0.000000       0.000000
      2.289583       0.125000       0.000000
      2.126042       0.125000       0.000000
      1.962500       0.125000       0.000000
      2.126042       0.125000       0.000000
      2.139583       0.250000       0.000000
      1.975000       0.250000       0.000000
      2.126042       0.125000       0.000000
      2.289583       0.125000       0.000000
      2.304167       0.250000       0.000000
      2.139583       0.250000       0.000000
      2.275000       0.000000       0.000000
      2.437500       0.000000       0.000000
      2.453125       0.125000       0.000000
      2.289583       0.125000       0.000000
      2.437500       0.000000       0.000000
      2.600000       0.000000       0.000000
      2.616667       0.125000       0.000000
      2.453125       0.125000       0.000000
      2.289583       0.125000       0.000000
      2.453125       0.125000       0.000000
      2.468750       0.250000       0.000000
      2.304167       0.250000       0.000000
      2.453125       0.125000       0.000000
      2.616667       0.125000       0.000000
      2.633333       0.250000       0.000000
      2.468750       0.250000       0.000000
      2.600000       0.000000       0.000000
      2.762500       0.000000       0.000000
      2.780208       0.125000       0.000000
      2.616667       0.125000       0.000000
      2.762500       0.000000       0.000000
      2.925000       0.000000       0.000000
      2.943750       0.125000       0.000000
      2.780208       0.125000       0.000000
      2.616667       0.125000       0.000000
      2.780208       0.125000       0.000000
      2.797917       0.250000       0.000000
      2.633333       0.250000       0.000000
      2.780208       0.125000       0.000000
      2.943750       0.125000       0.000000
      2.962500       0.250000       0.000000
      2.797917       0.250000       0.000000
      2.925000       0.000000       0.000000
      3.087500       0.000000       0.000000
      3.107292       0.125000       0.000000
      2.943750       0.125000       0.000000
      3.087500       0.000000       0.000000
      3.250000       0.000000       0.000000
      3.270833       0.125000       0.000000
      3.107292       0.125000       0.000000
      2.943750       0.125000       0.000000
      3.107292       0.125000       0.000000
      3.127083       0.250000       0.000000
      2.962500       0.250000       0.000000
      3.107292       0.125000       0.000000
      3.270833       0.125000       0.000000
      3.291667       0.250000       0.000000
      3.127083       0.250000       0.000000
      3.250000       0.000000       0.000000
      3.412500       0.000000       0.000000
      3.434375       0.125000       0.000000
      3.270833       0.125000       0.000000
      3.412500       0.000000       0.000000
      3.575000       0.000000       0.000000
      3.597917       0.125000       0.000000
      3.434375       0.125000       0.000000
      3.270833       0.125000       0.000000
      3.434375       0.125000       0.000000
      3.456250       0.250000       0.000000
      3.291667       0.250000       0.000000
      3.434375       0.125000       0.000000
      3.597917       0.125000       0.000000
      3.620833       0.250000       0.000000
      3.456250       0.250000       0.000000
      3.575000       0.000000       0.000000
      3.737500      -0.000000       0.000000
      3.761458       0.125000       0.000000
      3.597917       0.125000       0.000000
      3.737500      -0.000000       0.000000
      3.900000       0.000000       0.000000
      3.925000       0.125000       0.000000
      3.761458       0.125000       0.000000
      3.597917       0.125000       0.000000
      3.761458       0.125000       0.000000
      3.785417       0.250000       0.000000
      3.620833       0.250000       0.000000
      3.761458       0.125000       0.000000
      3.925000       0.125000       0.000000
      3.950000       0.250000       0.000000
      3.785417       0.250000       0.000000
      0.000000       0.250000       0.000000
      0.164583       0.250000       0.000000
      0.165625       0.375000       0.000000
     -0.000000       0.375000       0.000000
      0.164583       0.250000       0.000000
      0.329167       0.250000       0.000000
      0.331250       0.375000       0.000000
      0.165625       0.375000       0.000000
     -0.000000       0.375000       0.000000
      0.165625       0.375000       0.000000
      0.166667       0.500000       0.000000
      0.000000       0.500000       0.000000
      0.165625       0.375000       0.000000
      0.331250       0.375000       0.000000
      0.333333       0.500000       0.000000
      0.166667       0.500000       0.000000
      0.329167       0.250000       0.000000
      0.493750       0.250000       0.000000
      0.496875       0.375000       0.000000
      0.331250       0.375000       0.000000
      0.493750       0.250000       0.000000
      0.658333       0.250000       0.000000
      0.662500       0.375000       0.000000
      0.496875       0.375000       0.000000
      0.331250       0.375000       0.000000
      0.496875       0.375000       0.000000
      0.500000       0.500000       0.000000
      0.333333       0.500000       0.000000
[...]
POINT_DATA  3648
VECTORS U float 
      0.000000       0.000000       0.000000
      0.000258      -0.000794       0.000000
      0.000539      -0.000823       0.000000
      0.000515      -0.000417       0.000000
      0.000258      -0.000794       0.000000
      0.000332      -0.001102       0.000000
      0.000546      -0.001119       0.000000
      0.000539      -0.000823       0.000000
      0.000515      -0.000417       0.000000
      0.000539      -0.000823       0.000000
      0.000754      -0.000834       0.000000
      0.000730      -0.000534       0.000000
      0.000539      -0.000823       0.000000
      0.000546      -0.001119       0.000000
      0.000750      -0.001123       0.000000
      0.000754      -0.000834       0.000000
      0.000332      -0.001102       0.000000
      0.000376      -0.001354       0.000000
      0.000565      -0.001368       0.000000
      0.000546      -0.001119       0.000000
      0.000376      -0.001354       0.000000
      0.000409      -0.001586       0.000000
      0.000585      -0.001600       0.000000
      0.000565      -0.001368       0.000000
      0.000546      -0.001119       0.000000
      0.000565      -0.001368       0.000000
      0.000752      -0.001376       0.000000
      0.000750      -0.001123       0.000000
      0.000565      -0.001368       0.000000
      0.000585      -0.001600       0.000000
      0.000761      -0.001610       0.000000
      0.000752      -0.001376       0.000000
      0.000409      -0.001586       0.000000
      0.000437      -0.001807       0.000000
      0.000606      -0.001822       0.000000
      0.000585      -0.001600       0.000000
      0.000437      -0.001807       0.000000
      0.000464      -0.002022       0.000000
      0.000628      -0.002038       0.000000
      0.000606      -0.001822       0.000000
      0.000585      -0.001600       0.000000
      0.000606      -0.001822       0.000000
      0.000774      -0.001834       0.000000
      0.000761      -0.001610       0.000000
      0.000606      -0.001822       0.000000
      0.000628      -0.002038       0.000000
      0.000790      -0.002052       0.000000
      0.000774      -0.001834       0.000000
      0.000464      -0.002022       0.000000
      0.000491      -0.002231       0.000000
      0.000650      -0.002249       0.000000
      0.000628      -0.002038       0.000000
      0.000491      -0.002231       0.000000
      0.000518      -0.002436       0.000000
      0.000674      -0.002456       0.000000
      0.000650      -0.002249       0.000000
      0.000628      -0.002038       0.000000
      0.000650      -0.002249       0.000000
      0.000807      -0.002265       0.000000
      0.000790      -0.002052       0.000000
      0.000650      -0.002249       0.000000
      0.000674      -0.002456       0.000000
      0.000827      -0.002473       0.000000
      0.000807      -0.002265       0.000000
      0.000518      -0.002436       0.000000
      0.000548      -0.002637       0.000000
      0.000700      -0.002657       0.000000
      0.000674      -0.002456       0.000000
      0.000548      -0.002637       0.000000
      0.000579      -0.002832       0.000000
      0.000728      -0.002854       0.000000
      0.000700      -0.002657       0.000000
      0.000674      -0.002456       0.000000
      0.000700      -0.002657       0.000000
      0.000849      -0.002677       0.000000
      0.000827      -0.002473       0.000000
      0.000700      -0.002657       0.000000
      0.000728      -0.002854       0.000000
      0.000872      -0.002876       0.000000
      0.000849      -0.002677       0.000000
      0.000579      -0.002832       0.000000
      0.000613      -0.003022       0.000000
      0.000757      -0.003046       0.000000
      0.000728      -0.002854       0.000000
      0.000613      -0.003022       0.000000
      0.000650      -0.003206       0.000000
      0.000790      -0.003232       0.000000
      0.000757      -0.003046       0.000000
      0.000728      -0.002854       0.000000
      0.000757      -0.003046       0.000000
      0.000898      -0.003069       0.000000
      0.000872      -0.002876       0.000000
      0.000757      -0.003046       0.000000
      0.000790      -0.003232       0.000000
      0.000926      -0.003256       0.000000
      0.000898      -0.003069       0.000000
      0.000650      -0.003206       0.000000
      0.000689      -0.003384       0.000000
      0.000824      -0.003411       0.000000
      0.000790      -0.003232       0.000000
      0.000689      -0.003384       0.000000
      0.000731      -0.003554       0.000000
      0.000861      -0.003582       0.000000
      0.000824      -0.003411       0.000000
      0.000790      -0.003232       0.000000
      0.000824      -0.003411       0.000000
      0.000956      -0.003436       0.000000
      0.000926      -0.003256       0.000000
      0.000824      -0.003411       0.000000
      0.000861      -0.003582       0.000000
      0.000987      -0.003609       0.000000
      0.000956      -0.003436       0.000000
      0.000731      -0.003554       0.000000
      0.000775      -0.003717       0.000000
      0.000900      -0.003746       0.000000
      0.000861      -0.003582       0.000000
      0.000775      -0.003717       0.000000
      0.000821      -0.003871       0.000000
      0.000940      -0.003901       0.000000
      0.000900      -0.003746       0.000000
      0.000861      -0.003582       0.000000
      0.000900      -0.003746       0.000000
      0.001021      -0.003773       0.000000
      0.000987      -0.003609       0.000000
      0.000900      -0.003746       0.000000
      0.000940      -0.003901       0.000000
      0.001056      -0.003929       0.000000
      0.001021      -0.003773       0.000000
      0.000821      -0.003871       0.000000
      0.000868      -0.004016       0.000000
      0.000981      -0.004046       0.000000
      0.000940      -0.003901       0.000000
      0.000868      -0.004016       0.000000
      0.000914      -0.004153       0.000000
      0.001021      -0.004182       0.000000
      0.000981      -0.004046       0.000000
      0.000940      -0.003901       0.000000
      0.000981      -0.004046       0.000000
      0.001093      -0.004075       0.000000
      0.001056      -0.003929       0.000000
      0.000981      -0.004046       0.000000
      0.001021      -0.004182       0.000000
      0.001130      -0.004210       0.000000
      0.001093      -0.004075       0.000000
      0.000914      -0.004153       0.000000
      0.000957      -0.004280       0.000000
      0.001060      -0.004308       0.000000
      0.001021      -0.004182       0.000000
      0.000957      -0.004280       0.000000
      0.000996      -0.004400       0.000000
      0.001096      -0.004426       0.000000
      0.001060      -0.004308       0.000000
      0.001021      -0.004182       0.000000
      0.001060      -0.004308       0.000000
      0.001168      -0.004336       0.000000
      0.001130      -0.004210       0.000000
      0.001060      -0.004308       0.000000
      0.001096      -0.004426       0.000000
      0.001205      -0.004454       0.000000
      0.001168      -0.004336       0.000000
      0.000996      -0.004400       0.000000
      0.001024      -0.004517       0.000000
      0.001126      -0.004540       0.000000
      0.001096      -0.004426       0.000000
      0.001024      -0.004517       0.000000
      0.001040      -0.004637       0.000000
      0.001148      -0.004658       0.000000
      0.001126      -0.004540       0.000000
      0.001096      -0.004426       0.000000
      0.001126      -0.004540       0.000000
      0.001241      -0.004566       0.000000
      0.001205      -0.004454       0.000000
      0.001126      -0.004540       0.000000
      0.001148      -0.004658       0.000000
      0.001271      -0.004681       0.000000
      0.001241      -0.004566       0.000000
      0.001040      -0.004637       0.000000
      0.001041      -0.004772       0.000000
      0.001158      -0.004793       0.000000
      0.001148      -0.004658       0.000000
      0.001041      -0.004772       0.000000
      0.001039      -0.004925       0.000000
      0.001159      -0.004951       0.000000
      0.001158      -0.004793       0.000000
      0.001148      -0.004658       0.000000
      0.001158      -0.004793       0.000000
      0.001290      -0.004812       0.000000
      0.001271      -0.004681       0.000000
      0.001158      -0.004793       0.000000
      0.001159      -0.004951       0.000000
      0.001292      -0.004981       0.000000
      0.001290      -0.004812       0.000000
      0.000730      -0.000534       0.000000
      0.000754      -0.000834       0.000000
      0.000932      -0.000859       0.000000
      0.000910      -0.000602       0.000000
      0.000754      -0.000834       0.000000
      0.000750      -0.001123       0.000000
      0.000932      -0.001129       0.000000
      0.000932      -0.000859       0.000000
      0.000910      -0.000602       0.000000
      0.000932      -0.000859       0.000000
      0.001094      -0.000885       0.000000
      0.001077      -0.000650       0.000000
      0.000932      -0.000859       0.000000
      0.000932      -0.001129       0.000000
      0.001099      -0.001138       0.000000
      0.001094      -0.000885       0.000000
      0.000750      -0.001123       0.000000
      0.000752      -0.001376       0.000000
      0.000930      -0.001380       0.000000
      0.000932      -0.001129       0.000000
      0.000752      -0.001376       0.000000
      0.000761      -0.001610       0.000000
      0.000932      -0.001617       0.000000
      0.000930      -0.001380       0.000000
      0.000932      -0.001129       0.000000
      0.000930      -0.001380       0.000000
      0.001097      -0.001386       0.000000
      0.001099      -0.001138       0.000000
      0.000930      -0.001380       0.000000
      0.000932      -0.001617       0.000000
      0.001096      -0.001623       0.000000
      0.001097      -0.001386       0.000000
      0.000761      -0.001610       0.000000
      0.000774      -0.001834       0.000000
      0.000939      -0.001844       0.000000
      0.000932      -0.001617       0.000000
      0.000774      -0.001834       0.000000
      0.000790      -0.002052       0.000000
      0.000949      -0.002064       0.000000
      0.000939      -0.001844       0.000000
      0.000932      -0.001617       0.000000
      0.000939      -0.001844       0.000000
      0.001099      -0.001852       0.000000
      0.001096      -0.001623       0.000000
      0.000939      -0.001844       0.000000
      0.000949      -0.002064       0.000000
      0.001105      -0.002074       0.000000
      0.001099      -0.001852       0.000000
      0.000790      -0.002052       0.000000
      0.000807      -0.002265       0.000000
      0.000962      -0.002279       0.000000
      0.000949      -0.002064       0.000000
      0.000807      -0.002265       0.000000
      0.000827      -0.002473       0.000000
      0.000977      -0.002489       0.000000
      0.000962      -0.002279       0.000000
      0.000949      -0.002064       0.000000
      0.000962      -0.002279       0.000000
      0.001113      -0.002291       0.000000
      0.001105      -0.002074       0.000000
      0.000962      -0.002279       0.000000
      0.000977      -0.002489       0.000000
      0.001124      -0.002504       0.000000
      0.001113      -0.002291       0.000000
      0.000827      -0.002473       0.000000
      0.000849      -0.002677       0.000000
      0.000994      -0.002695       0.000000
      0.000977      -0.002489       0.000000
      0.000849      -0.002677       0.000000
      0.000872      -0.002876       0.000000
      0.001014      -0.002895       0.000000
      0.000994      -0.002695       0.000000
      0.000977      -0.002489       0.000000
      0.000994      -0.002695       0.000000
      0.001137      -0.002711       0.000000
      0.001124      -0.002504       0.000000
      0.000994      -0.002695       0.000000
      0.001014      -0.002895       0.000000
      0.001152      -0.002913       0.000000
      0.001137      -0.002711       0.000000
      0.000872      -0.002876       0.000000
      0.000898      -0.003069       0.000000
      0.001035      -0.003090       0.000000
      0.001014      -0.002895       0.000000
      0.000898      -0.003069       0.000000
      0.000926      -0.003256       0.000000
      0.001058      -0.003279       0.000000
      0.001035      -0.003090       0.000000
      0.001014      -0.002895       0.000000
      0.001035      -0.003090       0.000000
      0.001169      -0.003110       0.000000
      0.001152      -0.002913       0.000000
      0.001035      -0.003090       0.000000
      0.001058      -0.003279       0.000000
      0.001188      -0.003300       0.000000
      0.001169      -0.003110       0.000000
      0.000926      -0.003256       0.000000
      0.000956      -0.003436       0.000000
      0.001083      -0.003460       0.000000
      0.001058      -0.003279       0.000000
      0.000956      -0.003436       0.000000
      0.000987      -0.003609       0.000000
      0.001111      -0.003634       0.000000
      0.001083      -0.003460       0.000000
      0.001058      -0.003279       0.000000
      0.001083      -0.003460       0.000000
      0.001208      -0.003483       0.000000
      0.001188      -0.003300       0.000000
      0.001083      -0.003460       0.000000
      0.001111      -0.003634       0.000000
      0.001231      -0.003658       0.000000
      0.001208      -0.003483       0.000000
      0.000987      -0.003609       0.000000
      0.001021      -0.003773       0.000000
      0.001140      -0.003800       0.000000
      0.001111      -0.003634       0.000000
      0.001021      -0.003773       0.000000
      0.001056      -0.003929       0.000000
      0.001171      -0.003956       0.000000
      0.001140      -0.003800       0.000000
      0.001111      -0.003634       0.000000
      0.001140      -0.003800       0.000000
      0.001255      -0.003825       0.000000
      0.001231      -0.003658       0.000000
      0.001140      -0.003800       0.000000
      0.001171      -0.003956       0.000000
      0.001282      -0.003983       0.000000
      0.001255      -0.003825       0.000000
      0.001056      -0.003929       0.000000
      0.001093      -0.004075       0.000000
      0.001204      -0.004103       0.000000
      0.001171      -0.003956       0.000000
      0.001093      -0.004075       0.000000
      0.001130      -0.004210       0.000000
      0.001239      -0.004239       0.000000
      0.001204      -0.004103       0.000000
      0.001171      -0.003956       0.000000
      0.001204      -0.004103       0.000000
      0.001312      -0.004131       0.000000
      0.001282      -0.003983       0.000000
      0.001204      -0.004103       0.000000
      0.001239      -0.004239       0.000000
      0.001346      -0.004270       0.000000
      0.001312      -0.004131       0.000000
      0.001130      -0.004210       0.000000
      0.001168      -0.004336       0.000000
      0.001277      -0.004366       0.000000
      0.001239      -0.004239       0.000000
      0.001168      -0.004336       0.000000
      0.001205      -0.004454       0.000000
      0.001318      -0.004484       0.000000
      0.001277      -0.004366       0.000000
      0.001239      -0.004239       0.000000
      0.001277      -0.004366       0.000000
      0.001384      -0.004398       0.000000
      0.001346      -0.004270       0.000000
      0.001277      -0.004366       0.000000
      0.001318      -0.004484       0.000000
      0.001428      -0.004519       0.000000
      0.001384      -0.004398       0.000000
      0.001205      -0.004454       0.000000
      0.001241      -0.004566       0.000000
      0.001362      -0.004596       0.000000
      0.001318      -0.004484       0.000000
      0.001241      -0.004566       0.000000
      0.001271      -0.004681       0.000000
      0.001407      -0.004708       0.000000
      0.001362      -0.004596       0.000000
      0.001318      -0.004484       0.000000
      0.001362      -0.004596       0.000000
      0.001480      -0.004633       0.000000
      0.001428      -0.004519       0.000000
      0.001362      -0.004596       0.000000
      0.001407      -0.004708       0.000000
      0.001542      -0.004744       0.000000
      0.001480      -0.004633       0.000000
      0.001271      -0.004681       0.000000
      0.001283      -0.004744       0.000000
      0.001354      -0.004754       0.000000
      0.001338      -0.004694       0.000000
      0.001283      -0.004744       0.000000
      0.001290      -0.004812       0.000000
      0.001364      -0.004821       0.000000
      0.001354      -0.004754       0.000000
      0.001338      -0.004694       0.000000
      0.001354      -0.004754       0.000000
      0.001428      -0.004766       0.000000
      0.001407      -0.004708       0.000000
      0.001354      -0.004754       0.000000
      0.001364      -0.004821       0.000000
      0.001446      -0.004830       0.000000
      0.001428      -0.004766       0.000000
      0.001290      -0.004812       0.000000
      0.001292      -0.004891       0.000000
      0.001368      -0.004900       0.000000
      0.001364      -0.004821       0.000000
      0.001292      -0.004891       0.000000
      0.001292      -0.004981       0.000000
      0.001368      -0.004998       0.000000
      0.001368      -0.004900       0.000000
      0.001364      -0.004821       0.000000
      0.001368      -0.004900       0.000000
      0.001456      -0.004907       0.000000
      0.001446      -0.004830       0.000000
      0.001368      -0.004900       0.000000
      0.001368      -0.004998       0.000000
      0.001455      -0.005015       0.000000
      0.001456      -0.004907       0.000000
      0.001407      -0.004708       0.000000
      0.001428      -0.004766       0.000000
      0.001505      -0.004781       0.000000
      0.001476      -0.004725       0.000000
      0.001428      -0.004766       0.000000
      0.001446      -0.004830       0.000000
      0.001535      -0.004842       0.000000
      0.001505      -0.004781       0.000000
      0.001476      -0.004725       0.000000
      0.001505      -0.004781       0.000000
      0.001580      -0.004801       0.000000
      0.001542      -0.004744       0.000000
      0.001505      -0.004781       0.000000
      0.001535      -0.004842       0.000000
      0.001624      -0.004860       0.000000
      0.001580      -0.004801       0.000000
      0.001446      -0.004830       0.000000
      0.001452      -0.004866       0.000000
      0.001499      -0.004870       0.000000
      0.001490      -0.004835       0.000000
      0.001452      -0.004866       0.000000
      0.001456      -0.004907       0.000000
      0.001505      -0.004910       0.000000
      0.001499      -0.004870       0.000000
      0.001490      -0.004835       0.000000
      0.001499      -0.004870       0.000000
      0.001548      -0.004875       0.000000
      0.001535      -0.004842       0.000000
      0.001499      -0.004870       0.000000
      0.001505      -0.004910       0.000000
      0.001560      -0.004913       0.000000
      0.001548      -0.004875       0.000000
      0.001456      -0.004907       0.000000
      0.001456      -0.004956       0.000000
      0.001507      -0.004960       0.000000
      0.001505      -0.004910       0.000000
      0.001456      -0.004956       0.000000
      0.001455      -0.005015       0.000000
      0.001505      -0.005023       0.000000
      0.001507      -0.004960       0.000000
      0.001505      -0.004910       0.000000
      0.001507      -0.004960       0.000000
      0.001565      -0.004962       0.000000