# vtk DataFile Version 2.0
time_10.vtk
ASCII
DATASET UNSTRUCTURED_GRID
POINTS  3780 float
      0.000000       0.000000       0.000000
      0.162500       0.000000       0.000000
      0.163542       0.125000       0.000000
     -0.000000       0.125000       0.000000
      0.162500       0.000000       0.000000
      0.325000       0.000000       0.000000
      0.327083       0.125000       0.000000
      0.163542       0.125000       0.000000
     -0.000000       0.125000       0.000000
      0.163542       0.125000       0.000000
      0.164583       0.250000       0.000000
      0.000000       0.250000       0.000000
      0.163542       0.125000       0.000000
      0.327083       0.125000       0.000000
      0.329167       0.250000       0.000000
      0.164583       0.250000       0.000000
      0.325000       0.000000       0.000000
      0.487500       0.000000       0.000000
      0.490625       0.125000       0.000000
      0.327083       0.125000       0.000000
      0.487500       0.000000       0.000000
      0.650000       0.000000       0.000000
      0.654167       0.125000       0.000000
      0.490625       0.125000       0.000000
      0.327083       0.125000       0.000000
      0.490625       0.125000       0.000000
      0.493750       0.250000       0.000000
      0.329167       0.250000       0.000000
      0.490625       0.125000       0.000000
      0.654167       0.125000       0.000000
      0.658333       0.250000       0.000000
      0.493750       0.250000       0.000000
      0.650000       0.000000       0.000000
      0.812500       0.000000       0.000000
      0.817708       0.125000       0.000000
      0.654167       0.125000       0.000000
      0.812500       0.000000       0.000000
      0.975000       0.000000       0.000000
      0.981250       0.125000       0.000000
      0.817708       0.125000       0.000000
      0.654167       0.125000       0.000000
      0.817708       0.125000       0.000000
      0.822917       0.250000       0.000000
      0.658333       0.250000       0.000000
      0.817708       0.125000       0.000000
      0.981250       0.125000       0.000000
      0.987500       0.250000       0.000000
      0.822917       0.250000       0.000000
      0.975000       0.000000       0.000000
      1.137500      -0.000000       0.000000
      1.144792       0.125000       0.000000
      0.981250       0.125000       0.000000
      1.137500      -0.000000       0.000000
      1.300000       0.000000       0.000000
      1.308333       0.125000       0.000000
      1.144792       0.125000       0.000000
      0.981250       0.125000       0.000000
      1.144792       0.125000       0.000000
      1.152083       0.250000       0.000000
      0.987500       0.250000       0.000000
      1.144792       0.125000       0.000000
      1.308333       0.125000       0.000000
      1.316667       0.250000       0.000000
      1.152083       0.250000       0.000000
      1.300000       0.000000       0.000000
      1.462500       0.000000       0.000000
      1.471875       0.125000       0.000000
      1.308333       0.125000       0.000000
      1.462500       0.000000       0.000000
      1.625000       0.000000       0.000000
      1.635417       0.125000       0.000000
      1.471875       0.125000       0.000000
      1.308333       0.125000       0.000000
      1.471875       0.125000       0.000000
      1.481250       0.250000       0.000000
      1.316667       0.250000       0.000000
      1.471875       0.125000       0.000000
      1.635417       0.125000       0.000000
      1.645833       0.250000       0.000000
      1.481250       0.250000       0.000000
      1.625000       0.000000       0.000000
      1.787500      -0.000000       0.000000
      1.798958       0.125000       0.000000
      1.635417       0.125000       0.000000
      1.787500      -0.000000       0.000000
      1.950000       0.000000       0.000000
      1.962500       0.125000       0.000000
      1.798958       0.125000       0.000000
      1.635417       0.125000       0.000000
      1.798958       0.125000       0.000000
      1.810417       0.250000       0.000000
      1.645833       0.250000       0.000000
      1.798958       0.125000       0.000000
      1.962500       0.125000       0.000000
      1.975000       0.250000       0.000000
      1.810417       0.250000       0.000000
      1.950000       0.000000       0.000000
      2.112500      -0.000000       0.000000
      2.126042       0.125000       0.000000
      1.962500       0.125000       0.000000
      2.112500      -0.000000       0.000000
      2.275000       0.000000       0.000000
      2.289583       0.125000       0.000000
      2.126042       0.125000       0.000000
      1.962500       0.125000       0.000000
      2.126042       0.125000       0.000000
      2.139583       0.250000       0.000000
      1.975000       0.250000       0.000000
      2.126042       0.125000       0.000000
      2.289583       0.125000       0.000000
      2.304167       0.250000       0.000000
      2.139583       0.250000       0.000000
      2.275000       0.000000       0.000000
      2.437500       0.000000       0.000000
      2.453125       0.125000       0.000000
      2.289583       0.125000       0.000000
      2.437500       0.000000       0.000000
      2.600000       0.000000       0.000000
      2.616667       0.125000       0.000000
      2.453125       0.125000       0.000000
      2.289583       0.125000       0.000000
      2.453125       0.125000       0.000000
      2.468750       0.250000       0.000000
      2.304167       0.250000       0.000000
      2.453125       0.125000       0.000000
      2.616667       0.125000       0.000000
      2.633333       0.250000       0.000000
      2.468750       0.250000       0.000000
      2.600000       0.000000       0.000000
      2.762500       0.000000       0.000000
      2.780208       0.125000       0.000000
      2.616667       0.125000       0.000000
      2.762500       0.000000       0.000000
      2.925000       0.000000       0.000000
      2.943750       0.125000       0.000000
      2.780208       0.125000       0.000000
      2.616667       0.125000       0.000000
      2.780208       0.125000       0.000000
      2.797917       0.250000       0.000000
      2.633333       0.250000       0.000000
      2.780208       0.125000       0.000000
      2.943750       0.125000       0.000000
      2.962500       0.250000       0.000000
      2.797917       0.250000       0.000000
      2.925000       0.000000       0.000000
      3.087500       0.000000       0.000000
      3.107292       0.125000       0.000000
      2.943750       0.125000       0.000000
      3.087500       0.000000       0.000000
      3.250000       0.000000       0.000000
      3.270833       0.125000       0.000000
      3.107292       0.125000       0.000000
      2.943750       0.125000       0.000000
      3.107292       0.125000       0.000000
      3.127083       0.250000       0.000000
      2.962500       0.250000       0.000000
      3.107292       0.125000       0.000000
      3.270833       0.125000       0.000000
      3.291667       0.250000       0.000000
      3.127083       0.250000       0.000000
      3.250000       0.000000       0.000000
      3.412500       0.000000       0.000000
      3.434375       0.125000       0.000000
      3.270833       0.125000       0.000000
      3.412500       0.000000       0.000000
      3.575000       0.000000       0.000000
      3.597917       0.125000       0.000000
      3.434375       0.125000       0.000000
      3.270833       0.125000       0.000000
      3.434375       0.125000       0.000000
      3.456250       0.250000       0.000000
      3.291667       0.250000       0.000000
      3.434375       0.125000       0.000000
      3.597917       0.125000       0.000000
      3.620833       0.250000       0.000000
      3.456250       0.250000       0.000000
      3.575000       0.000000       0.000000
      3.737500      -0.000000       0.000000
      3.761458       0.125000       0.000000
      3.597917       0.125000       0.000000
      3.737500      -0.000000       0.000000
      3.900000       0.000000       0.000000
      3.925000       0.125000       0.000000
      3.761458       0.125000       0.000000
      3.597917       0.125000       0.000000
      3.761458       0.125000       0.000000
      3.785417       0.250000       0.000000
      3.620833       0.250000       0.000000
      3.761458       0.125000       0.000000
      3.925000       0.125000       0.000000
      3.950000       0.250000       0.000000
      3.785417       0.250000       0.000000
      0.000000       0.250000       0.000000
      0.164583       0.250000       0.000000
      0.165625       0.375000       0.000000
     -0.000000       0.375000       0.000000
      0.164583       0.250000       0.000000
      0.329167       0.250000       0.000000
      0.331250       0.375000       0.000000
      0.165625       0.375000       0.000000
     -0.000000       0.375000       0.000000
      0.165625       0.375000       0.000000
      0.166667       0.500000       0.000000
      0.000000       0.500000       0.000000
      0.165625       0.375000       0.000000
      0.331250       0.375000       0.000000
      0.333333       0.500000       0.000000
      0.166667       0.500000       0.000000
      0.329167       0.250000       0.000000
      0.493750       0.250000       0.000000
      0.496875       0.375000       0.000000
      0.331250       0.375000       0.000000
      0.493750       0.250000       0.000000
      0.658333       0.250000       0.000000
      0.662500       0.375000       0.000000
      0.496875       0.375000       0.000000
      0.331250       0.375000       0.000000
      0.496875       0.375000       0.000000
      0.500000       0.500000       0.000000
      0.333333       0.500000       0.000000
[...]
POINT_DATA  3780
VECTORS U float 
      0.000000       0.000000       0.000000
      0.000077      -0.001542       0.000000
      0.001164      -0.001559       0.000000
      0.001157      -0.000125       0.000000
      0.000077      -0.001542       0.000000
      0.000100      -0.002938       0.000000
      0.001167      -0.002959       0.000000
      0.001164      -0.001559       0.000000
      0.001157      -0.000125       0.000000
      0.001164      -0.001559       0.000000
      0.002232      -0.001571       0.000000
      0.002224      -0.000160       0.000000
      0.001164      -0.001559       0.000000
      0.001167      -0.002959       0.000000
      0.002230      -0.002977       0.000000
      0.002232      -0.001571       0.000000
      0.000100      -0.002938       0.000000
      0.000113      -0.004317       0.000000
      0.001172      -0.004346       0.000000
      0.001167      -0.002959       0.000000
      0.000113      -0.004317       0.000000
      0.000123      -0.005690       0.000000
      0.001178      -0.005727       0.000000
      0.001172      -0.004346       0.000000
      0.001167      -0.002959       0.000000
      0.001172      -0.004346       0.000000
      0.002231      -0.004373       0.000000
      0.002230      -0.002977       0.000000
      0.001172      -0.004346       0.000000
      0.001178      -0.005727       0.000000
      0.002234      -0.005764       0.000000
      0.002231      -0.004373       0.000000
      0.000123      -0.005690       0.000000
      0.000131      -0.007059       0.000000
      0.001185      -0.007106       0.000000
      0.001178      -0.005727       0.000000
      0.000131      -0.007059       0.000000
      0.000139      -0.008427       0.000000
      0.001191      -0.008482       0.000000
      0.001185      -0.007106       0.000000
      0.001178      -0.005727       0.000000
      0.001185      -0.007106       0.000000
      0.002238      -0.007151       0.000000
      0.002234      -0.005764       0.000000
      0.001185      -0.007106       0.000000
      0.001191      -0.008482       0.000000
      0.002242      -0.008537       0.000000
      0.002238      -0.007151       0.000000
      0.000139      -0.008427       0.000000
      0.000147      -0.009794       0.000000
      0.001198      -0.009857       0.000000
      0.001191      -0.008482       0.000000
      0.000147      -0.009794       0.000000
      0.000156      -0.011159       0.000000
      0.001205      -0.011231       0.000000
      0.001198      -0.009857       0.000000
      0.001191      -0.008482       0.000000
      0.001198      -0.009857       0.000000
      0.002248      -0.009921       0.000000
      0.002242      -0.008537       0.000000
      0.001198      -0.009857       0.000000
      0.001205      -0.011231       0.000000
      0.002254      -0.011303       0.000000
      0.002248      -0.009921       0.000000
      0.000156      -0.011159       0.000000
      0.000165      -0.012522       0.000000
      0.001213      -0.012604       0.000000
      0.001205      -0.011231       0.000000
      0.000165      -0.012522       0.000000
      0.000174      -0.013884       0.000000
      0.001221      -0.013975       0.000000
      0.001213      -0.012604       0.000000
      0.001205      -0.011231       0.000000
      0.001213      -0.012604       0.000000
      0.002260      -0.012685       0.000000
      0.002254      -0.011303       0.000000
      0.001213      -0.012604       0.000000
      0.001221      -0.013975       0.000000
      0.002267      -0.014065       0.000000
      0.002260      -0.012685       0.000000
      0.000174      -0.013884       0.000000
      0.000185      -0.015245       0.000000
      0.001231      -0.015344       0.000000
      0.001221      -0.013975       0.000000
      0.000185      -0.015245       0.000000
      0.000196      -0.016604       0.000000
      0.001240      -0.016712       0.000000
      0.001231      -0.015344       0.000000
      0.001221      -0.013975       0.000000
      0.001231      -0.015344       0.000000
      0.002275      -0.015443       0.000000
      0.002267      -0.014065       0.000000
      0.001231      -0.015344       0.000000
      0.001240      -0.016712       0.000000
      0.002284      -0.016819       0.000000
      0.002275      -0.015443       0.000000
      0.000196      -0.016604       0.000000
      0.000208      -0.017960       0.000000
      0.001251      -0.018077       0.000000
      0.001240      -0.016712       0.000000
      0.000208      -0.017960       0.000000
      0.000221      -0.019315       0.000000
      0.001263      -0.019440       0.000000
      0.001251      -0.018077       0.000000
      0.001240      -0.016712       0.000000
      0.001251      -0.018077       0.000000
      0.002293      -0.018194       0.000000
      0.002284      -0.016819       0.000000
      0.001251      -0.018077       0.000000
      0.001263      -0.019440       0.000000
      0.002303      -0.019565       0.000000
      0.002293      -0.018194       0.000000
      0.000221      -0.019315       0.000000
      0.000235      -0.020667       0.000000
      0.001275      -0.020801       0.000000
      0.001263      -0.019440       0.000000
      0.000235      -0.020667       0.000000
      0.000250      -0.022016       0.000000
      0.001287      -0.022159       0.000000
      0.001275      -0.020801       0.000000
      0.001263      -0.019440       0.000000
      0.001275      -0.020801       0.000000
      0.002313      -0.020935       0.000000
      0.002303      -0.019565       0.000000
      0.001275      -0.020801       0.000000
      0.001287      -0.022159       0.000000
      0.002324      -0.022301       0.000000
      0.002313      -0.020935       0.000000
      0.000250      -0.022016       0.000000
      0.000265      -0.023362       0.000000
      0.001301      -0.023514       0.000000
      0.001287      -0.022159       0.000000
      0.000265      -0.023362       0.000000
      0.000280      -0.024705       0.000000
      0.001314      -0.024865       0.000000
      0.001301      -0.023514       0.000000
      0.001287      -0.022159       0.000000
      0.001301      -0.023514       0.000000
      0.002336      -0.023664       0.000000
      0.002324      -0.022301       0.000000
      0.001301      -0.023514       0.000000
      0.001314      -0.024865       0.000000
      0.002348      -0.025024       0.000000
      0.002336      -0.023664       0.000000
      0.000280      -0.024705       0.000000
      0.000295      -0.026045       0.000000
      0.001327      -0.026212       0.000000
      0.001314      -0.024865       0.000000
      0.000295      -0.026045       0.000000
      0.000309      -0.027381       0.000000
      0.001339      -0.027556       0.000000
      0.001327      -0.026212       0.000000
      0.001314      -0.024865       0.000000
      0.001327      -0.026212       0.000000
      0.002360      -0.026379       0.000000
      0.002348      -0.025024       0.000000
      0.001327      -0.026212       0.000000
      0.001339      -0.027556       0.000000
      0.002371      -0.027731       0.000000
      0.002360      -0.026379       0.000000
      0.000309      -0.027381       0.000000
      0.000320      -0.028715       0.000000
      0.001349      -0.028898       0.000000
      0.001339      -0.027556       0.000000
      0.000320      -0.028715       0.000000
      0.000327      -0.030049       0.000000
      0.001357      -0.030239       0.000000
      0.001349      -0.028898       0.000000
      0.001339      -0.027556       0.000000
      0.001349      -0.028898       0.000000
      0.002383      -0.029080       0.000000
      0.002371      -0.027731       0.000000
      0.001349      -0.028898       0.000000
      0.001357      -0.030239       0.000000
      0.002392      -0.030429       0.000000
      0.002383      -0.029080       0.000000
      0.000327      -0.030049       0.000000
      0.000329      -0.031385       0.000000
      0.001361      -0.031583       0.000000
      0.001357      -0.030239       0.000000
      0.000329      -0.031385       0.000000
      0.000328      -0.032727       0.000000
      0.001362      -0.032934       0.000000
      0.001361      -0.031583       0.000000
      0.001357      -0.030239       0.000000
      0.001361      -0.031583       0.000000
      0.002398      -0.031780       0.000000
      0.002392      -0.030429       0.000000
      0.001361      -0.031583       0.000000
      0.001362      -0.032934       0.000000
      0.002399      -0.033141       0.000000
      0.002398      -0.031780       0.000000
      0.002224      -0.000160       0.000000
      0.002232      -0.001571       0.000000
      0.003288      -0.001586       0.000000
      0.003281      -0.000181       0.000000
      0.002232      -0.001571       0.000000
      0.002230      -0.002977       0.000000
      0.003288      -0.002996       0.000000
      0.003288      -0.001586       0.000000
      0.003281      -0.000181       0.000000
      0.003288      -0.001586       0.000000
      0.004339      -0.001603       0.000000
      0.004334      -0.000195       0.000000
      0.003288      -0.001586       0.000000
      0.003288      -0.002996       0.000000
      0.004340      -0.003015       0.000000
      0.004339      -0.001603       0.000000
      0.002230      -0.002977       0.000000
      0.002231      -0.004373       0.000000
      0.003287      -0.004400       0.000000
      0.003288      -0.002996       0.000000
      0.002231      -0.004373       0.000000
      0.002234      -0.005764       0.000000
      0.003288      -0.005799       0.000000
      0.003287      -0.004400       0.000000
      0.003288      -0.002996       0.000000
      0.003287      -0.004400       0.000000
      0.004340      -0.004426       0.000000
      0.004340      -0.003015       0.000000
      0.003287      -0.004400       0.000000
      0.003288      -0.005799       0.000000
      0.004340      -0.005835       0.000000
      0.004340      -0.004426       0.000000
      0.002234      -0.005764       0.000000
      0.002238      -0.007151       0.000000
      0.003290      -0.007196       0.000000
      0.003288      -0.005799       0.000000
      0.002238      -0.007151       0.000000
      0.002242      -0.008537       0.000000
      0.003293      -0.008590       0.000000
      0.003290      -0.007196       0.000000
      0.003288      -0.005799       0.000000
      0.003290      -0.007196       0.000000
      0.004340      -0.007240       0.000000
      0.004340      -0.005835       0.000000
      0.003290      -0.007196       0.000000
      0.003293      -0.008590       0.000000
      0.004342      -0.008644       0.000000
      0.004340      -0.007240       0.000000
      0.002242      -0.008537       0.000000
      0.002248      -0.009921       0.000000
      0.003297      -0.009983       0.000000
      0.003293      -0.008590       0.000000
      0.002248      -0.009921       0.000000
      0.002254      -0.011303       0.000000
      0.003301      -0.011375       0.000000
      0.003297      -0.009983       0.000000
      0.003293      -0.008590       0.000000
      0.003297      -0.009983       0.000000
      0.004345      -0.010046       0.000000
      0.004342      -0.008644       0.000000
      0.003297      -0.009983       0.000000
      0.003301      -0.011375       0.000000
      0.004348      -0.011446       0.000000
      0.004345      -0.010046       0.000000
      0.002254      -0.011303       0.000000
      0.002260      -0.012685       0.000000
      0.003306      -0.012765       0.000000
      0.003301      -0.011375       0.000000
      0.002260      -0.012685       0.000000
      0.002267      -0.014065       0.000000
      0.003312      -0.014154       0.000000
      0.003306      -0.012765       0.000000
      0.003301      -0.011375       0.000000
      0.003306      -0.012765       0.000000
      0.004352      -0.012845       0.000000
      0.004348      -0.011446       0.000000
      0.003306      -0.012765       0.000000
      0.003312      -0.014154       0.000000
      0.004356      -0.014243       0.000000
      0.004352      -0.012845       0.000000
      0.002267      -0.014065       0.000000
      0.002275      -0.015443       0.000000
      0.003319      -0.015541       0.000000
      0.003312      -0.014154       0.000000
      0.002275      -0.015443       0.000000
      0.002284      -0.016819       0.000000
      0.003326      -0.016926       0.000000
      0.003319      -0.015541       0.000000
      0.003312      -0.014154       0.000000
      0.003319      -0.015541       0.000000
      0.004361      -0.015639       0.000000
      0.004356      -0.014243       0.000000
      0.003319      -0.015541       0.000000
      0.003326      -0.016926       0.000000
      0.004367      -0.017033       0.000000
      0.004361      -0.015639       0.000000
      0.002284      -0.016819       0.000000
      0.002293      -0.018194       0.000000
      0.003333      -0.018309       0.000000
      0.003326      -0.016926       0.000000
      0.002293      -0.018194       0.000000
      0.002303      -0.019565       0.000000
      0.003342      -0.019690       0.000000
      0.003333      -0.018309       0.000000
      0.003326      -0.016926       0.000000
      0.003333      -0.018309       0.000000
      0.004373      -0.018425       0.000000
      0.004367      -0.017033       0.000000
      0.003333      -0.018309       0.000000
      0.003342      -0.019690       0.000000
      0.004380      -0.019814       0.000000
      0.004373      -0.018425       0.000000
      0.002303      -0.019565       0.000000
      0.002313      -0.020935       0.000000
      0.003351      -0.021068       0.000000
      0.003342      -0.019690       0.000000
      0.002313      -0.020935       0.000000
      0.002324      -0.022301       0.000000
      0.003360      -0.022443       0.000000
      0.003351      -0.021068       0.000000
      0.003342      -0.019690       0.000000
      0.003351      -0.021068       0.000000
      0.004387      -0.021201       0.000000
      0.004380      -0.019814       0.000000
      0.003351      -0.021068       0.000000
      0.003360      -0.022443       0.000000
      0.004395      -0.022585       0.000000
      0.004387      -0.021201       0.000000
      0.002324      -0.022301       0.000000
      0.002336      -0.023664       0.000000
      0.003370      -0.023815       0.000000
      0.003360      -0.022443       0.000000
      0.002336      -0.023664       0.000000
      0.002348      -0.025024       0.000000
      0.003381      -0.025183       0.000000
      0.003370      -0.023815       0.000000
      0.003360      -0.022443       0.000000
      0.003370      -0.023815       0.000000
      0.004404      -0.023965       0.000000
      0.004395      -0.022585       0.000000
      0.003370      -0.023815       0.000000
      0.003381      -0.025183       0.000000
      0.004414      -0.025342       0.000000
      0.004404      -0.023965       0.000000
      0.002348      -0.025024       0.000000
      0.002360      -0.026379       0.000000
      0.003393      -0.026547       0.000000
      0.003381      -0.025183       0.000000
      0.002360      -0.026379       0.000000
      0.002371      -0.027731       0.000000
      0.003405      -0.027907       0.000000
      0.003393      -0.026547       0.000000
      0.003381      -0.025183       0.000000
      0.003393      -0.026547       0.000000
      0.004425      -0.026715       0.000000
      0.004414      -0.025342       0.000000
      0.003393      -0.026547       0.000000
      0.003405      -0.027907       0.000000
      0.004438      -0.028084       0.000000
      0.004425      -0.026715       0.000000
      0.002371      -0.027731       0.000000
      0.002383      -0.029080       0.000000
      0.003418      -0.029265       0.000000
      0.003405      -0.027907       0.000000
      0.002383      -0.029080       0.000000
      0.002392      -0.030429       0.000000
      0.003431      -0.030620       0.000000
      0.003418      -0.029265       0.000000
      0.003405      -0.027907       0.000000
      0.003418      -0.029265       0.000000
      0.004453      -0.029450       0.000000
      0.004438      -0.028084       0.000000
      0.003418      -0.029265       0.000000
      0.003431      -0.030620       0.000000
      0.004470      -0.030813       0.000000
      0.004453      -0.029450       0.000000
      0.002392      -0.030429       0.000000
      0.002396      -0.031103       0.000000
      0.002916      -0.031200       0.000000
      0.002911      -0.030524       0.000000
      0.002396      -0.031103       0.000000
      0.002398      -0.031780       0.000000
      0.002919      -0.031878       0.000000
      0.002916      -0.031200       0.000000
      0.002911      -0.030524       0.000000
      0.002916      -0.031200       0.000000
      0.003437      -0.031297       0.000000
      0.003431      -0.030620       0.000000
      0.002916      -0.031200       0.000000
      0.002919      -0.031878       0.000000
      0.003442      -0.031976       0.000000
      0.003437      -0.031297       0.000000
      0.002398      -0.031780       0.000000
      0.002399      -0.032459       0.000000
      0.002921      -0.032558       0.000000
      0.002919      -0.031878       0.000000
      0.002399      -0.032459       0.000000
      0.002399      -0.033141       0.000000
      0.002920      -0.033244       0.000000
      0.002921      -0.032558       0.000000
      0.002919      -0.031878       0.000000
      0.002921      -0.032558       0.000000
      0.003445      -0.032658       0.000000
      0.003442      -0.031976       0.000000
      0.002921      -0.032558       0.000000
      0.002920      -0.033244       0.000000
      0.003444      -0.033347       0.000000
      0.003445      -0.032658       0.000000
      0.003431      -0.030620       0.000000
      0.003437      -0.031297       0.000000
      0.003958      -0.031395       0.000000
      0.003951      -0.030716       0.000000
      0.003437      -0.031297       0.000000
      0.003442      -0.031976       0.000000
      0.003966      -0.032075       0.000000
      0.003958      -0.031395       0.000000
      0.003951      -0.030716       0.000000
      0.003958      -0.031395       0.000000
      0.004479      -0.031494       0.000000
      0.004470      -0.030813       0.000000
      0.003958      -0.031395       0.000000
      0.003966      -0.032075       0.000000
      0.004490      -0.032175       0.000000
      0.004479      -0.031494       0.000000
      0.003442      -0.031976       0.000000
      0.003444      -0.032316       0.000000
      0.003706      -0.032366       0.000000
      0.003704      -0.032025       0.000000
      0.003444      -0.032316       0.000000
      0.003445      -0.032658       0.000000
      0.003708      -0.032707       0.000000
      0.003706      -0.032366       0.000000
      0.003704      -0.032025       0.000000
      0.003706      -0.032366       0.000000
      0.003969      -0.032415       0.000000
      0.003966      -0.032075       0.000000
      0.003706      -0.032366       0.000000
      0.003708      -0.032707       0.000000
      0.003972      -0.032756       0.000000
      0.003969      -0.032415       0.000000
      0.003445      -0.032658       0.000000
      0.003445      -0.033001       0.000000
      0.003708      -0.033051       0.000000
      0.003708      -0.032707       0.000000
      0.003445      -0.033001       0.000000
      0.003444      -0.033347       0.000000
      0.003708      -0.033398       0.000000
      0.003708      -0.033051       0.000000
      0.003708      -0.032707       0.000000
      0.003708      -0.033051       0.000000
      0.003974      -0.033100       0.000000