# vtk DataFile Version 2.0
time_10.vtk
ASCII
DATASET UNSTRUCTURED_GRID
POINTS  3780 float
      0.000000       0.000000       0.000000
      0.162500       0.000000       0.000000
      0.163542       0.125000       0.000000
     -0.000000       0.125000       0.000000
      0.162500       0.000000       0.000000
      0.325000       0.000000       0.000000
      0.327083       0.125000       0.000000
      0.163542       0.125000       0.000000
     -0.000000       0.125000       0.000000
      0.163542       0.125000       0.000000
      0.164583       0.250000       0.000000
      0.000000       0.250000       0.000000
      0.163542       0.125000       0.000000
      0.327083       0.125000       0.000000
      0.329167       0.250000       0.000000
      0.164583       0.250000       0.000000
      0.325000       0.000000       0.000000
      0.487500       0.000000       0.000000
      0.490625       0.125000       0.000000
      0.327083       0.125000       0.000000
      0.487500       0.000000       0.000000
      0.650000       0.000000       0.000000
      0.654167       0.125000       0.000000
      0.490625       0.125000       0.000000
      0.327083       0.125000       0.000000
      0.490625       0.125000       0.000000
      0.493750       0.250000       0.000000
      0.329167       0.250000       0.000000
      0.490625       0.125000       0.000000
      0.654167       0.125000       0.000000
      0.658333       0.250000       0.000000
      0.493750       0.250000       0.000000
      0.650000       0.000000       0.000000
      0.812500       0.000000       0.000000
      0.817708       0.125000       0.000000
      0.654167       0.125000       0.000000
      0.812500       0.000000       0.000000
      0.975000       0.000000       0.000000
      0.981250       0.125000       0.000000
      0.817708       0.125000       0.000000
      0.654167       0.125000       0.000000
      0.817708       0.125000       0.000000
      0.822917       0.250000       0.000000
      0.658333       0.250000       0.000000
      0.817708       0.125000       0.000000
      0.981250       0.125000       0.000000
      0.987500       0.250000       0.000000
      0.822917       0.250000       0.000000
      0.975000       0.000000       0.000000
      1.137500      -0.000000       0.000000
      1.144792       0.125000       0.000000
      0.981250       0.125000       0.000000
      1.137500      -0.000000       0.000000
      1.300000       0.000000       0.000000
      1.308333       0.125000       0.000000
      1.144792       0.125000       0.000000
      0.981250       0.125000       0.000000
      1.144792       0.125000       0.000000
      1.152083       0.250000       0.000000
      0.987500       0.250000       0.000000
      1.144792       0.125000       0.000000
      1.308333       0.125000       0.000000
      1.316667       0.250000       0.000000
      1.152083       0.250000       0.000000
      1.300000       0.000000       0.000000
      1.462500       0.000000       0.000000
      1.471875       0.125000       0.000000
      1.308333       0.125000       0.000000
      1.462500       0.000000       0.000000
      1.625000       0.000000       0.000000
      1.635417       0.125000       0.000000
      1.471875       0.125000       0.000000
      1.308333       0.125000       0.000000
      1.471875       0.125000       0.000000
      1.481250       0.250000       0.000000
      1.316667       0.250000       0.000000
      1.471875       0.125000       0.000000
      1.635417       0.125000       0.000000
      1.645833       0.250000       0.000000
      1.481250       0.250000       0.000000
      1.625000       0.000000       0.000000
      1.787500      -0.000000       0.000000
      1.798958       0.125000       0.000000
      1.635417       0.125000       0.000000
      1.787500      -0.000000       0.000000
      1.950000       0.000000       0.000000
      1.962500       0.125000       0.000000
      1.798958       0.125000       0.000000
      1.635417       0.125000       0.000000
      1.798958       0.125000       0.000000
      1.810417       0.250000       0.000000
      1.645833       0.250000       0.000000
      1.798958       0.125000       0.000000
      1.962500       0.125000       0.000000
      1.975000       0.250000       0.000000
      1.810417       0.250000       0.000000
      1.950000       0.000000       0.000000
      2.112500      -0.000000       0.000000
      2.126042       0.125000       0.000000
      1.962500       0.125000       0.000000
      2.112500      -0.000000       0.000000
      2.275000       0.000000       0.000000
      2.289583       0.125000       0.000000
      2.126042       0.125000       0.000000
      1.962500       0.125000       0.000000
      2.126042       0.125000       0.000000
      2.139583       0.250000       0.000000
      1.975000       0.250000       0.000000
      2.126042       0.125000       0.000000
      2.289583       0.125000       0.000000
      2.304167       0.250000       0.000000
      2.139583       0.250000       0.000000
      2.275000       0.000000       0.000000
      2.437500       0.000000       0.000000
      2.453125       0.125000       0.000000
      2.289583       0.125000       0.000000
      2.437500       0.000000       0.000000
      2.600000       0.000000       0.000000
      2.616667       0.125000       0.000000
      2.453125       0.125000       0.000000
      2.289583       0.125000       0.000000
      2.453125       0.125000       0.000000
      2.468750       0.250000       0.000000
      2.304167       0.250000       0.000000
      2.453125       0.125000       0.000000
      2.616667       0.125000       0.000000
      2.633333       0.250000       0.000000
      2.468750       0.250000       0.000000
      2.600000       0.000000       0.000000
      2.762500       0.000000       0.000000
      2.780208       0.125000       0.000000
      2.616667       0.125000       0.000000
      2.762500       0.000000       0.000000
      2.925000       0.000000       0.000000
      2.943750       0.125000       0.000000
      2.780208       0.125000       0.000000
      2.616667       0.125000       0.000000
      2.780208       0.125000       0.000000
      2.797917       0.250000       0.000000
      2.633333       0.250000       0.000000
      2.780208       0.125000       0.000000
      2.943750       0.125000       0.000000
      2.962500       0.250000       0.000000
      2.797917       0.250000       0.000000
      2.925000       0.000000       0.000000
      3.087500       0.000000       0.000000
      3.107292       0.125000       0.000000
      2.943750       0.125000       0.000000
      3.087500       0.000000       0.000000
      3.250000       0.000000       0.000000
      3.270833       0.125000       0.000000
      3.107292       0.125000       0.000000
      2.943750       0.125000       0.000000
      3.107292       0.125000       0.000000
      3.127083       0.250000       0.000000
      2.962500       0.250000       0.000000
      3.107292       0.125000       0.000000
      3.270833       0.125000       0.000000
      3.291667       0.250000       0.000000
      3.127083       0.250000       0.000000
      3.250000       0.000000       0.000000
      3.412500       0.000000       0.000000
      3.434375       0.125000       0.000000
      3.270833       0.125000       0.000000
      3.412500       0.000000       0.000000
      3.575000       0.000000       0.000000
      3.597917       0.125000       0.000000
      3.434375       0.125000       0.000000
      3.270833       0.125000       0.000000
      3.434375       0.125000       0.000000
      3.456250       0.250000       0.000000
      3.291667       0.250000       0.000000
      3.434375       0.125000       0.000000
      3.597917       0.125000       0.000000
      3.620833       0.250000       0.000000
      3.456250       0.250000       0.000000
      3.575000       0.000000       0.000000
      3.737500      -0.000000       0.000000
      3.761458       0.125000       0.000000
      3.597917       0.125000       0.000000
      3.737500      -0.000000       0.000000
      3.900000       0.000000       0.000000
      3.925000       0.125000       0.000000
      3.761458       0.125000       0.000000
      3.597917       0.125000       0.000000
      3.761458       0.125000       0.000000
      3.785417       0.250000       0.000000
      3.620833       0.250000       0.000000
      3.761458       0.125000       0.000000
      3.925000       0.125000       0.000000
      3.950000       0.250000       0.000000
      3.785417       0.250000       0.000000
      0.000000       0.250000       0.000000
      0.164583       0.250000       0.000000
      0.165625       0.375000       0.000000
     -0.000000       0.375000       0.000000
      0.164583       0.250000       0.000000
      0.329167       0.250000       0.000000
      0.331250       0.375000       0.000000
      0.165625       0.375000       0.000000
     -0.000000       0.375000       0.000000
      0.165625       0.375000       0.000000
      0.166667       0.500000       0.000000
      0.000000       0.500000       0.000000
      0.165625       0.375000       0.000000
      0.331250       0.375000       0.000000
      0.333333       0.500000       0.000000
      0.166667       0.500000       0.000000
      0.329167       0.250000       0.000000
      0.493750       0.250000       0.000000
      0.496875       0.375000       0.000000
      0.331250       0.375000       0.000000
      0.493750       0.250000       0.000000
      0.658333       0.250000       0.000000
      0.662500       0.375000       0.000000
      0.496875       0.375000       0.000000
      0.331250       0.375000       0.000000
      0.496875       0.375000       0.000000
      0.500000       0.500000       0.000000
      0.333333       0.500000       0.000000
[...]
POINT_DATA  3780
VECTORS U float 
      0.000000       0.000000       0.000000
      0.000077      -0.001536       0.000000
      0.001160      -0.001553       0.000000
      0.001153      -0.000125       0.000000
      0.000077      -0.001536       0.000000
      0.000100      -0.002926       0.000000
      0.001162      -0.002947       0.000000
      0.001160      -0.001553       0.000000
      0.001153      -0.000125       0.000000
      0.001160      -0.001553       0.000000
      0.002222      -0.001564       0.000000
      0.002215      -0.000160       0.000000
      0.001160      -0.001553       0.000000
      0.001162      -0.002947       0.000000
      0.002221      -0.002965       0.000000
      0.002222      -0.001564       0.000000
      0.000100      -0.002926       0.000000
      0.000113      -0.004299       0.000000
      0.001167      -0.004328       0.000000
      0.001162      -0.002947       0.000000
      0.000113      -0.004299       0.000000
      0.000123      -0.005666       0.000000
      0.001174      -0.005703       0.000000
      0.001167      -0.004328       0.000000
      0.001162      -0.002947       0.000000
      0.001167      -0.004328       0.000000
      0.002222      -0.004355       0.000000
      0.002221      -0.002965       0.000000
      0.001167      -0.004328       0.000000
      0.001174      -0.005703       0.000000
      0.002225      -0.005739       0.000000
      0.002222      -0.004355       0.000000
      0.000123      -0.005666       0.000000
      0.000131      -0.007030       0.000000
      0.001180      -0.007076       0.000000
      0.001174      -0.005703       0.000000
      0.000131      -0.007030       0.000000
      0.000139      -0.008391       0.000000
      0.001186      -0.008446       0.000000
      0.001180      -0.007076       0.000000
      0.001174      -0.005703       0.000000
      0.001180      -0.007076       0.000000
      0.002228      -0.007121       0.000000
      0.002225      -0.005739       0.000000
      0.001180      -0.007076       0.000000
      0.001186      -0.008446       0.000000
      0.002233      -0.008500       0.000000
      0.002228      -0.007121       0.000000
      0.000139      -0.008391       0.000000
      0.000147      -0.009752       0.000000
      0.001193      -0.009815       0.000000
      0.001186      -0.008446       0.000000
      0.000147      -0.009752       0.000000
      0.000156      -0.011111       0.000000
      0.001200      -0.011183       0.000000
      0.001193      -0.009815       0.000000
      0.001186      -0.008446       0.000000
      0.001193      -0.009815       0.000000
      0.002238      -0.009878       0.000000
      0.002233      -0.008500       0.000000
      0.001193      -0.009815       0.000000
      0.001200      -0.011183       0.000000
      0.002244      -0.011255       0.000000
      0.002238      -0.009878       0.000000
      0.000156      -0.011111       0.000000
      0.000165      -0.012468       0.000000
      0.001208      -0.012550       0.000000
      0.001200      -0.011183       0.000000
      0.000165      -0.012468       0.000000
      0.000174      -0.013825       0.000000
      0.001217      -0.013915       0.000000
      0.001208      -0.012550       0.000000
      0.001200      -0.011183       0.000000
      0.001208      -0.012550       0.000000
      0.002251      -0.012630       0.000000
      0.002244      -0.011255       0.000000
      0.001208      -0.012550       0.000000
      0.001217      -0.013915       0.000000
      0.002258      -0.014004       0.000000
      0.002251      -0.012630       0.000000
      0.000174      -0.013825       0.000000
      0.000184      -0.015179       0.000000
      0.001226      -0.015278       0.000000
      0.001217      -0.013915       0.000000
      0.000184      -0.015179       0.000000
      0.000196      -0.016532       0.000000
      0.001236      -0.016639       0.000000
      0.001226      -0.015278       0.000000
      0.001217      -0.013915       0.000000
      0.001226      -0.015278       0.000000
      0.002266      -0.015376       0.000000
      0.002258      -0.014004       0.000000
      0.001226      -0.015278       0.000000
      0.001236      -0.016639       0.000000
      0.002274      -0.016747       0.000000
      0.002266      -0.015376       0.000000
      0.000196      -0.016532       0.000000
      0.000208      -0.017883       0.000000
      0.001246      -0.017999       0.000000
      0.001236      -0.016639       0.000000
      0.000208      -0.017883       0.000000
      0.000221      -0.019231       0.000000
      0.001258      -0.019356       0.000000
      0.001246      -0.017999       0.000000
      0.001236      -0.016639       0.000000
      0.001246      -0.017999       0.000000
      0.002284      -0.018115       0.000000
      0.002274      -0.016747       0.000000
      0.001246      -0.017999       0.000000
      0.001258      -0.019356       0.000000
      0.002293      -0.019481       0.000000
      0.002284      -0.018115       0.000000
      0.000221      -0.019231       0.000000
      0.000235      -0.020577       0.000000
      0.001270      -0.020711       0.000000
      0.001258      -0.019356       0.000000
      0.000235      -0.020577       0.000000
      0.000250      -0.021921       0.000000
      0.001283      -0.022063       0.000000
      0.001270      -0.020711       0.000000
      0.001258      -0.019356       0.000000
      0.001270      -0.020711       0.000000
      0.002304      -0.020844       0.000000
      0.002293      -0.019481       0.000000
      0.001270      -0.020711       0.000000
      0.001283      -0.022063       0.000000
      0.002315      -0.022205       0.000000
      0.002304      -0.020844       0.000000
      0.000250      -0.021921       0.000000
      0.000265      -0.023261       0.000000
      0.001296      -0.023411       0.000000
      0.001283      -0.022063       0.000000
      0.000265      -0.023261       0.000000
      0.000280      -0.024598       0.000000
      0.001309      -0.024757       0.000000
      0.001296      -0.023411       0.000000
      0.001283      -0.022063       0.000000
      0.001296      -0.023411       0.000000
      0.002326      -0.023562       0.000000
      0.002315      -0.022205       0.000000
      0.001296      -0.023411       0.000000
      0.001309      -0.024757       0.000000
      0.002338      -0.024915       0.000000
      0.002326      -0.023562       0.000000
      0.000280      -0.024598       0.000000
      0.000295      -0.025931       0.000000
      0.001322      -0.026098       0.000000
      0.001309      -0.024757       0.000000
      0.000295      -0.025931       0.000000
      0.000309      -0.027262       0.000000
      0.001334      -0.027436       0.000000
      0.001322      -0.026098       0.000000
      0.001309      -0.024757       0.000000
      0.001322      -0.026098       0.000000
      0.002350      -0.026265       0.000000
      0.002338      -0.024915       0.000000
      0.001322      -0.026098       0.000000
      0.001334      -0.027436       0.000000
      0.002362      -0.027611       0.000000
      0.002350      -0.026265       0.000000
      0.000309      -0.027262       0.000000
      0.000320      -0.028590       0.000000
      0.001344      -0.028772       0.000000
      0.001334      -0.027436       0.000000
      0.000320      -0.028590       0.000000
      0.000326      -0.029918       0.000000
      0.001352      -0.030107       0.000000
      0.001344      -0.028772       0.000000
      0.001334      -0.027436       0.000000
      0.001344      -0.028772       0.000000
      0.002373      -0.028954       0.000000
      0.002362      -0.027611       0.000000
      0.001344      -0.028772       0.000000
      0.001352      -0.030107       0.000000
      0.002383      -0.030296       0.000000
      0.002373      -0.028954       0.000000
      0.000326      -0.029918       0.000000
      0.000328      -0.031248       0.000000
      0.001356      -0.031445       0.000000
      0.001352      -0.030107       0.000000
      0.000328      -0.031248       0.000000
      0.000328      -0.032584       0.000000
      0.001357      -0.032790       0.000000
      0.001356      -0.031445       0.000000
      0.001352      -0.030107       0.000000
      0.001356      -0.031445       0.000000
      0.002389      -0.031641       0.000000
      0.002383      -0.030296       0.000000
      0.001356      -0.031445       0.000000
      0.001357      -0.032790       0.000000
      0.002390      -0.032996       0.000000
      0.002389      -0.031641       0.000000
      0.002215      -0.000160       0.000000
      0.002222      -0.001564       0.000000
      0.003274      -0.001580       0.000000
      0.003267      -0.000181       0.000000
      0.002222      -0.001564       0.000000
      0.002221      -0.002965       0.000000
      0.003274      -0.002983       0.000000
      0.003274      -0.001580       0.000000
      0.003267      -0.000181       0.000000
      0.003274      -0.001580       0.000000
      0.004321      -0.001596       0.000000
      0.004315      -0.000195       0.000000
      0.003274      -0.001580       0.000000
      0.003274      -0.002983       0.000000
      0.004322      -0.003003       0.000000
      0.004321      -0.001596       0.000000
      0.002221      -0.002965       0.000000
      0.002222      -0.004355       0.000000
      0.003273      -0.004381       0.000000
      0.003274      -0.002983       0.000000
      0.002222      -0.004355       0.000000
      0.002225      -0.005739       0.000000
      0.003274      -0.005775       0.000000
      0.003273      -0.004381       0.000000
      0.003274      -0.002983       0.000000
      0.003273      -0.004381       0.000000
      0.004321      -0.004408       0.000000
      0.004322      -0.003003       0.000000
      0.003273      -0.004381       0.000000
      0.003274      -0.005775       0.000000
      0.004321      -0.005810       0.000000
      0.004321      -0.004408       0.000000
      0.002225      -0.005739       0.000000
      0.002228      -0.007121       0.000000
      0.003276      -0.007165       0.000000
      0.003274      -0.005775       0.000000
      0.002228      -0.007121       0.000000
      0.002233      -0.008500       0.000000
      0.003279      -0.008554       0.000000
      0.003276      -0.007165       0.000000
      0.003274      -0.005775       0.000000
      0.003276      -0.007165       0.000000
      0.004322      -0.007209       0.000000
      0.004321      -0.005810       0.000000
      0.003276      -0.007165       0.000000
      0.003279      -0.008554       0.000000
      0.004324      -0.008607       0.000000
      0.004322      -0.007209       0.000000
      0.002233      -0.008500       0.000000
      0.002238      -0.009878       0.000000
      0.003283      -0.009941       0.000000
      0.003279      -0.008554       0.000000
      0.002238      -0.009878       0.000000
      0.002244      -0.011255       0.000000
      0.003287      -0.011326       0.000000
      0.003283      -0.009941       0.000000
      0.003279      -0.008554       0.000000
      0.003283      -0.009941       0.000000
      0.004326      -0.010003       0.000000
      0.004324      -0.008607       0.000000
      0.003283      -0.009941       0.000000
      0.003287      -0.011326       0.000000
      0.004329      -0.011397       0.000000
      0.004326      -0.010003       0.000000
      0.002244      -0.011255       0.000000
      0.002251      -0.012630       0.000000
      0.003293      -0.012710       0.000000
      0.003287      -0.011326       0.000000
      0.002251      -0.012630       0.000000
      0.002258      -0.014004       0.000000
      0.003298      -0.014093       0.000000
      0.003293      -0.012710       0.000000
      0.003287      -0.011326       0.000000
      0.003293      -0.012710       0.000000
      0.004333      -0.012790       0.000000
      0.004329      -0.011397       0.000000
      0.003293      -0.012710       0.000000
      0.003298      -0.014093       0.000000
      0.004338      -0.014182       0.000000
      0.004333      -0.012790       0.000000
      0.002258      -0.014004       0.000000
      0.002266      -0.015376       0.000000
      0.003305      -0.015474       0.000000
      0.003298      -0.014093       0.000000
      0.002266      -0.015376       0.000000
      0.002274      -0.016747       0.000000
      0.003312      -0.016853       0.000000
      0.003305      -0.015474       0.000000
      0.003298      -0.014093       0.000000
      0.003305      -0.015474       0.000000
      0.004343      -0.015571       0.000000
      0.004338      -0.014182       0.000000
      0.003305      -0.015474       0.000000
      0.003312      -0.016853       0.000000
      0.004349      -0.016959       0.000000
      0.004343      -0.015571       0.000000
      0.002274      -0.016747       0.000000
      0.002284      -0.018115       0.000000
      0.003320      -0.018230       0.000000
      0.003312      -0.016853       0.000000
      0.002284      -0.018115       0.000000
      0.002293      -0.019481       0.000000
      0.003328      -0.019605       0.000000
      0.003320      -0.018230       0.000000
      0.003312      -0.016853       0.000000
      0.003320      -0.018230       0.000000
      0.004355      -0.018345       0.000000
      0.004349      -0.016959       0.000000
      0.003320      -0.018230       0.000000
      0.003328      -0.019605       0.000000
      0.004361      -0.019728       0.000000
      0.004355      -0.018345       0.000000
      0.002293      -0.019481       0.000000
      0.002304      -0.020844       0.000000
      0.003337      -0.020977       0.000000
      0.003328      -0.019605       0.000000
      0.002304      -0.020844       0.000000
      0.002315      -0.022205       0.000000
      0.003346      -0.022346       0.000000
      0.003337      -0.020977       0.000000
      0.003328      -0.019605       0.000000
      0.003337      -0.020977       0.000000
      0.004369      -0.021109       0.000000
      0.004361      -0.019728       0.000000
      0.003337      -0.020977       0.000000
      0.003346      -0.022346       0.000000
      0.004377      -0.022487       0.000000
      0.004369      -0.021109       0.000000
      0.002315      -0.022205       0.000000
      0.002326      -0.023562       0.000000
      0.003356      -0.023711       0.000000
      0.003346      -0.022346       0.000000
      0.002326      -0.023562       0.000000
      0.002338      -0.024915       0.000000
      0.003367      -0.025073       0.000000
      0.003356      -0.023711       0.000000
      0.003346      -0.022346       0.000000
      0.003356      -0.023711       0.000000
      0.004386      -0.023861       0.000000
      0.004377      -0.022487       0.000000
      0.003356      -0.023711       0.000000
      0.003367      -0.025073       0.000000
      0.004396      -0.025232       0.000000
      0.004386      -0.023861       0.000000
      0.002338      -0.024915       0.000000
      0.002350      -0.026265       0.000000
      0.003379      -0.026432       0.000000
      0.003367      -0.025073       0.000000
      0.002350      -0.026265       0.000000
      0.002362      -0.027611       0.000000
      0.003391      -0.027786       0.000000
      0.003379      -0.026432       0.000000
      0.003367      -0.025073       0.000000
      0.003379      -0.026432       0.000000
      0.004407      -0.026599       0.000000
      0.004396      -0.025232       0.000000
      0.003379      -0.026432       0.000000
      0.003391      -0.027786       0.000000
      0.004420      -0.027962       0.000000
      0.004407      -0.026599       0.000000
      0.002362      -0.027611       0.000000
      0.002373      -0.028954       0.000000
      0.003404      -0.029137       0.000000
      0.003391      -0.027786       0.000000
      0.002373      -0.028954       0.000000
      0.002383      -0.030296       0.000000
      0.003417      -0.030486       0.000000
      0.003404      -0.029137       0.000000
      0.003391      -0.027786       0.000000
      0.003404      -0.029137       0.000000
      0.004434      -0.029322       0.000000
      0.004420      -0.027962       0.000000
      0.003404      -0.029137       0.000000
      0.003417      -0.030486       0.000000
      0.004451      -0.030679       0.000000
      0.004434      -0.029322       0.000000
      0.002383      -0.030296       0.000000
      0.002387      -0.030968       0.000000
      0.002904      -0.031064       0.000000
      0.002900      -0.030391       0.000000
      0.002387      -0.030968       0.000000
      0.002389      -0.031641       0.000000
      0.002908      -0.031739       0.000000
      0.002904      -0.031064       0.000000
      0.002900      -0.030391       0.000000
      0.002904      -0.031064       0.000000
      0.003423      -0.031161       0.000000
      0.003417      -0.030486       0.000000
      0.002904      -0.031064       0.000000
      0.002908      -0.031739       0.000000
      0.003428      -0.031836       0.000000
      0.003423      -0.031161       0.000000
      0.002389      -0.031641       0.000000
      0.002390      -0.032317       0.000000
      0.002909      -0.032416       0.000000
      0.002908      -0.031739       0.000000
      0.002390      -0.032317       0.000000
      0.002390      -0.032996       0.000000
      0.002909      -0.033099       0.000000
      0.002909      -0.032416       0.000000
      0.002908      -0.031739       0.000000
      0.002909      -0.032416       0.000000
      0.003431      -0.032515       0.000000
      0.003428      -0.031836       0.000000
      0.002909      -0.032416       0.000000
      0.002909      -0.033099       0.000000
      0.003430      -0.033201       0.000000
      0.003431      -0.032515       0.000000
      0.003417      -0.030486       0.000000
      0.003423      -0.031161       0.000000
      0.003942      -0.031258       0.000000
      0.003934      -0.030582       0.000000
      0.003423      -0.031161       0.000000
      0.003428      -0.031836       0.000000
      0.003950      -0.031935       0.000000
      0.003942      -0.031258       0.000000
      0.003934      -0.030582       0.000000
      0.003942      -0.031258       0.000000
      0.004461      -0.031356       0.000000
      0.004451      -0.030679       0.000000
      0.003942      -0.031258       0.000000
      0.003950      -0.031935       0.000000
      0.004471      -0.032034       0.000000
      0.004461      -0.031356       0.000000
      0.003428      -0.031836       0.000000
      0.003430      -0.032175       0.000000
      0.003691      -0.032224       0.000000
      0.003689      -0.031885       0.000000
      0.003430      -0.032175       0.000000
      0.003431      -0.032515       0.000000
      0.003693      -0.032564       0.000000
      0.003691      -0.032224       0.000000
      0.003689      -0.031885       0.000000
      0.003691      -0.032224       0.000000
      0.003953      -0.032273       0.000000
      0.003950      -0.031935       0.000000
      0.003691      -0.032224       0.000000
      0.003693      -0.032564       0.000000
      0.003956      -0.032613       0.000000
      0.003953      -0.032273       0.000000
      0.003431      -0.032515       0.000000
      0.003431      -0.032857       0.000000
      0.003693      -0.032906       0.000000
      0.003693      -0.032564       0.000000
      0.003431      -0.032857       0.000000
      0.003430      -0.033201       0.000000
      0.003692      -0.033252       0.000000
      0.003693      -0.032906       0.000000
      0.003693      -0.032564       0.000000
      0.003693      -0.032906       0.000000
      0.003957      -0.032955       0.000000