# vtk DataFile Version 2.0
time_10.vtk
ASCII
DATASET UNSTRUCTURED_GRID
POINTS  3648 float
      0.000000       0.000000       0.000000
      0.162500       0.000000       0.000000
      0.163542       0.125000       0.000000
     -0.000000       0.125000       0.000000
      0.162500       0.000000       0.000000
      0.325000       0.000000       0.000000
      0.327083       0.125000       0.000000
      0.163542       0.125000       0.000000
     -0.000000       0.125000       0.000000
      0.163542       0.125000       0.000000
      0.164583       0.250000       0.000000
      0.000000       0.250000       0.000000
      0.163542       0.125000       0.000000
      0.327083       0.125000       0.000000
      0.329167       0.250000       0.000000
      0.164583       0.250000       0.000000
      0.325000       0.000000       0.000000
      0.487500       0.000000       0.000000
      0.490625       0.125000       0.000000
      0.327083       0.125000       0.000000
      0.487500       0.000000       0.000000
      0.650000       0.000000       0.000000
      0.654167       0.125000       0.000000
      0.490625       0.125000       0.000000
      0.327083       0.125000       0.000000
      0.490625       0.125000       0.000000
      0.493750       0.250000       0.000000
      0.329167       0.250000       0.000000
      0.490625       0.125000       0.000000
      0.654167       0.125000       0.000000
      0.658333       0.250000       0.000000
      0.493750       0.250000       0.000000
      0.650000       0.000000       0.000000
      0.812500       0.000000       0.000000
      0.817708       0.125000       0.000000
      0.654167       0.125000       0.000000
      0.812500       0.000000       0.000000
      0.975000       0.000000       0.000000
      0.981250       0.125000       0.000000
      0.817708       0.125000       0.000000
      0.654167       0.125000       0.000000
      0.817708       0.125000       0.000000
      0.822917       0.250000       0.000000
      0.658333       0.250000       0.000000
      0.817708       0.125000       0.000000
      0.981250       0.125000       0.000000
      0.987500       0.250000       0.000000
      0.822917       0.250000       0.000000
      0.975000       0.000000       0.000000
      1.137500      -0.000000       0.000000
      1.144792       0.125000       0.000000
      0.981250       0.125000       0.000000
      1.137500      -0.000000       0.000000
      1.300000       0.000000       0.000000
      1.308333       0.125000       0.000000
      1.144792       0.125000       0.000000
      0.981250       0.125000       0.000000
      1.144792       0.125000       0.000000
      1.152083       0.250000       0.000000
      0.987500       0.250000       0.000000
      1.144792       0.125000       0.000000
      1.308333       0.125000       0.000000
      1.316667       0.250000       0.000000
      1.152083       0.250000       0.000000
      1.300000       0.000000       0.000000
      1.462500       0.000000       0.000000
      1.471875       0.125000       0.000000
      1.308333       0.125000       0.000000
      1.462500       0.000000       0.000000
      1.625000       0.000000       0.000000
      1.635417       0.125000       0.000000
      1.471875       0.125000       0.000000
      1.308333       0.125000       0.000000
      1.471875       0.125000       0.000000
      1.481250       0.250000       0.000000
      1.316667       0.250000       0.000000
      1.471875       0.125000       0.000000
      1.635417       0.125000       0.000000
      1.645833       0.250000       0.000000
      1.481250       0.250000       0.000000
      1.625000       0.000000       0.000000
      1.787500      -0.000000       0.000000
      1.798958       0.125000       0.000000
      1.635417       0.125000       0.000000
      1.787500      -0.000000       0.000000
      1.950000       0.000000       0.000000
      1.962500       0.125000       0.000000
      1.798958       0.125000       0.000000
      1.635417       0.125000       0.000000
      1.798958       0.125000       0.000000
      1.810417       0.250000       0.000000
      1.645833       0.250000       0.000000
      1.798958       0.125000       0.000000
      1.962500       0.125000       0.000000
      1.975000       0.250000       0.000000
      1.810417       0.250000       0.000000
      1.950000       0.000000       0.000000
      2.112500      -0.000000       0.000000
      2.126042       0.125000       0.000000
      1.962500       0.125000       0.000000
      2.112500      -0.000000       0.000000
      2.275000       0.000000       0.000000
      2.289583       0.125000       0.000000
      2.126042       0.125000       0.000000
      1.962500       0.125000       0.000000
      2.126042       0.125000       0.000000
      2.139583       0.250000       0.000000
      1.975000       0.250000       0.000000
      2.126042       0.125000       0.000000
      2.289583       0.125000       0.000000
      2.304167       0.250000       0.000000
      2.139583       0.250000       0.000000
      2.275000       0.000000       0.000000
      2.437500       0.000000       0.000000
      2.453125       0.125000       0.000000
      2.289583       0.125000       0.000000
      2.437500       0.000000       0.000000
      2.600000       0.000000       0.000000
      2.616667       0.125000       0.000000
      2.453125       0.125000       0.000000
      2.289583       0.125000       0.000000
      2.453125       0.125000       0.000000
      2.468750       0.250000       0.000000
      2.304167       0.250000       0.000000
      2.453125       0.125000       0.000000
      2.616667       0.125000       0.000000
      2.633333       0.250000       0.000000
      2.468750       0.250000       0.000000
      2.600000       0.000000       0.000000
      2.762500       0.000000       0.000000
      2.780208       0.125000       0.000000
      2.616667       0.125000       0.000000
      2.762500       0.000000       0.000000
      2.925000       0.000000       0.000000
      2.943750       0.125000       0.000000
      2.780208       0.125000       0.000000
      2.616667       0.125000       0.000000
      2.780208       0.125000       0.000000
      2.797917       0.250000       0.000000
      2.633333       0.250000       0.000000
      2.780208       0.125000       0.000000
      2.943750       0.125000       0.000000
      2.962500       0.250000       0.000000
      2.797917       0.250000       0.000000
      2.925000       0.000000       0.000000
      3.087500       0.000000       0.000000
      3.107292       0.125000       0.000000
      2.943750       0.125000       0.000000
      3.087500       0.000000       0.000000
      3.250000       0.000000       0.000000
      3.270833       0.125000       0.000000
      3.107292       0.125000       0.000000
      2.943750       0.125000       0.000000
      3.107292       0.125000       0.000000
      3.127083       0.250000       0.000000
      2.962500       0.250000       0.000000
      3.107292       0.125000       0.000000
      3.270833       0.125000       0.000000
      3.291667       0.250000       0.000000
      3.127083       0.250000       0.000000
      3.250000       0.000000       0.000000
      3.412500       0.000000       0.000000
      3.434375       0.125000       0.000000
      3.270833       0.125000       0.000000
      3.412500       0.000000       0.000000
      3.575000       0.000000       0.000000
      3.597917       0.125000       0.000000
      3.434375       0.125000       0.000000
      3.270833       0.125000       0.000000
      3.434375       0.125000       0.000000
      3.456250       0.250000       0.000000
      3.291667       0.250000       0.000000
      3.434375       0.125000       0.000000
      3.597917       0.125000       0.000000
      3.620833       0.250000       0.000000
      3.456250       0.250000       0.000000
      3.575000       0.000000       0.000000
      3.737500      -0.000000       0.000000
      3.761458       0.125000       0.000000
      3.597917       0.125000       0.000000
      3.737500      -0.000000       0.000000
      3.900000       0.000000       0.000000
      3.925000       0.125000       0.000000
      3.761458       0.125000       0.000000
      3.597917       0.125000       0.000000
      3.761458       0.125000       0.000000
      3.785417       0.250000       0.000000
      3.620833       0.250000       0.000000
      3.761458       0.125000       0.000000
      3.925000       0.125000       0.000000
      3.950000       0.250000       0.000000
      3.785417       0.250000       0.000000
      0.000000       0.250000       0.000000
      0.164583       0.250000       0.000000
      0.165625       0.375000       0.000000
     -0.000000       0.375000       0.000000
      0.164583       0.250000       0.000000
      0.329167       0.250000       0.000000
      0.331250       0.375000       0.000000
      0.165625       0.375000       0.000000
     -0.000000       0.375000       0.000000
      0.165625       0.375000       0.000000
      0.166667       0.500000       0.000000
      0.000000       0.500000       0.000000
      0.165625       0.375000       0.000000
      0.331250       0.375000       0.000000
      0.333333       0.500000       0.000000
      0.166667       0.500000       0.000000
      0.329167       0.250000       0.000000
      0.493750       0.250000       0.000000
      0.496875       0.375000       0.000000
      0.331250       0.375000       0.000000
      0.493750       0.250000       0.000000
      0.658333       0.250000       0.000000
      0.662500       0.375000       0.000000
      0.496875       0.375000       0.000000
      0.331250       0.375000       0.000000
      0.496875       0.375000       0.000000
      0.500000       0.500000       0.000000
      0.333333       0.500000       0.000000
[...]
POINT_DATA  3648
VECTORS U float 
      0.000000       0.000000       0.000000
      0.000791      -0.002421       0.000000
      0.001633      -0.002508       0.000000
      0.001559      -0.001294       0.000000
      0.000791      -0.002421       0.000000
      0.001013      -0.003342       0.000000
      0.001653      -0.003391       0.000000
      0.001633      -0.002508       0.000000
      0.001559      -0.001294       0.000000
      0.001633      -0.002508       0.000000
      0.002276      -0.002541       0.000000
      0.002202      -0.001645       0.000000
      0.001633      -0.002508       0.000000
      0.001653      -0.003391       0.000000
      0.002263      -0.003404       0.000000
      0.002276      -0.002541       0.000000
      0.001013      -0.003342       0.000000
      0.001145      -0.004094       0.000000
      0.001709      -0.004136       0.000000
      0.001653      -0.003391       0.000000
      0.001145      -0.004094       0.000000
      0.001243      -0.004786       0.000000
      0.001770      -0.004828       0.000000
      0.001709      -0.004136       0.000000
      0.001653      -0.003391       0.000000
      0.001709      -0.004136       0.000000
      0.002270      -0.004159       0.000000
      0.002263      -0.003404       0.000000
      0.001709      -0.004136       0.000000
      0.001770      -0.004828       0.000000
      0.002297      -0.004859       0.000000
      0.002270      -0.004159       0.000000
      0.001243      -0.004786       0.000000
      0.001328      -0.005448       0.000000
      0.001833      -0.005492       0.000000
      0.001770      -0.004828       0.000000
      0.001328      -0.005448       0.000000
      0.001407      -0.006090       0.000000
      0.001897      -0.006138       0.000000
      0.001833      -0.005492       0.000000
      0.001770      -0.004828       0.000000
      0.001833      -0.005492       0.000000
      0.002335      -0.005529       0.000000
      0.002297      -0.004859       0.000000
      0.001833      -0.005492       0.000000
      0.001897      -0.006138       0.000000
      0.002382      -0.006180       0.000000
      0.002335      -0.005529       0.000000
      0.001407      -0.006090       0.000000
      0.001487      -0.006717       0.000000
      0.001964      -0.006769       0.000000
      0.001897      -0.006138       0.000000
      0.001487      -0.006717       0.000000
      0.001569      -0.007330       0.000000
      0.002035      -0.007387       0.000000
      0.001964      -0.006769       0.000000
      0.001897      -0.006138       0.000000
      0.001964      -0.006769       0.000000
      0.002434      -0.006817       0.000000
      0.002382      -0.006180       0.000000
      0.001964      -0.006769       0.000000
      0.002035      -0.007387       0.000000
      0.002493      -0.007439       0.000000
      0.002434      -0.006817       0.000000
      0.001569      -0.007330       0.000000
      0.001657      -0.007928       0.000000
      0.002112      -0.007991       0.000000
      0.002035      -0.007387       0.000000
      0.001657      -0.007928       0.000000
      0.001751      -0.008513       0.000000
      0.002195      -0.008580       0.000000
      0.002112      -0.007991       0.000000
      0.002035      -0.007387       0.000000
      0.002112      -0.007991       0.000000
      0.002557      -0.008048       0.000000
      0.002493      -0.007439       0.000000
      0.002112      -0.007991       0.000000
      0.002195      -0.008580       0.000000
      0.002627      -0.008643       0.000000
      0.002557      -0.008048       0.000000
      0.001751      -0.008513       0.000000
      0.001852      -0.009081       0.000000
      0.002284      -0.009153       0.000000
      0.002195      -0.008580       0.000000
      0.001852      -0.009081       0.000000
      0.001961      -0.009631       0.000000
      0.002380      -0.009708       0.000000
      0.002284      -0.009153       0.000000
      0.002195      -0.008580       0.000000
      0.002284      -0.009153       0.000000
      0.002704      -0.009220       0.000000
      0.002627      -0.008643       0.000000
      0.002284      -0.009153       0.000000
      0.002380      -0.009708       0.000000
      0.002787      -0.009780       0.000000
      0.002704      -0.009220       0.000000
      0.001961      -0.009631       0.000000
      0.002079      -0.010163       0.000000
      0.002483      -0.010243       0.000000
      0.002380      -0.009708       0.000000
      0.002079      -0.010163       0.000000
      0.002203      -0.010673       0.000000
      0.002592      -0.010757       0.000000
      0.002483      -0.010243       0.000000
      0.002380      -0.009708       0.000000
      0.002483      -0.010243       0.000000
      0.002876      -0.010320       0.000000
      0.002787      -0.009780       0.000000
      0.002483      -0.010243       0.000000
      0.002592      -0.010757       0.000000
      0.002971      -0.010836       0.000000
      0.002876      -0.010320       0.000000
      0.002203      -0.010673       0.000000
      0.002335      -0.011159       0.000000
      0.002708      -0.011246       0.000000
      0.002592      -0.010757       0.000000
      0.002335      -0.011159       0.000000
      0.002472      -0.011621       0.000000
      0.002827      -0.011710       0.000000
      0.002708      -0.011246       0.000000
      0.002592      -0.010757       0.000000
      0.002708      -0.011246       0.000000
      0.003071      -0.011329       0.000000
      0.002971      -0.010836       0.000000
      0.002708      -0.011246       0.000000
      0.002827      -0.011710       0.000000
      0.003176      -0.011794       0.000000
      0.003071      -0.011329       0.000000
      0.002472      -0.011621       0.000000
      0.002611      -0.012056       0.000000
      0.002949      -0.012145       0.000000
      0.002827      -0.011710       0.000000
      0.002611      -0.012056       0.000000
      0.002749      -0.012464       0.000000
      0.003071      -0.012551       0.000000
      0.002949      -0.012145       0.000000
      0.002827      -0.011710       0.000000
      0.002949      -0.012145       0.000000
      0.003285      -0.012230       0.000000
      0.003176      -0.011794       0.000000
      0.002949      -0.012145       0.000000
      0.003071      -0.012551       0.000000
      0.003397      -0.012636       0.000000
      0.003285      -0.012230       0.000000
      0.002749      -0.012464       0.000000
      0.002879      -0.012845       0.000000
      0.003187      -0.012929       0.000000
      0.003071      -0.012551       0.000000
      0.002879      -0.012845       0.000000
      0.002993      -0.013205       0.000000
      0.003294      -0.013283       0.000000
      0.003187      -0.012929       0.000000
      0.003071      -0.012551       0.000000
      0.003187      -0.012929       0.000000
      0.003509      -0.013013       0.000000
      0.003397      -0.012636       0.000000
      0.003187      -0.012929       0.000000
      0.003294      -0.013283       0.000000
      0.003620      -0.013365       0.000000
      0.003509      -0.013013       0.000000
      0.002993      -0.013205       0.000000
      0.003079      -0.013554       0.000000
      0.003383      -0.013625       0.000000
      0.003294      -0.013283       0.000000
      0.003079      -0.013554       0.000000
      0.003124      -0.013915       0.000000
      0.003447      -0.013978       0.000000
      0.003383      -0.013625       0.000000
      0.003294      -0.013283       0.000000
      0.003383      -0.013625       0.000000
      0.003726      -0.013702       0.000000
      0.003620      -0.013365       0.000000
      0.003383      -0.013625       0.000000
      0.003447      -0.013978       0.000000
      0.003818      -0.014047       0.000000
      0.003726      -0.013702       0.000000
      0.003124      -0.013915       0.000000
      0.003128      -0.014318       0.000000
      0.003477      -0.014381       0.000000
      0.003447      -0.013978       0.000000
      0.003128      -0.014318       0.000000
      0.003120      -0.014776       0.000000
      0.003482      -0.014854       0.000000
      0.003477      -0.014381       0.000000
      0.003447      -0.013978       0.000000
      0.003477      -0.014381       0.000000
      0.003872      -0.014439       0.000000
      0.003818      -0.014047       0.000000
      0.003477      -0.014381       0.000000
      0.003482      -0.014854       0.000000
      0.003879      -0.014945       0.000000
      0.003872      -0.014439       0.000000
      0.002202      -0.001645       0.000000
      0.002276      -0.002541       0.000000
      0.002806      -0.002615       0.000000
      0.002742      -0.001847       0.000000
      0.002276      -0.002541       0.000000
      0.002263      -0.003404       0.000000
      0.002808      -0.003420       0.000000
      0.002806      -0.002615       0.000000
      0.002742      -0.001847       0.000000
      0.002806      -0.002615       0.000000
      0.003292      -0.002693       0.000000
      0.003239      -0.001989       0.000000
      0.002806      -0.002615       0.000000
      0.002808      -0.003420       0.000000
      0.003306      -0.003449       0.000000
      0.003292      -0.002693       0.000000
      0.002263      -0.003404       0.000000
      0.002270      -0.004159       0.000000
      0.002802      -0.004173       0.000000
      0.002808      -0.003420       0.000000
      0.002270      -0.004159       0.000000
      0.002297      -0.004859       0.000000
      0.002808      -0.004880       0.000000
      0.002802      -0.004173       0.000000
      0.002808      -0.003420       0.000000
      0.002802      -0.004173       0.000000
      0.003301      -0.004188       0.000000
      0.003306      -0.003449       0.000000
      0.002802      -0.004173       0.000000
      0.002808      -0.004880       0.000000
      0.003298      -0.004898       0.000000
      0.003301      -0.004188       0.000000
      0.002297      -0.004859       0.000000
      0.002335      -0.005529       0.000000
      0.002828      -0.005558       0.000000
      0.002808      -0.004880       0.000000
      0.002335      -0.005529       0.000000
      0.002382      -0.006180       0.000000
      0.002858      -0.006216       0.000000
      0.002828      -0.005558       0.000000
      0.002808      -0.004880       0.000000
      0.002828      -0.005558       0.000000
      0.003306      -0.005582       0.000000
      0.003298      -0.004898       0.000000
      0.002828      -0.005558       0.000000
      0.002858      -0.006216       0.000000
      0.003323      -0.006247       0.000000
      0.003306      -0.005582       0.000000
      0.002382      -0.006180       0.000000
      0.002434      -0.006817       0.000000
      0.002896      -0.006859       0.000000
      0.002858      -0.006216       0.000000
      0.002434      -0.006817       0.000000
      0.002493      -0.007439       0.000000
      0.002941      -0.007487       0.000000
      0.002896      -0.006859       0.000000
      0.002858      -0.006216       0.000000
      0.002896      -0.006859       0.000000
      0.003348      -0.006896       0.000000
      0.003323      -0.006247       0.000000
      0.002896      -0.006859       0.000000
      0.002941      -0.007487       0.000000
      0.003380      -0.007531       0.000000
      0.003348      -0.006896       0.000000
      0.002493      -0.007439       0.000000
      0.002557      -0.008048       0.000000
      0.002993      -0.008102       0.000000
      0.002941      -0.007487       0.000000
      0.002557      -0.008048       0.000000
      0.002627      -0.008643       0.000000
      0.003050      -0.008701       0.000000
      0.002993      -0.008102       0.000000
      0.002941      -0.007487       0.000000
      0.002993      -0.008102       0.000000
      0.003419      -0.008151       0.000000
      0.003380      -0.007531       0.000000
      0.002993      -0.008102       0.000000
      0.003050      -0.008701       0.000000
      0.003464      -0.008755       0.000000
      0.003419      -0.008151       0.000000
      0.002627      -0.008643       0.000000
      0.002704      -0.009220       0.000000
      0.003114      -0.009284       0.000000
      0.003050      -0.008701       0.000000
      0.002704      -0.009220       0.000000
      0.002787      -0.009780       0.000000
      0.003183      -0.009848       0.000000
      0.003114      -0.009284       0.000000
      0.003050      -0.008701       0.000000
      0.003114      -0.009284       0.000000
      0.003515      -0.009343       0.000000
      0.003464      -0.008755       0.000000
      0.003114      -0.009284       0.000000
      0.003183      -0.009848       0.000000
      0.003570      -0.009911       0.000000
      0.003515      -0.009343       0.000000
      0.002787      -0.009780       0.000000
      0.002876      -0.010320       0.000000
      0.003258      -0.010391       0.000000
      0.003183      -0.009848       0.000000
      0.002876      -0.010320       0.000000
      0.002971      -0.010836       0.000000
      0.003339      -0.010912       0.000000
      0.003258      -0.010391       0.000000
      0.003183      -0.009848       0.000000
      0.003258      -0.010391       0.000000
      0.003632      -0.010459       0.000000
      0.003570      -0.009911       0.000000
      0.003258      -0.010391       0.000000
      0.003339      -0.010912       0.000000
      0.003699      -0.010984       0.000000
      0.003632      -0.010459       0.000000
      0.002971      -0.010836       0.000000
      0.003071      -0.011329       0.000000
      0.003426      -0.011407       0.000000
      0.003339      -0.010912       0.000000
      0.003071      -0.011329       0.000000
      0.003176      -0.011794       0.000000
      0.003519      -0.011875       0.000000
      0.003426      -0.011407       0.000000
      0.003339      -0.010912       0.000000
      0.003426      -0.011407       0.000000
      0.003773      -0.011483       0.000000
      0.003699      -0.010984       0.000000
      0.003426      -0.011407       0.000000
      0.003519      -0.011875       0.000000
      0.003853      -0.011956       0.000000
      0.003773      -0.011483       0.000000
      0.003176      -0.011794       0.000000
      0.003285      -0.012230       0.000000
      0.003617      -0.012314       0.000000
      0.003519      -0.011875       0.000000
      0.003285      -0.012230       0.000000
      0.003397      -0.012636       0.000000
      0.003723      -0.012723       0.000000
      0.003617      -0.012314       0.000000
      0.003519      -0.011875       0.000000
      0.003617      -0.012314       0.000000
      0.003942      -0.012399       0.000000
      0.003853      -0.011956       0.000000
      0.003617      -0.012314       0.000000
      0.003723      -0.012723       0.000000
      0.004042      -0.012813       0.000000
      0.003942      -0.012399       0.000000
      0.003397      -0.012636       0.000000
      0.003509      -0.013013       0.000000
      0.003836      -0.013102       0.000000
      0.003723      -0.012723       0.000000
      0.003509      -0.013013       0.000000
      0.003620      -0.013365       0.000000
      0.003957      -0.013456       0.000000
      0.003836      -0.013102       0.000000
      0.003723      -0.012723       0.000000
      0.003836      -0.013102       0.000000
      0.004156      -0.013198       0.000000
      0.004042      -0.012813       0.000000
      0.003836      -0.013102       0.000000
      0.003957      -0.013456       0.000000
      0.004287      -0.013559       0.000000
      0.004156      -0.013198       0.000000
      0.003620      -0.013365       0.000000
      0.003726      -0.013702       0.000000
      0.004088      -0.013792       0.000000
      0.003957      -0.013456       0.000000
      0.003726      -0.013702       0.000000
      0.003818      -0.014047       0.000000
      0.004223      -0.014126       0.000000
      0.004088      -0.013792       0.000000
      0.003957      -0.013456       0.000000
      0.004088      -0.013792       0.000000
      0.004442      -0.013900       0.000000
      0.004287      -0.013559       0.000000
      0.004088      -0.013792       0.000000
      0.004223      -0.014126       0.000000
      0.004629      -0.014234       0.000000
      0.004442      -0.013900       0.000000
      0.003818      -0.014047       0.000000
      0.003851      -0.014234       0.000000
      0.004063      -0.014266       0.000000
      0.004017      -0.014084       0.000000
      0.003851      -0.014234       0.000000
      0.003872      -0.014439       0.000000
      0.004095      -0.014466       0.000000
      0.004063      -0.014266       0.000000
      0.004017      -0.014084       0.000000
      0.004063      -0.014266       0.000000
      0.004286      -0.014301       0.000000
      0.004223      -0.014126       0.000000
      0.004063      -0.014266       0.000000
      0.004095      -0.014466       0.000000
      0.004339      -0.014493       0.000000
      0.004286      -0.014301       0.000000
      0.003872      -0.014439       0.000000
      0.003879      -0.014675       0.000000
      0.004107      -0.014702       0.000000
      0.004095      -0.014466       0.000000
      0.003879      -0.014675       0.000000
      0.003879      -0.014945       0.000000
      0.004106      -0.014994       0.000000
      0.004107      -0.014702       0.000000
      0.004095      -0.014466       0.000000
      0.004107      -0.014702       0.000000
      0.004367      -0.014724       0.000000
      0.004339      -0.014493       0.000000
      0.004107      -0.014702       0.000000
      0.004106      -0.014994       0.000000
      0.004366      -0.015045       0.000000
      0.004367      -0.014724       0.000000
      0.004223      -0.014126       0.000000
      0.004286      -0.014301       0.000000
      0.004517      -0.014346       0.000000
      0.004430      -0.014176       0.000000
      0.004286      -0.014301       0.000000
      0.004339      -0.014493       0.000000
      0.004604      -0.014527       0.000000
      0.004517      -0.014346       0.000000
      0.004430      -0.014176       0.000000
      0.004517      -0.014346       0.000000
      0.004740      -0.014403       0.000000
      0.004629      -0.014234       0.000000
      0.004517      -0.014346       0.000000
      0.004604      -0.014527       0.000000
      0.004870      -0.014582       0.000000
      0.004740      -0.014403       0.000000
      0.004339      -0.014493       0.000000
      0.004357      -0.014601       0.000000
      0.004497      -0.014613       0.000000
      0.004470      -0.014508       0.000000
      0.004357      -0.014601       0.000000
      0.004367      -0.014724       0.000000
      0.004515      -0.014733       0.000000
      0.004497      -0.014613       0.000000
      0.004470      -0.014508       0.000000
      0.004497      -0.014613       0.000000
      0.004645      -0.014627       0.000000
      0.004604      -0.014527       0.000000
      0.004497      -0.014613       0.000000
      0.004515      -0.014733       0.000000
      0.004678      -0.014742       0.000000
      0.004645      -0.014627       0.000000
      0.004367      -0.014724       0.000000
      0.004368      -0.014870       0.000000
      0.004520      -0.014881       0.000000
      0.004515      -0.014733       0.000000
      0.004368      -0.014870       0.000000
      0.004366      -0.015045       0.000000
      0.004516      -0.015071       0.000000
      0.004520      -0.014881       0.000000
      0.004515      -0.014733       0.000000
      0.004520      -0.014881       0.000000
      0.004695      -0.014888       0.000000