# vtk DataFile Version 2.0
time_10.vtk
ASCII
DATASET UNSTRUCTURED_GRID
POINTS  3780 float
      0.000000       0.000000       0.000000
      0.162500       0.000000       0.000000
      0.163542       0.125000       0.000000
     -0.000000       0.125000       0.000000
      0.162500       0.000000       0.000000
      0.325000       0.000000       0.000000
      0.327083       0.125000       0.000000
      0.163542       0.125000       0.000000
     -0.000000       0.125000       0.000000
      0.163542       0.125000       0.000000
      0.164583       0.250000       0.000000
      0.000000       0.250000       0.000000
      0.163542       0.125000       0.000000
      0.327083       0.125000       0.000000
      0.329167       0.250000       0.000000
      0.164583       0.250000       0.000000
      0.325000       0.000000       0.000000
      0.487500       0.000000       0.000000
      0.490625       0.125000       0.000000
      0.327083       0.125000       0.000000
      0.487500       0.000000       0.000000
      0.650000       0.000000       0.000000
      0.654167       0.125000       0.000000
      0.490625       0.125000       0.000000
      0.327083       0.125000       0.000000
      0.490625       0.125000       0.000000
      0.493750       0.250000       0.000000
      0.329167       0.250000       0.000000
      0.490625       0.125000       0.000000
      0.654167       0.125000       0.000000
      0.658333       0.250000       0.000000
      0.493750       0.250000       0.000000
      0.650000       0.000000       0.000000
      0.812500       0.000000       0.000000
      0.817708       0.125000       0.000000
      0.654167       0.125000       0.000000
      0.812500       0.000000       0.000000
      0.975000       0.000000       0.000000
      0.981250       0.125000       0.000000
      0.817708       0.125000       0.000000
      0.654167       0.125000       0.000000
      0.817708       0.125000       0.000000
      0.822917       0.250000       0.000000
      0.658333       0.250000       0.000000
      0.817708       0.125000       0.000000
      0.981250       0.125000       0.000000
      0.987500       0.250000       0.000000
      0.822917       0.250000       0.000000
      0.975000       0.000000       0.000000
      1.137500      -0.000000       0.000000
      1.144792       0.125000       0.000000
      0.981250       0.125000       0.000000
      1.137500      -0.000000       0.000000
      1.300000       0.000000       0.000000
      1.308333       0.125000       0.000000
      1.144792       0.125000       0.000000
      0.981250       0.125000       0.000000
      1.144792       0.125000       0.000000
      1.152083       0.250000       0.000000
      0.987500       0.250000       0.000000
      1.144792       0.125000       0.000000
      1.308333       0.125000       0.000000
      1.316667       0.250000       0.000000
      1.152083       0.250000       0.000000
      1.300000       0.000000       0.000000
      1.462500       0.000000       0.000000
      1.471875       0.125000       0.000000
      1.308333       0.125000       0.000000
      1.462500       0.000000       0.000000
      1.625000       0.000000       0.000000
      1.635417       0.125000       0.000000
      1.471875       0.125000       0.000000
      1.308333       0.125000       0.000000
      1.471875       0.125000       0.000000
      1.481250       0.250000       0.000000
      1.316667       0.250000       0.000000
      1.471875       0.125000       0.000000
      1.635417       0.125000       0.000000
      1.645833       0.250000       0.000000
      1.481250       0.250000       0.000000
      1.625000       0.000000       0.000000
      1.787500      -0.000000       0.000000
      1.798958       0.125000       0.000000
      1.635417       0.125000       0.000000
      1.787500      -0.000000       0.000000
      1.950000       0.000000       0.000000
      1.962500       0.125000       0.000000
      1.798958       0.125000       0.000000
      1.635417       0.125000       0.000000
      1.798958       0.125000       0.000000
      1.810417       0.250000       0.000000
      1.645833       0.250000       0.000000
      1.798958       0.125000       0.000000
      1.962500       0.125000       0.000000
      1.975000       0.250000       0.000000
      1.810417       0.250000       0.000000
      1.950000       0.000000       0.000000
      2.112500      -0.000000       0.000000
      2.126042       0.125000       0.000000
      1.962500       0.125000       0.000000
      2.112500      -0.000000       0.000000
      2.275000       0.000000       0.000000
      2.289583       0.125000       0.000000
      2.126042       0.125000       0.000000
      1.962500       0.125000       0.000000
      2.126042       0.125000       0.000000
      2.139583       0.250000       0.000000
      1.975000       0.250000       0.000000
      2.126042       0.125000       0.000000
      2.289583       0.125000       0.000000
      2.304167       0.250000       0.000000
      2.139583       0.250000       0.000000
      2.275000       0.000000       0.000000
      2.437500       0.000000       0.000000
      2.453125       0.125000       0.000000
      2.289583       0.125000       0.000000
      2.437500       0.000000       0.000000
      2.600000       0.000000       0.000000
      2.616667       0.125000       0.000000
      2.453125       0.125000       0.000000
      2.289583       0.125000       0.000000
      2.453125       0.125000       0.000000
      2.468750       0.250000       0.000000
      2.304167       0.250000       0.000000
      2.453125       0.125000       0.000000
      2.616667       0.125000       0.000000
      2.633333       0.250000       0.000000
      2.468750       0.250000       0.000000
      2.600000       0.000000       0.000000
      2.762500       0.000000       0.000000
      2.780208       0.125000       0.000000
      2.616667       0.125000       0.000000
      2.762500       0.000000       0.000000
      2.925000       0.000000       0.000000
      2.943750       0.125000       0.000000
      2.780208       0.125000       0.000000
      2.616667       0.125000       0.000000
      2.780208       0.125000       0.000000
      2.797917       0.250000       0.000000
      2.633333       0.250000       0.000000
      2.780208       0.125000       0.000000
      2.943750       0.125000       0.000000
      2.962500       0.250000       0.000000
      2.797917       0.250000       0.000000
      2.925000       0.000000       0.000000
      3.087500       0.000000       0.000000
      3.107292       0.125000       0.000000
      2.943750       0.125000       0.000000
      3.087500       0.000000       0.000000
      3.250000       0.000000       0.000000
      3.270833       0.125000       0.000000
      3.107292       0.125000       0.000000
      2.943750       0.125000       0.000000
      3.107292       0.125000       0.000000
      3.127083       0.250000       0.000000
      2.962500       0.250000       0.000000
      3.107292       0.125000       0.000000
      3.270833       0.125000       0.000000
      3.291667       0.250000       0.000000
      3.127083       0.250000       0.000000
      3.250000       0.000000       0.000000
      3.412500       0.000000       0.000000
      3.434375       0.125000       0.000000
      3.270833       0.125000       0.000000
      3.412500       0.000000       0.000000
      3.575000       0.000000       0.000000
      3.597917       0.125000       0.000000
      3.434375       0.125000       0.000000
      3.270833       0.125000       0.000000
      3.434375       0.125000       0.000000
      3.456250       0.250000       0.000000
      3.291667       0.250000       0.000000
      3.434375       0.125000       0.000000
      3.597917       0.125000       0.000000
      3.620833       0.250000       0.000000
      3.456250       0.250000       0.000000
      3.575000       0.000000       0.000000
      3.737500      -0.000000       0.000000
      3.761458       0.125000       0.000000
      3.597917       0.125000       0.000000
      3.737500      -0.000000       0.000000
      3.900000       0.000000       0.000000
      3.925000       0.125000       0.000000
      3.761458       0.125000       0.000000
      3.597917       0.125000       0.000000
      3.761458       0.125000       0.000000
      3.785417       0.250000       0.000000
      3.620833       0.250000       0.000000
      3.761458       0.125000       0.000000
      3.925000       0.125000       0.000000
      3.950000       0.250000       0.000000
      3.785417       0.250000       0.000000
      0.000000       0.250000       0.000000
      0.164583       0.250000       0.000000
      0.165625       0.375000       0.000000
     -0.000000       0.375000       0.000000
      0.164583       0.250000       0.000000
      0.329167       0.250000       0.000000
      0.331250       0.375000       0.000000
      0.165625       0.375000       0.000000
     -0.000000       0.375000       0.000000
      0.165625       0.375000       0.000000
      0.166667       0.500000       0.000000
      0.000000       0.500000       0.000000
      0.165625       0.375000       0.000000
      0.331250       0.375000       0.000000
      0.333333       0.500000       0.000000
      0.166667       0.500000       0.000000
      0.329167       0.250000       0.000000
      0.493750       0.250000       0.000000
      0.496875       0.375000       0.000000
      0.331250       0.375000       0.000000
      0.493750       0.250000       0.000000
      0.658333       0.250000       0.000000
      0.662500       0.375000       0.000000
      0.496875       0.375000       0.000000
      0.331250       0.375000       0.000000
      0.496875       0.375000       0.000000
      0.500000       0.500000       0.000000
      0.333333       0.500000       0.000000
[...]
POINT_DATA  3780
VECTORS U float 
      0.000000       0.000000       0.000000
      0.000077      -0.001546       0.000000
      0.001168      -0.001563       0.000000
      0.001160      -0.000125       0.000000
      0.000077      -0.001546       0.000000
      0.000100      -0.002946       0.000000
      0.001170      -0.002968       0.000000
      0.001168      -0.001563       0.000000
      0.001160      -0.000125       0.000000
      0.001168      -0.001563       0.000000
      0.002238      -0.001575       0.000000
      0.002231      -0.000160       0.000000
      0.001168      -0.001563       0.000000
      0.001170      -0.002968       0.000000
      0.002237      -0.002986       0.000000
      0.002238      -0.001575       0.000000
      0.000100      -0.002946       0.000000
      0.000113      -0.004329       0.000000
      0.001175      -0.004358       0.000000
      0.001170      -0.002968       0.000000
      0.000113      -0.004329       0.000000
      0.000123      -0.005706       0.000000
      0.001182      -0.005743       0.000000
      0.001175      -0.004358       0.000000
      0.001170      -0.002968       0.000000
      0.001175      -0.004358       0.000000
      0.002237      -0.004386       0.000000
      0.002237      -0.002986       0.000000
      0.001175      -0.004358       0.000000
      0.001182      -0.005743       0.000000
      0.002240      -0.005780       0.000000
      0.002237      -0.004386       0.000000
      0.000123      -0.005706       0.000000
      0.000131      -0.007080       0.000000
      0.001188      -0.007126       0.000000
      0.001182      -0.005743       0.000000
      0.000131      -0.007080       0.000000
      0.000139      -0.008451       0.000000
      0.001194      -0.008507       0.000000
      0.001188      -0.007126       0.000000
      0.001182      -0.005743       0.000000
      0.001188      -0.007126       0.000000
      0.002244      -0.007171       0.000000
      0.002240      -0.005780       0.000000
      0.001188      -0.007126       0.000000
      0.001194      -0.008507       0.000000
      0.002249      -0.008561       0.000000
      0.002244      -0.007171       0.000000
      0.000139      -0.008451       0.000000
      0.000148      -0.009822       0.000000
      0.001201      -0.009886       0.000000
      0.001194      -0.008507       0.000000
      0.000148      -0.009822       0.000000
      0.000156      -0.011191       0.000000
      0.001208      -0.011263       0.000000
      0.001201      -0.009886       0.000000
      0.001194      -0.008507       0.000000
      0.001201      -0.009886       0.000000
      0.002254      -0.009949       0.000000
      0.002249      -0.008561       0.000000
      0.001201      -0.009886       0.000000
      0.001208      -0.011263       0.000000
      0.002260      -0.011336       0.000000
      0.002254      -0.009949       0.000000
      0.000156      -0.011191       0.000000
      0.000165      -0.012558       0.000000
      0.001216      -0.012640       0.000000
      0.001208      -0.011263       0.000000
      0.000165      -0.012558       0.000000
      0.000174      -0.013924       0.000000
      0.001225      -0.014015       0.000000
      0.001216      -0.012640       0.000000
      0.001208      -0.011263       0.000000
      0.001216      -0.012640       0.000000
      0.002266      -0.012721       0.000000
      0.002260      -0.011336       0.000000
      0.001216      -0.012640       0.000000
      0.001225      -0.014015       0.000000
      0.002274      -0.014105       0.000000
      0.002266      -0.012721       0.000000
      0.000174      -0.013924       0.000000
      0.000185      -0.015289       0.000000
      0.001234      -0.015388       0.000000
      0.001225      -0.014015       0.000000
      0.000185      -0.015289       0.000000
      0.000196      -0.016651       0.000000
      0.001244      -0.016760       0.000000
      0.001234      -0.015388       0.000000
      0.001225      -0.014015       0.000000
      0.001234      -0.015388       0.000000
      0.002281      -0.015487       0.000000
      0.002274      -0.014105       0.000000
      0.001234      -0.015388       0.000000
      0.001244      -0.016760       0.000000
      0.002290      -0.016868       0.000000
      0.002281      -0.015487       0.000000
      0.000196      -0.016651       0.000000
      0.000208      -0.018012       0.000000
      0.001254      -0.018129       0.000000
      0.001244      -0.016760       0.000000
      0.000208      -0.018012       0.000000
      0.000221      -0.019371       0.000000
      0.001266      -0.019497       0.000000
      0.001254      -0.018129       0.000000
      0.001244      -0.016760       0.000000
      0.001254      -0.018129       0.000000
      0.002299      -0.018246       0.000000
      0.002290      -0.016868       0.000000
      0.001254      -0.018129       0.000000
      0.001266      -0.019497       0.000000
      0.002309      -0.019622       0.000000
      0.002299      -0.018246       0.000000
      0.000221      -0.019371       0.000000
      0.000235      -0.020727       0.000000
      0.001278      -0.020861       0.000000
      0.001266      -0.019497       0.000000
      0.000235      -0.020727       0.000000
      0.000250      -0.022080       0.000000
      0.001291      -0.022223       0.000000
      0.001278      -0.020861       0.000000
      0.001266      -0.019497       0.000000
      0.001278      -0.020861       0.000000
      0.002319      -0.020995       0.000000
      0.002309      -0.019622       0.000000
      0.001278      -0.020861       0.000000
      0.001291      -0.022223       0.000000
      0.002330      -0.022366       0.000000
      0.002319      -0.020995       0.000000
      0.000250      -0.022080       0.000000
      0.000265      -0.023430       0.000000
      0.001304      -0.023582       0.000000
      0.001291      -0.022223       0.000000
      0.000265      -0.023430       0.000000
      0.000281      -0.024777       0.000000
      0.001317      -0.024937       0.000000
      0.001304      -0.023582       0.000000
      0.001291      -0.022223       0.000000
      0.001304      -0.023582       0.000000
      0.002342      -0.023733       0.000000
      0.002330      -0.022366       0.000000
      0.001304      -0.023582       0.000000
      0.001317      -0.024937       0.000000
      0.002354      -0.025096       0.000000
      0.002342      -0.023733       0.000000
      0.000281      -0.024777       0.000000
      0.000296      -0.026120       0.000000
      0.001330      -0.026288       0.000000
      0.001317      -0.024937       0.000000
      0.000296      -0.026120       0.000000
      0.000309      -0.027461       0.000000
      0.001342      -0.027636       0.000000
      0.001330      -0.026288       0.000000
      0.001317      -0.024937       0.000000
      0.001330      -0.026288       0.000000
      0.002366      -0.026456       0.000000
      0.002354      -0.025096       0.000000
      0.001330      -0.026288       0.000000
      0.001342      -0.027636       0.000000
      0.002378      -0.027812       0.000000
      0.002366      -0.026456       0.000000
      0.000309      -0.027461       0.000000
      0.000320      -0.028799       0.000000
      0.001353      -0.028982       0.000000
      0.001342      -0.027636       0.000000
      0.000320      -0.028799       0.000000
      0.000327      -0.030136       0.000000
      0.001360      -0.030326       0.000000
      0.001353      -0.028982       0.000000
      0.001342      -0.027636       0.000000
      0.001353      -0.028982       0.000000
      0.002389      -0.029165       0.000000
      0.002378      -0.027812       0.000000
      0.001353      -0.028982       0.000000
      0.001360      -0.030326       0.000000
      0.002399      -0.030517       0.000000
      0.002389      -0.029165       0.000000
      0.000327      -0.030136       0.000000
      0.000329      -0.031476       0.000000
      0.001364      -0.031675       0.000000
      0.001360      -0.030326       0.000000
      0.000329      -0.031476       0.000000
      0.000328      -0.032822       0.000000
      0.001365      -0.033030       0.000000
      0.001364      -0.031675       0.000000
      0.001360      -0.030326       0.000000
      0.001364      -0.031675       0.000000
      0.002405      -0.031872       0.000000
      0.002399      -0.030517       0.000000
      0.001364      -0.031675       0.000000
      0.001365      -0.033030       0.000000
      0.002405      -0.033238       0.000000
      0.002405      -0.031872       0.000000
      0.002231      -0.000160       0.000000
      0.002238      -0.001575       0.000000
      0.003297      -0.001591       0.000000
      0.003290      -0.000181       0.000000
      0.002238      -0.001575       0.000000
      0.002237      -0.002986       0.000000
      0.003297      -0.003004       0.000000
      0.003297      -0.001591       0.000000
      0.003290      -0.000181       0.000000
      0.003297      -0.001591       0.000000
      0.004351      -0.001607       0.000000
      0.004346      -0.000195       0.000000
      0.003297      -0.001591       0.000000
      0.003297      -0.003004       0.000000
      0.004353      -0.003024       0.000000
      0.004351      -0.001607       0.000000
      0.002237      -0.002986       0.000000
      0.002237      -0.004386       0.000000
      0.003296      -0.004412       0.000000
      0.003297      -0.003004       0.000000
      0.002237      -0.004386       0.000000
      0.002240      -0.005780       0.000000
      0.003297      -0.005816       0.000000
      0.003296      -0.004412       0.000000
      0.003297      -0.003004       0.000000
      0.003296      -0.004412       0.000000
      0.004352      -0.004439       0.000000
      0.004353      -0.003024       0.000000
      0.003296      -0.004412       0.000000
      0.003297      -0.005816       0.000000
      0.004352      -0.005851       0.000000
      0.004352      -0.004439       0.000000
      0.002240      -0.005780       0.000000
      0.002244      -0.007171       0.000000
      0.003299      -0.007216       0.000000
      0.003297      -0.005816       0.000000
      0.002244      -0.007171       0.000000
      0.002249      -0.008561       0.000000
      0.003302      -0.008615       0.000000
      0.003299      -0.007216       0.000000
      0.003297      -0.005816       0.000000
      0.003299      -0.007216       0.000000
      0.004353      -0.007261       0.000000
      0.004352      -0.005851       0.000000
      0.003299      -0.007216       0.000000
      0.003302      -0.008615       0.000000
      0.004354      -0.008668       0.000000
      0.004353      -0.007261       0.000000
      0.002249      -0.008561       0.000000
      0.002254      -0.009949       0.000000
      0.003306      -0.010012       0.000000
      0.003302      -0.008615       0.000000
      0.002254      -0.009949       0.000000
      0.002260      -0.011336       0.000000
      0.003311      -0.011408       0.000000
      0.003306      -0.010012       0.000000
      0.003302      -0.008615       0.000000
      0.003306      -0.010012       0.000000
      0.004357      -0.010074       0.000000
      0.004354      -0.008668       0.000000
      0.003306      -0.010012       0.000000
      0.003311      -0.011408       0.000000
      0.004360      -0.011479       0.000000
      0.004357      -0.010074       0.000000
      0.002260      -0.011336       0.000000
      0.002266      -0.012721       0.000000
      0.003316      -0.012802       0.000000
      0.003311      -0.011408       0.000000
      0.002266      -0.012721       0.000000
      0.002274      -0.014105       0.000000
      0.003322      -0.014195       0.000000
      0.003316      -0.012802       0.000000
      0.003311      -0.011408       0.000000
      0.003316      -0.012802       0.000000
      0.004364      -0.012882       0.000000
      0.004360      -0.011479       0.000000
      0.003316      -0.012802       0.000000
      0.003322      -0.014195       0.000000
      0.004369      -0.014284       0.000000
      0.004364      -0.012882       0.000000
      0.002274      -0.014105       0.000000
      0.002281      -0.015487       0.000000
      0.003328      -0.015586       0.000000
      0.003322      -0.014195       0.000000
      0.002281      -0.015487       0.000000
      0.002290      -0.016868       0.000000
      0.003335      -0.016975       0.000000
      0.003328      -0.015586       0.000000
      0.003322      -0.014195       0.000000
      0.003328      -0.015586       0.000000
      0.004374      -0.015684       0.000000
      0.004369      -0.014284       0.000000
      0.003328      -0.015586       0.000000
      0.003335      -0.016975       0.000000
      0.004379      -0.017082       0.000000
      0.004374      -0.015684       0.000000
      0.002290      -0.016868       0.000000
      0.002299      -0.018246       0.000000
      0.003343      -0.018362       0.000000
      0.003335      -0.016975       0.000000
      0.002299      -0.018246       0.000000
      0.002309      -0.019622       0.000000
      0.003351      -0.019747       0.000000
      0.003343      -0.018362       0.000000
      0.003335      -0.016975       0.000000
      0.003343      -0.018362       0.000000
      0.004385      -0.018478       0.000000
      0.004379      -0.017082       0.000000
      0.003343      -0.018362       0.000000
      0.003351      -0.019747       0.000000
      0.004392      -0.019871       0.000000
      0.004385      -0.018478       0.000000
      0.002309      -0.019622       0.000000
      0.002319      -0.020995       0.000000
      0.003360      -0.021129       0.000000
      0.003351      -0.019747       0.000000
      0.002319      -0.020995       0.000000
      0.002330      -0.022366       0.000000
      0.003369      -0.022508       0.000000
      0.003360      -0.021129       0.000000
      0.003351      -0.019747       0.000000
      0.003360      -0.021129       0.000000
      0.004400      -0.021262       0.000000
      0.004392      -0.019871       0.000000
      0.003360      -0.021129       0.000000
      0.003369      -0.022508       0.000000
      0.004408      -0.022650       0.000000
      0.004400      -0.021262       0.000000
      0.002330      -0.022366       0.000000
      0.002342      -0.023733       0.000000
      0.003380      -0.023884       0.000000
      0.003369      -0.022508       0.000000
      0.002342      -0.023733       0.000000
      0.002354      -0.025096       0.000000
      0.003390      -0.025256       0.000000
      0.003380      -0.023884       0.000000
      0.003369      -0.022508       0.000000
      0.003380      -0.023884       0.000000
      0.004416      -0.024035       0.000000
      0.004408      -0.022650       0.000000
      0.003380      -0.023884       0.000000
      0.003390      -0.025256       0.000000
      0.004426      -0.025416       0.000000
      0.004416      -0.024035       0.000000
      0.002354      -0.025096       0.000000
      0.002366      -0.026456       0.000000
      0.003402      -0.026624       0.000000
      0.003390      -0.025256       0.000000
      0.002366      -0.026456       0.000000
      0.002378      -0.027812       0.000000
      0.003414      -0.027988       0.000000
      0.003402      -0.026624       0.000000
      0.003390      -0.025256       0.000000
      0.003402      -0.026624       0.000000
      0.004438      -0.026793       0.000000
      0.004426      -0.025416       0.000000
      0.003402      -0.026624       0.000000
      0.003414      -0.027988       0.000000
      0.004451      -0.028166       0.000000
      0.004438      -0.026793       0.000000
      0.002378      -0.027812       0.000000
      0.002389      -0.029165       0.000000
      0.003427      -0.029350       0.000000
      0.003414      -0.027988       0.000000
      0.002389      -0.029165       0.000000
      0.002399      -0.030517       0.000000
      0.003440      -0.030709       0.000000
      0.003427      -0.029350       0.000000
      0.003414      -0.027988       0.000000
      0.003427      -0.029350       0.000000
      0.004465      -0.029536       0.000000
      0.004451      -0.028166       0.000000
      0.003427      -0.029350       0.000000
      0.003440      -0.030709       0.000000
      0.004482      -0.030903       0.000000
      0.004465      -0.029536       0.000000
      0.002399      -0.030517       0.000000
      0.002402      -0.031194       0.000000
      0.002924      -0.031291       0.000000
      0.002919      -0.030613       0.000000
      0.002402      -0.031194       0.000000
      0.002405      -0.031872       0.000000
      0.002927      -0.031971       0.000000
      0.002924      -0.031291       0.000000
      0.002919      -0.030613       0.000000
      0.002924      -0.031291       0.000000
      0.003446      -0.031388       0.000000
      0.003440      -0.030709       0.000000
      0.002924      -0.031291       0.000000
      0.002927      -0.031971       0.000000
      0.003451      -0.032069       0.000000
      0.003446      -0.031388       0.000000
      0.002405      -0.031872       0.000000
      0.002406      -0.032553       0.000000
      0.002929      -0.032653       0.000000
      0.002927      -0.031971       0.000000
      0.002406      -0.032553       0.000000
      0.002405      -0.033238       0.000000
      0.002928      -0.033341       0.000000
      0.002929      -0.032653       0.000000
      0.002927      -0.031971       0.000000
      0.002929      -0.032653       0.000000
      0.003454      -0.032753       0.000000
      0.003451      -0.032069       0.000000
      0.002929      -0.032653       0.000000
      0.002928      -0.033341       0.000000
      0.003453      -0.033444       0.000000
      0.003454      -0.032753       0.000000
      0.003440      -0.030709       0.000000
      0.003446      -0.031388       0.000000
      0.003969      -0.031487       0.000000
      0.003961      -0.030805       0.000000
      0.003446      -0.031388       0.000000
      0.003451      -0.032069       0.000000
      0.003977      -0.032168       0.000000
      0.003969      -0.031487       0.000000
      0.003961      -0.030805       0.000000
      0.003969      -0.031487       0.000000
      0.004491      -0.031585       0.000000
      0.004482      -0.030903       0.000000
      0.003969      -0.031487       0.000000
      0.003977      -0.032168       0.000000
      0.004502      -0.032268       0.000000
      0.004491      -0.031585       0.000000
      0.003451      -0.032069       0.000000
      0.003453      -0.032410       0.000000
      0.003716      -0.032460       0.000000
      0.003714      -0.032118       0.000000
      0.003453      -0.032410       0.000000
      0.003454      -0.032753       0.000000
      0.003718      -0.032802       0.000000
      0.003716      -0.032460       0.000000
      0.003714      -0.032118       0.000000
      0.003716      -0.032460       0.000000
      0.003980      -0.032509       0.000000
      0.003977      -0.032168       0.000000
      0.003716      -0.032460       0.000000
      0.003718      -0.032802       0.000000
      0.003983      -0.032852       0.000000
      0.003980      -0.032509       0.000000
      0.003454      -0.032753       0.000000
      0.003454      -0.033097       0.000000
      0.003718      -0.033147       0.000000
      0.003718      -0.032802       0.000000
      0.003454      -0.033097       0.000000
      0.003453      -0.033444       0.000000
      0.003718      -0.033495       0.000000
      0.003718      -0.033147       0.000000
      0.003718      -0.032802       0.000000
      0.003718      -0.033147       0.000000
      0.003984      -0.033196       0.000000