# vtk DataFile Version 2.0
time_10.vtk
ASCII
DATASET UNSTRUCTURED_GRID
POINTS  3780 float
      0.000000       0.000000       0.000000
      0.162500       0.000000       0.000000
      0.163542       0.125000       0.000000
     -0.000000       0.125000       0.000000
      0.162500       0.000000       0.000000
      0.325000       0.000000       0.000000
      0.327083       0.125000       0.000000
      0.163542       0.125000       0.000000
     -0.000000       0.125000       0.000000
      0.163542       0.125000       0.000000
      0.164583       0.250000       0.000000
      0.000000       0.250000       0.000000
      0.163542       0.125000       0.000000
      0.327083       0.125000       0.000000
      0.329167       0.250000       0.000000
      0.164583       0.250000       0.000000
      0.325000       0.000000       0.000000
      0.487500       0.000000       0.000000
      0.490625       0.125000       0.000000
      0.327083       0.125000       0.000000
      0.487500       0.000000       0.000000
      0.650000       0.000000       0.000000
      0.654167       0.125000       0.000000
      0.490625       0.125000       0.000000
      0.327083       0.125000       0.000000
      0.490625       0.125000       0.000000
      0.493750       0.250000       0.000000
      0.329167       0.250000       0.000000
      0.490625       0.125000       0.000000
      0.654167       0.125000       0.000000
      0.658333       0.250000       0.000000
      0.493750       0.250000       0.000000
      0.650000       0.000000       0.000000
      0.812500       0.000000       0.000000
      0.817708       0.125000       0.000000
      0.654167       0.125000       0.000000
      0.812500       0.000000       0.000000
      0.975000       0.000000       0.000000
      0.981250       0.125000       0.000000
      0.817708       0.125000       0.000000
      0.654167       0.125000       0.000000
      0.817708       0.125000       0.000000
      0.822917       0.250000       0.000000
      0.658333       0.250000       0.000000
      0.817708       0.125000       0.000000
      0.981250       0.125000       0.000000
      0.987500       0.250000       0.000000
      0.822917       0.250000       0.000000
      0.975000       0.000000       0.000000
      1.137500      -0.000000       0.000000
      1.144792       0.125000       0.000000
      0.981250       0.125000       0.000000
      1.137500      -0.000000       0.000000
      1.300000       0.000000       0.000000
      1.308333       0.125000       0.000000
      1.144792       0.125000       0.000000
      0.981250       0.125000       0.000000
      1.144792       0.125000       0.000000
      1.152083       0.250000       0.000000
      0.987500       0.250000       0.000000
      1.144792       0.125000       0.000000
      1.308333       0.125000       0.000000
      1.316667       0.250000       0.000000
      1.152083       0.250000       0.000000
      1.300000       0.000000       0.000000
      1.462500       0.000000       0.000000
      1.471875       0.125000       0.000000
      1.308333       0.125000       0.000000
      1.462500       0.000000       0.000000
      1.625000       0.000000       0.000000
      1.635417       0.125000       0.000000
      1.471875       0.125000       0.000000
      1.308333       0.125000       0.000000
      1.471875       0.125000       0.000000
      1.481250       0.250000       0.000000
      1.316667       0.250000       0.000000
      1.471875       0.125000       0.000000
      1.635417       0.125000       0.000000
      1.645833       0.250000       0.000000
      1.481250       0.250000       0.000000
      1.625000       0.000000       0.000000
      1.787500      -0.000000       0.000000
      1.798958       0.125000       0.000000
      1.635417       0.125000       0.000000
      1.787500      -0.000000       0.000000
      1.950000       0.000000       0.000000
      1.962500       0.125000       0.000000
      1.798958       0.125000       0.000000
      1.635417       0.125000       0.000000
      1.798958       0.125000       0.000000
      1.810417       0.250000       0.000000
      1.645833       0.250000       0.000000
      1.798958       0.125000       0.000000
      1.962500       0.125000       0.000000
      1.975000       0.250000       0.000000
      1.810417       0.250000       0.000000
      1.950000       0.000000       0.000000
      2.112500      -0.000000       0.000000
      2.126042       0.125000       0.000000
      1.962500       0.125000       0.000000
      2.112500      -0.000000       0.000000
      2.275000       0.000000       0.000000
      2.289583       0.125000       0.000000
      2.126042       0.125000       0.000000
      1.962500       0.125000       0.000000
      2.126042       0.125000       0.000000
      2.139583       0.250000       0.000000
      1.975000       0.250000       0.000000
      2.126042       0.125000       0.000000
      2.289583       0.125000       0.000000
      2.304167       0.250000       0.000000
      2.139583       0.250000       0.000000
      2.275000       0.000000       0.000000
      2.437500       0.000000       0.000000
      2.453125       0.125000       0.000000
      2.289583       0.125000       0.000000
      2.437500       0.000000       0.000000
      2.600000       0.000000       0.000000
      2.616667       0.125000       0.000000
      2.453125       0.125000       0.000000
      2.289583       0.125000       0.000000
      2.453125       0.125000       0.000000
      2.468750       0.250000       0.000000
      2.304167       0.250000       0.000000
      2.453125       0.125000       0.000000
      2.616667       0.125000       0.000000
      2.633333       0.250000       0.000000
      2.468750       0.250000       0.000000
      2.600000       0.000000       0.000000
      2.762500       0.000000       0.000000
      2.780208       0.125000       0.000000
      2.616667       0.125000       0.000000
      2.762500       0.000000       0.000000
      2.925000       0.000000       0.000000
      2.943750       0.125000       0.000000
      2.780208       0.125000       0.000000
      2.616667       0.125000       0.000000
      2.780208       0.125000       0.000000
      2.797917       0.250000       0.000000
      2.633333       0.250000       0.000000
      2.780208       0.125000       0.000000
      2.943750       0.125000       0.000000
      2.962500       0.250000       0.000000
      2.797917       0.250000       0.000000
      2.925000       0.000000       0.000000
      3.087500       0.000000       0.000000
      3.107292       0.125000       0.000000
      2.943750       0.125000       0.000000
      3.087500       0.000000       0.000000
      3.250000       0.000000       0.000000
      3.270833       0.125000       0.000000
      3.107292       0.125000       0.000000
      2.943750       0.125000       0.000000
      3.107292       0.125000       0.000000
      3.127083       0.250000       0.000000
      2.962500       0.250000       0.000000
      3.107292       0.125000       0.000000
      3.270833       0.125000       0.000000
      3.291667       0.250000       0.000000
      3.127083       0.250000       0.000000
      3.250000       0.000000       0.000000
      3.412500       0.000000       0.000000
      3.434375       0.125000       0.000000
      3.270833       0.125000       0.000000
      3.412500       0.000000       0.000000
      3.575000       0.000000       0.000000
      3.597917       0.125000       0.000000
      3.434375       0.125000       0.000000
      3.270833       0.125000       0.000000
      3.434375       0.125000       0.000000
      3.456250       0.250000       0.000000
      3.291667       0.250000       0.000000
      3.434375       0.125000       0.000000
      3.597917       0.125000       0.000000
      3.620833       0.250000       0.000000
      3.456250       0.250000       0.000000
      3.575000       0.000000       0.000000
      3.737500      -0.000000       0.000000
      3.761458       0.125000       0.000000
      3.597917       0.125000       0.000000
      3.737500      -0.000000       0.000000
      3.900000       0.000000       0.000000
      3.925000       0.125000       0.000000
      3.761458       0.125000       0.000000
      3.597917       0.125000       0.000000
      3.761458       0.125000       0.000000
      3.785417       0.250000       0.000000
      3.620833       0.250000       0.000000
      3.761458       0.125000       0.000000
      3.925000       0.125000       0.000000
      3.950000       0.250000       0.000000
      3.785417       0.250000       0.000000
      0.000000       0.250000       0.000000
      0.164583       0.250000       0.000000
      0.165625       0.375000       0.000000
     -0.000000       0.375000       0.000000
      0.164583       0.250000       0.000000
      0.329167       0.250000       0.000000
      0.331250       0.375000       0.000000
      0.165625       0.375000       0.000000
     -0.000000       0.375000       0.000000
      0.165625       0.375000       0.000000
      0.166667       0.500000       0.000000
      0.000000       0.500000       0.000000
      0.165625       0.375000       0.000000
      0.331250       0.375000       0.000000
      0.333333       0.500000       0.000000
      0.166667       0.500000       0.000000
      0.329167       0.250000       0.000000
      0.493750       0.250000       0.000000
      0.496875       0.375000       0.000000
      0.331250       0.375000       0.000000
      0.493750       0.250000       0.000000
      0.658333       0.250000       0.000000
      0.662500       0.375000       0.000000
      0.496875       0.375000       0.000000
      0.331250       0.375000       0.000000
      0.496875       0.375000       0.000000
      0.500000       0.500000       0.000000
      0.333333       0.500000       0.000000
[...]
POINT_DATA  3780
VECTORS U float 
      0.000000       0.000000       0.000000
      0.000078      -0.001556       0.000000
      0.001176      -0.001573       0.000000
      0.001168      -0.000125       0.000000
      0.000078      -0.001556       0.000000
      0.000100      -0.002966       0.000000
      0.001178      -0.002988       0.000000
      0.001176      -0.001573       0.000000
      0.001168      -0.000125       0.000000
      0.001176      -0.001573       0.000000
      0.002254      -0.001585       0.000000
      0.002246      -0.000161       0.000000
      0.001176      -0.001573       0.000000
      0.001178      -0.002988       0.000000
      0.002252      -0.003006       0.000000
      0.002254      -0.001585       0.000000
      0.000100      -0.002966       0.000000
      0.000113      -0.004359       0.000000
      0.001183      -0.004389       0.000000
      0.001178      -0.002988       0.000000
      0.000113      -0.004359       0.000000
      0.000123      -0.005746       0.000000
      0.001189      -0.005784       0.000000
      0.001183      -0.004389       0.000000
      0.001178      -0.002988       0.000000
      0.001183      -0.004389       0.000000
      0.002253      -0.004416       0.000000
      0.002252      -0.003006       0.000000
      0.001183      -0.004389       0.000000
      0.001189      -0.005784       0.000000
      0.002256      -0.005821       0.000000
      0.002253      -0.004416       0.000000
      0.000123      -0.005746       0.000000
      0.000132      -0.007130       0.000000
      0.001196      -0.007177       0.000000
      0.001189      -0.005784       0.000000
      0.000132      -0.007130       0.000000
      0.000140      -0.008512       0.000000
      0.001202      -0.008567       0.000000
      0.001196      -0.007177       0.000000
      0.001189      -0.005784       0.000000
      0.001196      -0.007177       0.000000
      0.002260      -0.007222       0.000000
      0.002256      -0.005821       0.000000
      0.001196      -0.007177       0.000000
      0.001202      -0.008567       0.000000
      0.002264      -0.008622       0.000000
      0.002260      -0.007222       0.000000
      0.000140      -0.008512       0.000000
      0.000148      -0.009892       0.000000
      0.001209      -0.009956       0.000000
      0.001202      -0.008567       0.000000
      0.000148      -0.009892       0.000000
      0.000156      -0.011271       0.000000
      0.001216      -0.011344       0.000000
      0.001209      -0.009956       0.000000
      0.001202      -0.008567       0.000000
      0.001209      -0.009956       0.000000
      0.002270      -0.010020       0.000000
      0.002264      -0.008622       0.000000
      0.001209      -0.009956       0.000000
      0.001216      -0.011344       0.000000
      0.002276      -0.011417       0.000000
      0.002270      -0.010020       0.000000
      0.000156      -0.011271       0.000000
      0.000165      -0.012648       0.000000
      0.001224      -0.012730       0.000000
      0.001216      -0.011344       0.000000
      0.000165      -0.012648       0.000000
      0.000175      -0.014024       0.000000
      0.001233      -0.014115       0.000000
      0.001224      -0.012730       0.000000
      0.001216      -0.011344       0.000000
      0.001224      -0.012730       0.000000
      0.002282      -0.012812       0.000000
      0.002276      -0.011417       0.000000
      0.001224      -0.012730       0.000000
      0.001233      -0.014115       0.000000
      0.002289      -0.014206       0.000000
      0.002282      -0.012812       0.000000
      0.000175      -0.014024       0.000000
      0.000185      -0.015399       0.000000
      0.001242      -0.015499       0.000000
      0.001233      -0.014115       0.000000
      0.000185      -0.015399       0.000000
      0.000196      -0.016771       0.000000
      0.001252      -0.016880       0.000000
      0.001242      -0.015499       0.000000
      0.001233      -0.014115       0.000000
      0.001242      -0.015499       0.000000
      0.002297      -0.015599       0.000000
      0.002289      -0.014206       0.000000
      0.001242      -0.015499       0.000000
      0.001252      -0.016880       0.000000
      0.002306      -0.016989       0.000000
      0.002297      -0.015599       0.000000
      0.000196      -0.016771       0.000000
      0.000209      -0.018142       0.000000
      0.001262      -0.018260       0.000000
      0.001252      -0.016880       0.000000
      0.000209      -0.018142       0.000000
      0.000222      -0.019510       0.000000
      0.001274      -0.019637       0.000000
      0.001262      -0.018260       0.000000
      0.001252      -0.016880       0.000000
      0.001262      -0.018260       0.000000
      0.002315      -0.018377       0.000000
      0.002306      -0.016989       0.000000
      0.001262      -0.018260       0.000000
      0.001274      -0.019637       0.000000
      0.002325      -0.019763       0.000000
      0.002315      -0.018377       0.000000
      0.000222      -0.019510       0.000000
      0.000236      -0.020876       0.000000
      0.001286      -0.021012       0.000000
      0.001274      -0.019637       0.000000
      0.000236      -0.020876       0.000000
      0.000251      -0.022239       0.000000
      0.001299      -0.022384       0.000000
      0.001286      -0.021012       0.000000
      0.001274      -0.019637       0.000000
      0.001286      -0.021012       0.000000
      0.002335      -0.021147       0.000000
      0.002325      -0.019763       0.000000
      0.001286      -0.021012       0.000000
      0.001299      -0.022384       0.000000
      0.002346      -0.022527       0.000000
      0.002335      -0.021147       0.000000
      0.000251      -0.022239       0.000000
      0.000266      -0.023599       0.000000
      0.001312      -0.023752       0.000000
      0.001299      -0.022384       0.000000
      0.000266      -0.023599       0.000000
      0.000281      -0.024956       0.000000
      0.001326      -0.025117       0.000000
      0.001312      -0.023752       0.000000
      0.001299      -0.022384       0.000000
      0.001312      -0.023752       0.000000
      0.002358      -0.023904       0.000000
      0.002346      -0.022527       0.000000
      0.001312      -0.023752       0.000000
      0.001326      -0.025117       0.000000
      0.002370      -0.025278       0.000000
      0.002358      -0.023904       0.000000
      0.000281      -0.024956       0.000000
      0.000296      -0.026309       0.000000
      0.001339      -0.026479       0.000000
      0.001326      -0.025117       0.000000
      0.000296      -0.026309       0.000000
      0.000310      -0.027660       0.000000
      0.001351      -0.027836       0.000000
      0.001339      -0.026479       0.000000
      0.001326      -0.025117       0.000000
      0.001339      -0.026479       0.000000
      0.002382      -0.026647       0.000000
      0.002370      -0.025278       0.000000
      0.001339      -0.026479       0.000000
      0.001351      -0.027836       0.000000
      0.002394      -0.028013       0.000000
      0.002382      -0.026647       0.000000
      0.000310      -0.027660       0.000000
      0.000321      -0.029007       0.000000
      0.001361      -0.029192       0.000000
      0.001351      -0.027836       0.000000
      0.000321      -0.029007       0.000000
      0.000328      -0.030355       0.000000
      0.001369      -0.030546       0.000000
      0.001361      -0.029192       0.000000
      0.001351      -0.027836       0.000000
      0.001361      -0.029192       0.000000
      0.002405      -0.029376       0.000000
      0.002394      -0.028013       0.000000
      0.001361      -0.029192       0.000000
      0.001369      -0.030546       0.000000
      0.002415      -0.030739       0.000000
      0.002405      -0.029376       0.000000
      0.000328      -0.030355       0.000000
      0.000330      -0.031705       0.000000
      0.001373      -0.031905       0.000000
      0.001369      -0.030546       0.000000
      0.000330      -0.031705       0.000000
      0.000329      -0.033060       0.000000
      0.001373      -0.033269       0.000000
      0.001373      -0.031905       0.000000
      0.001369      -0.030546       0.000000
      0.001373      -0.031905       0.000000
      0.002421      -0.032104       0.000000
      0.002415      -0.030739       0.000000
      0.001373      -0.031905       0.000000
      0.001373      -0.033269       0.000000
      0.002421      -0.033479       0.000000
      0.002421      -0.032104       0.000000
      0.002246      -0.000161       0.000000
      0.002254      -0.001585       0.000000
      0.003320      -0.001601       0.000000
      0.003314      -0.000181       0.000000
      0.002254      -0.001585       0.000000
      0.002252      -0.003006       0.000000
      0.003320      -0.003025       0.000000
      0.003320      -0.001601       0.000000
      0.003314      -0.000181       0.000000
      0.003320      -0.001601       0.000000
      0.004382      -0.001618       0.000000
      0.004377      -0.000196       0.000000
      0.003320      -0.001601       0.000000
      0.003320      -0.003025       0.000000
      0.004384      -0.003045       0.000000
      0.004382      -0.001618       0.000000
      0.002252      -0.003006       0.000000
      0.002253      -0.004416       0.000000
      0.003320      -0.004443       0.000000
      0.003320      -0.003025       0.000000
      0.002253      -0.004416       0.000000
      0.002256      -0.005821       0.000000
      0.003320      -0.005857       0.000000
      0.003320      -0.004443       0.000000
      0.003320      -0.003025       0.000000
      0.003320      -0.004443       0.000000
      0.004383      -0.004470       0.000000
      0.004384      -0.003045       0.000000
      0.003320      -0.004443       0.000000
      0.003320      -0.005857       0.000000
      0.004383      -0.005892       0.000000
      0.004383      -0.004470       0.000000
      0.002256      -0.005821       0.000000
      0.002260      -0.007222       0.000000
      0.003322      -0.007268       0.000000
      0.003320      -0.005857       0.000000
      0.002260      -0.007222       0.000000
      0.002264      -0.008622       0.000000
      0.003325      -0.008676       0.000000
      0.003322      -0.007268       0.000000
      0.003320      -0.005857       0.000000
      0.003322      -0.007268       0.000000
      0.004384      -0.007312       0.000000
      0.004383      -0.005892       0.000000
      0.003322      -0.007268       0.000000
      0.003325      -0.008676       0.000000
      0.004385      -0.008730       0.000000
      0.004384      -0.007312       0.000000
      0.002264      -0.008622       0.000000
      0.002270      -0.010020       0.000000
      0.003329      -0.010084       0.000000
      0.003325      -0.008676       0.000000
      0.002270      -0.010020       0.000000
      0.002276      -0.011417       0.000000
      0.003334      -0.011489       0.000000
      0.003329      -0.010084       0.000000
      0.003325      -0.008676       0.000000
      0.003329      -0.010084       0.000000
      0.004388      -0.010146       0.000000
      0.004385      -0.008730       0.000000
      0.003329      -0.010084       0.000000
      0.003334      -0.011489       0.000000
      0.004391      -0.011561       0.000000
      0.004388      -0.010146       0.000000
      0.002276      -0.011417       0.000000
      0.002282      -0.012812       0.000000
      0.003339      -0.012894       0.000000
      0.003334      -0.011489       0.000000
      0.002282      -0.012812       0.000000
      0.002289      -0.014206       0.000000
      0.003345      -0.014297       0.000000
      0.003339      -0.012894       0.000000
      0.003334      -0.011489       0.000000
      0.003339      -0.012894       0.000000
      0.004395      -0.012975       0.000000
      0.004391      -0.011561       0.000000
      0.003339      -0.012894       0.000000
      0.003345      -0.014297       0.000000
      0.004400      -0.014386       0.000000
      0.004395      -0.012975       0.000000
      0.002289      -0.014206       0.000000
      0.002297      -0.015599       0.000000
      0.003351      -0.015698       0.000000
      0.003345      -0.014297       0.000000
      0.002297      -0.015599       0.000000
      0.002306      -0.016989       0.000000
      0.003358      -0.017097       0.000000
      0.003351      -0.015698       0.000000
      0.003345      -0.014297       0.000000
      0.003351      -0.015698       0.000000
      0.004405      -0.015797       0.000000
      0.004400      -0.014386       0.000000
      0.003351      -0.015698       0.000000
      0.003358      -0.017097       0.000000
      0.004410      -0.017205       0.000000
      0.004405      -0.015797       0.000000
      0.002306      -0.016989       0.000000
      0.002315      -0.018377       0.000000
      0.003366      -0.018494       0.000000
      0.003358      -0.017097       0.000000
      0.002315      -0.018377       0.000000
      0.002325      -0.019763       0.000000
      0.003374      -0.019889       0.000000
      0.003366      -0.018494       0.000000
      0.003358      -0.017097       0.000000
      0.003366      -0.018494       0.000000
      0.004416      -0.018611       0.000000
      0.004410      -0.017205       0.000000
      0.003366      -0.018494       0.000000
      0.003374      -0.019889       0.000000
      0.004423      -0.020015       0.000000
      0.004416      -0.018611       0.000000
      0.002325      -0.019763       0.000000
      0.002335      -0.021147       0.000000
      0.003383      -0.021281       0.000000
      0.003374      -0.019889       0.000000
      0.002335      -0.021147       0.000000
      0.002346      -0.022527       0.000000
      0.003393      -0.022671       0.000000
      0.003383      -0.021281       0.000000
      0.003374      -0.019889       0.000000
      0.003383      -0.021281       0.000000
      0.004431      -0.021416       0.000000
      0.004423      -0.020015       0.000000
      0.003383      -0.021281       0.000000
      0.003393      -0.022671       0.000000
      0.004439      -0.022814       0.000000
      0.004431      -0.021416       0.000000
      0.002346      -0.022527       0.000000
      0.002358      -0.023904       0.000000
      0.003403      -0.024056       0.000000
      0.003393      -0.022671       0.000000
      0.002358      -0.023904       0.000000
      0.002370      -0.025278       0.000000
      0.003414      -0.025439       0.000000
      0.003403      -0.024056       0.000000
      0.003393      -0.022671       0.000000
      0.003403      -0.024056       0.000000
      0.004448      -0.024208       0.000000
      0.004439      -0.022814       0.000000
      0.003403      -0.024056       0.000000
      0.003414      -0.025439       0.000000
      0.004458      -0.025599       0.000000
      0.004448      -0.024208       0.000000
      0.002370      -0.025278       0.000000
      0.002382      -0.026647       0.000000
      0.003426      -0.026817       0.000000
      0.003414      -0.025439       0.000000
      0.002382      -0.026647       0.000000
      0.002394      -0.028013       0.000000
      0.003438      -0.028191       0.000000
      0.003426      -0.026817       0.000000
      0.003414      -0.025439       0.000000
      0.003426      -0.026817       0.000000
      0.004469      -0.026987       0.000000
      0.004458      -0.025599       0.000000
      0.003426      -0.026817       0.000000
      0.003438      -0.028191       0.000000
      0.004482      -0.028370       0.000000
      0.004469      -0.026987       0.000000
      0.002394      -0.028013       0.000000
      0.002405      -0.029376       0.000000
      0.003451      -0.029562       0.000000
      0.003438      -0.028191       0.000000
      0.002405      -0.029376       0.000000
      0.002415      -0.030739       0.000000
      0.003464      -0.030932       0.000000
      0.003451      -0.029562       0.000000
      0.003438      -0.028191       0.000000
      0.003451      -0.029562       0.000000
      0.004496      -0.029750       0.000000
      0.004482      -0.028370       0.000000
      0.003451      -0.029562       0.000000
      0.003464      -0.030932       0.000000
      0.004513      -0.031127       0.000000
      0.004496      -0.029750       0.000000
      0.002415      -0.030739       0.000000
      0.002418      -0.031420       0.000000
      0.002944      -0.031518       0.000000
      0.002939      -0.030835       0.000000
      0.002418      -0.031420       0.000000
      0.002421      -0.032104       0.000000
      0.002947      -0.032203       0.000000
      0.002944      -0.031518       0.000000
      0.002939      -0.030835       0.000000
      0.002944      -0.031518       0.000000
      0.003470      -0.031616       0.000000
      0.003464      -0.030932       0.000000
      0.002944      -0.031518       0.000000
      0.002947      -0.032203       0.000000
      0.003475      -0.032302       0.000000
      0.003470      -0.031616       0.000000
      0.002421      -0.032104       0.000000
      0.002422      -0.032789       0.000000
      0.002948      -0.032890       0.000000
      0.002947      -0.032203       0.000000
      0.002422      -0.032789       0.000000
      0.002421      -0.033479       0.000000
      0.002948      -0.033583       0.000000
      0.002948      -0.032890       0.000000
      0.002947      -0.032203       0.000000
      0.002948      -0.032890       0.000000
      0.003478      -0.032990       0.000000
      0.003475      -0.032302       0.000000
      0.002948      -0.032890       0.000000
      0.002948      -0.033583       0.000000
      0.003477      -0.033687       0.000000
      0.003478      -0.032990       0.000000
      0.003464      -0.030932       0.000000
      0.003470      -0.031616       0.000000
      0.003997      -0.031715       0.000000
      0.003989      -0.031029       0.000000
      0.003470      -0.031616       0.000000
      0.003475      -0.032302       0.000000
      0.004004      -0.032402       0.000000
      0.003997      -0.031715       0.000000
      0.003989      -0.031029       0.000000
      0.003997      -0.031715       0.000000
      0.004523      -0.031815       0.000000
      0.004513      -0.031127       0.000000
      0.003997      -0.031715       0.000000
      0.004004      -0.032402       0.000000
      0.004533      -0.032503       0.000000
      0.004523      -0.031815       0.000000
      0.003475      -0.032302       0.000000
      0.003477      -0.032646       0.000000
      0.003742      -0.032695       0.000000
      0.003740      -0.032352       0.000000
      0.003477      -0.032646       0.000000
      0.003478      -0.032990       0.000000
      0.003744      -0.033040       0.000000
      0.003742      -0.032695       0.000000
      0.003740      -0.032352       0.000000
      0.003742      -0.032695       0.000000
      0.004008      -0.032745       0.000000
      0.004004      -0.032402       0.000000
      0.003742      -0.032695       0.000000
      0.003744      -0.033040       0.000000
      0.004011      -0.033090       0.000000
      0.004008      -0.032745       0.000000
      0.003478      -0.032990       0.000000
      0.003478      -0.033337       0.000000
      0.003744      -0.033387       0.000000
      0.003744      -0.033040       0.000000
      0.003478      -0.033337       0.000000
      0.003477      -0.033687       0.000000
      0.003743      -0.033738       0.000000
      0.003744      -0.033387       0.000000
      0.003744      -0.033040       0.000000
      0.003744      -0.033387       0.000000
      0.004012      -0.033437       0.000000