# vtk DataFile Version 2.0
time_10.vtk
ASCII
DATASET UNSTRUCTURED_GRID
POINTS  3648 float
      0.000000       0.000000       0.000000
      0.162500       0.000000       0.000000
      0.163542       0.125000       0.000000
     -0.000000       0.125000       0.000000
      0.162500       0.000000       0.000000
      0.325000       0.000000       0.000000
      0.327083       0.125000       0.000000
      0.163542       0.125000       0.000000
     -0.000000       0.125000       0.000000
      0.163542       0.125000       0.000000
      0.164583       0.250000       0.000000
      0.000000       0.250000       0.000000
      0.163542       0.125000       0.000000
      0.327083       0.125000       0.000000
      0.329167       0.250000       0.000000
      0.164583       0.250000       0.000000
      0.325000       0.000000       0.000000
      0.487500       0.000000       0.000000
      0.490625       0.125000       0.000000
      0.327083       0.125000       0.000000
      0.487500       0.000000       0.000000
      0.650000       0.000000       0.000000
      0.654167       0.125000       0.000000
      0.490625       0.125000       0.000000
      0.327083       0.125000       0.000000
      0.490625       0.125000       0.000000
      0.493750       0.250000       0.000000
      0.329167       0.250000       0.000000
      0.490625       0.125000       0.000000
      0.654167       0.125000       0.000000
      0.658333       0.250000       0.000000
      0.493750       0.250000       0.000000
      0.650000       0.000000       0.000000
      0.812500       0.000000       0.000000
      0.817708       0.125000       0.000000
      0.654167       0.125000       0.000000
      0.812500       0.000000       0.000000
      0.975000       0.000000       0.000000
      0.981250       0.125000       0.000000
      0.817708       0.125000       0.000000
      0.654167       0.125000       0.000000
      0.817708       0.125000       0.000000
      0.822917       0.250000       0.000000
      0.658333       0.250000       0.000000
      0.817708       0.125000       0.000000
      0.981250       0.125000       0.000000
      0.987500       0.250000       0.000000
      0.822917       0.250000       0.000000
      0.975000       0.000000       0.000000
      1.137500      -0.000000       0.000000
      1.144792       0.125000       0.000000
      0.981250       0.125000       0.000000
      1.137500      -0.000000       0.000000
      1.300000       0.000000       0.000000
      1.308333       0.125000       0.000000
      1.144792       0.125000       0.000000
      0.981250       0.125000       0.000000
      1.144792       0.125000       0.000000
      1.152083       0.250000       0.000000
      0.987500       0.250000       0.000000
      1.144792       0.125000       0.000000
      1.308333       0.125000       0.000000
      1.316667       0.250000       0.000000
      1.152083       0.250000       0.000000
      1.300000       0.000000       0.000000
      1.462500       0.000000       0.000000
      1.471875       0.125000       0.000000
      1.308333       0.125000       0.000000
      1.462500       0.000000       0.000000
      1.625000       0.000000       0.000000
      1.635417       0.125000       0.000000
      1.471875       0.125000       0.000000
      1.308333       0.125000       0.000000
      1.471875       0.125000       0.000000
      1.481250       0.250000       0.000000
      1.316667       0.250000       0.000000
      1.471875       0.125000       0.000000
      1.635417       0.125000       0.000000
      1.645833       0.250000       0.000000
      1.481250       0.250000       0.000000
      1.625000       0.000000       0.000000
      1.787500      -0.000000       0.000000
      1.798958       0.125000       0.000000
      1.635417       0.125000       0.000000
      1.787500      -0.000000       0.000000
      1.950000       0.000000       0.000000
      1.962500       0.125000       0.000000
      1.798958       0.125000       0.000000
      1.635417       0.125000       0.000000
      1.798958       0.125000       0.000000
      1.810417       0.250000       0.000000
      1.645833       0.250000       0.000000
      1.798958       0.125000       0.000000
      1.962500       0.125000       0.000000
      1.975000       0.250000       0.000000
      1.810417       0.250000       0.000000
      1.950000       0.000000       0.000000
      2.112500      -0.000000       0.000000
      2.126042       0.125000       0.000000
      1.962500       0.125000       0.000000
      2.112500      -0.000000       0.000000
      2.275000       0.000000       0.000000
      2.289583       0.125000       0.000000
      2.126042       0.125000       0.000000
      1.962500       0.125000       0.000000
      2.126042       0.125000       0.000000
      2.139583       0.250000       0.000000
      1.975000       0.250000       0.000000
      2.126042       0.125000       0.000000
      2.289583       0.125000       0.000000
      2.304167       0.250000       0.000000
      2.139583       0.250000       0.000000
      2.275000       0.000000       0.000000
      2.437500       0.000000       0.000000
      2.453125       0.125000       0.000000
      2.289583       0.125000       0.000000
      2.437500       0.000000       0.000000
      2.600000       0.000000       0.000000
      2.616667       0.125000       0.000000
      2.453125       0.125000       0.000000
      2.289583       0.125000       0.000000
      2.453125       0.125000       0.000000
      2.468750       0.250000       0.000000
      2.304167       0.250000       0.000000
      2.453125       0.125000       0.000000
      2.616667       0.125000       0.000000
      2.633333       0.250000       0.000000
      2.468750       0.250000       0.000000
      2.600000       0.000000       0.000000
      2.762500       0.000000       0.000000
      2.780208       0.125000       0.000000
      2.616667       0.125000       0.000000
      2.762500       0.000000       0.000000
      2.925000       0.000000       0.000000
      2.943750       0.125000       0.000000
      2.780208       0.125000       0.000000
      2.616667       0.125000       0.000000
      2.780208       0.125000       0.000000
      2.797917       0.250000       0.000000
      2.633333       0.250000       0.000000
      2.780208       0.125000       0.000000
      2.943750       0.125000       0.000000
      2.962500       0.250000       0.000000
      2.797917       0.250000       0.000000
      2.925000       0.000000       0.000000
      3.087500       0.000000       0.000000
      3.107292       0.125000       0.000000
      2.943750       0.125000       0.000000
      3.087500       0.000000       0.000000
      3.250000       0.000000       0.000000
      3.270833       0.125000       0.000000
      3.107292       0.125000       0.000000
      2.943750       0.125000       0.000000
      3.107292       0.125000       0.000000
      3.127083       0.250000       0.000000
      2.962500       0.250000       0.000000
      3.107292       0.125000       0.000000
      3.270833       0.125000       0.000000
      3.291667       0.250000       0.000000
      3.127083       0.250000       0.000000
      3.250000       0.000000       0.000000
      3.412500       0.000000       0.000000
      3.434375       0.125000       0.000000
      3.270833       0.125000       0.000000
      3.412500       0.000000       0.000000
      3.575000       0.000000       0.000000
      3.597917       0.125000       0.000000
      3.434375       0.125000       0.000000
      3.270833       0.125000       0.000000
      3.434375       0.125000       0.000000
      3.456250       0.250000       0.000000
      3.291667       0.250000       0.000000
      3.434375       0.125000       0.000000
      3.597917       0.125000       0.000000
      3.620833       0.250000       0.000000
      3.456250       0.250000       0.000000
      3.575000       0.000000       0.000000
      3.737500      -0.000000       0.000000
      3.761458       0.125000       0.000000
      3.597917       0.125000       0.000000
      3.737500      -0.000000       0.000000
      3.900000       0.000000       0.000000
      3.925000       0.125000       0.000000
      3.761458       0.125000       0.000000
      3.597917       0.125000       0.000000
      3.761458       0.125000       0.000000
      3.785417       0.250000       0.000000
      3.620833       0.250000       0.000000
      3.761458       0.125000       0.000000
      3.925000       0.125000       0.000000
      3.950000       0.250000       0.000000
      3.785417       0.250000       0.000000
      0.000000       0.250000       0.000000
      0.164583       0.250000       0.000000
      0.165625       0.375000       0.000000
     -0.000000       0.375000       0.000000
      0.164583       0.250000       0.000000
      0.329167       0.250000       0.000000
      0.331250       0.375000       0.000000
      0.165625       0.375000       0.000000
     -0.000000       0.375000       0.000000
      0.165625       0.375000       0.000000
      0.166667       0.500000       0.000000
      0.000000       0.500000       0.000000
      0.165625       0.375000       0.000000
      0.331250       0.375000       0.000000
      0.333333       0.500000       0.000000
      0.166667       0.500000       0.000000
      0.329167       0.250000       0.000000
      0.493750       0.250000       0.000000
      0.496875       0.375000       0.000000
      0.331250       0.375000       0.000000
      0.493750       0.250000       0.000000
      0.658333       0.250000       0.000000
      0.662500       0.375000       0.000000
      0.496875       0.375000       0.000000
      0.331250       0.375000       0.000000
      0.496875       0.375000       0.000000
      0.500000       0.500000       0.000000
      0.333333       0.500000       0.000000
[...]
POINT_DATA  3648
VECTORS U float 
      0.000000       0.000000       0.000000
      0.002150      -0.006249       0.000000
      0.004013      -0.006452       0.000000
      0.003808      -0.003828       0.000000
      0.002150      -0.006249       0.000000
      0.002645      -0.008284       0.000000
      0.004048      -0.008393       0.000000
      0.004013      -0.006452       0.000000
      0.003808      -0.003828       0.000000
      0.004013      -0.006452       0.000000
      0.005412      -0.006529       0.000000
      0.005244      -0.004577       0.000000
      0.004013      -0.006452       0.000000
      0.004048      -0.008393       0.000000
      0.005386      -0.008419       0.000000
      0.005412      -0.006529       0.000000
      0.002645      -0.008284       0.000000
      0.002931      -0.009935       0.000000
      0.004167      -0.010026       0.000000
      0.004048      -0.008393       0.000000
      0.002931      -0.009935       0.000000
      0.003143      -0.011455       0.000000
      0.004300      -0.011546       0.000000
      0.004167      -0.010026       0.000000
      0.004048      -0.008393       0.000000
      0.004167      -0.010026       0.000000
      0.005398      -0.010076       0.000000
      0.005386      -0.008419       0.000000
      0.004167      -0.010026       0.000000
      0.004300      -0.011546       0.000000
      0.005456      -0.011612       0.000000
      0.005398      -0.010076       0.000000
      0.003143      -0.011455       0.000000
      0.003326      -0.012908       0.000000
      0.004435      -0.013004       0.000000
      0.004300      -0.011546       0.000000
      0.003326      -0.012908       0.000000
      0.003497      -0.014319       0.000000
      0.004573      -0.014424       0.000000
      0.004435      -0.013004       0.000000
      0.004300      -0.011546       0.000000
      0.004435      -0.013004       0.000000
      0.005539      -0.013084       0.000000
      0.005456      -0.011612       0.000000
      0.004435      -0.013004       0.000000
      0.004573      -0.014424       0.000000
      0.005639      -0.014515       0.000000
      0.005539      -0.013084       0.000000
      0.003497      -0.014319       0.000000
      0.003668      -0.015697       0.000000
      0.004718      -0.015811       0.000000
      0.004573      -0.014424       0.000000
      0.003668      -0.015697       0.000000
      0.003846      -0.017045       0.000000
      0.004871      -0.017169       0.000000
      0.004718      -0.015811       0.000000
      0.004573      -0.014424       0.000000
      0.004718      -0.015811       0.000000
      0.005752      -0.015915       0.000000
      0.005639      -0.014515       0.000000
      0.004718      -0.015811       0.000000
      0.004871      -0.017169       0.000000
      0.005878      -0.017285       0.000000
      0.005752      -0.015915       0.000000
      0.003846      -0.017045       0.000000
      0.004035      -0.018363       0.000000
      0.005036      -0.018498       0.000000
      0.004871      -0.017169       0.000000
      0.004035      -0.018363       0.000000
      0.004237      -0.019649       0.000000
      0.005215      -0.019795       0.000000
      0.005036      -0.018498       0.000000
      0.004871      -0.017169       0.000000
      0.005036      -0.018498       0.000000
      0.006017      -0.018625       0.000000
      0.005878      -0.017285       0.000000
      0.005036      -0.018498       0.000000
      0.005215      -0.019795       0.000000
      0.006169      -0.019933       0.000000
      0.006017      -0.018625       0.000000
      0.004237      -0.019649       0.000000
      0.004456      -0.020901       0.000000
      0.005408      -0.021058       0.000000
      0.005215      -0.019795       0.000000
      0.004456      -0.020901       0.000000
      0.004692      -0.022114       0.000000
      0.005615      -0.022282       0.000000
      0.005408      -0.021058       0.000000
      0.005215      -0.019795       0.000000
      0.005408      -0.021058       0.000000
      0.006334      -0.021206       0.000000
      0.006169      -0.019933       0.000000
      0.005408      -0.021058       0.000000
      0.005615      -0.022282       0.000000
      0.006513      -0.022439       0.000000
      0.006334      -0.021206       0.000000
      0.004692      -0.022114       0.000000
      0.004945      -0.023286       0.000000
      0.005837      -0.023463       0.000000
      0.005615      -0.022282       0.000000
      0.004945      -0.023286       0.000000
      0.005215      -0.024412       0.000000
      0.006074      -0.024597       0.000000
      0.005837      -0.023463       0.000000
      0.005615      -0.022282       0.000000
      0.005837      -0.023463       0.000000
      0.006705      -0.023629       0.000000
      0.006513      -0.022439       0.000000
      0.005837      -0.023463       0.000000
      0.006074      -0.024597       0.000000
      0.006910      -0.024771       0.000000
      0.006705      -0.023629       0.000000
      0.005215      -0.024412       0.000000
      0.005499      -0.025488       0.000000
      0.006323      -0.025678       0.000000
      0.006074      -0.024597       0.000000
      0.005499      -0.025488       0.000000
      0.005794      -0.026509       0.000000
      0.006581      -0.026703       0.000000
      0.006323      -0.025678       0.000000
      0.006074      -0.024597       0.000000
      0.006323      -0.025678       0.000000
      0.007126      -0.025858       0.000000
      0.006910      -0.024771       0.000000
      0.006323      -0.025678       0.000000
      0.006581      -0.026703       0.000000
      0.007353      -0.026887       0.000000
      0.007126      -0.025858       0.000000
      0.005794      -0.026509       0.000000
      0.006095      -0.027473       0.000000
      0.006844      -0.027667       0.000000
      0.006581      -0.026703       0.000000
      0.006095      -0.027473       0.000000
      0.006393      -0.028377       0.000000
      0.007106      -0.028569       0.000000
      0.006844      -0.027667       0.000000
      0.006581      -0.026703       0.000000
      0.006844      -0.027667       0.000000
      0.007589      -0.027854       0.000000
      0.007353      -0.026887       0.000000
      0.006844      -0.027667       0.000000
      0.007106      -0.028569       0.000000
      0.007830      -0.028755       0.000000
      0.007589      -0.027854       0.000000
      0.006393      -0.028377       0.000000
      0.006674      -0.029225       0.000000
      0.007358      -0.029409       0.000000
      0.007106      -0.028569       0.000000
      0.006674      -0.029225       0.000000
      0.006919      -0.030027       0.000000
      0.007587      -0.030198       0.000000
      0.007358      -0.029409       0.000000
      0.007106      -0.028569       0.000000
      0.007358      -0.029409       0.000000
      0.008072      -0.029593       0.000000
      0.007830      -0.028755       0.000000
      0.007358      -0.029409       0.000000
      0.007587      -0.030198       0.000000
      0.008312      -0.030377       0.000000
      0.008072      -0.029593       0.000000
      0.006919      -0.030027       0.000000
      0.007102      -0.030806       0.000000
      0.007779      -0.030960       0.000000
      0.007587      -0.030198       0.000000
      0.007102      -0.030806       0.000000
      0.007197      -0.031609       0.000000
      0.007914      -0.031750       0.000000
      0.007779      -0.030960       0.000000
      0.007587      -0.030198       0.000000
      0.007779      -0.030960       0.000000
      0.008539      -0.031130       0.000000
      0.008312      -0.030377       0.000000
      0.007779      -0.030960       0.000000
      0.007914      -0.031750       0.000000
      0.008734      -0.031900       0.000000
      0.008539      -0.031130       0.000000
      0.007197      -0.031609       0.000000
      0.007204      -0.032506       0.000000
      0.007978      -0.032647       0.000000
      0.007914      -0.031750       0.000000
      0.007204      -0.032506       0.000000
      0.007188      -0.033521       0.000000
      0.007987      -0.033693       0.000000
      0.007978      -0.032647       0.000000
      0.007914      -0.031750       0.000000
      0.007978      -0.032647       0.000000
      0.008848      -0.032776       0.000000
      0.008734      -0.031900       0.000000
      0.007978      -0.032647       0.000000
      0.007987      -0.033693       0.000000
      0.008862      -0.033895       0.000000
      0.008848      -0.032776       0.000000
      0.005244      -0.004577       0.000000
      0.005412      -0.006529       0.000000
      0.006574      -0.006691       0.000000
      0.006434      -0.005011       0.000000
      0.005412      -0.006529       0.000000
      0.005386      -0.008419       0.000000
      0.006581      -0.008455       0.000000
      0.006574      -0.006691       0.000000
      0.006434      -0.005011       0.000000
      0.006574      -0.006691       0.000000
      0.007644      -0.006862       0.000000
      0.007529      -0.005317       0.000000
      0.006574      -0.006691       0.000000
      0.006581      -0.008455       0.000000
      0.007673      -0.008518       0.000000
      0.007644      -0.006862       0.000000
      0.005386      -0.008419       0.000000
      0.005398      -0.010076       0.000000
      0.006566      -0.010107       0.000000
      0.006581      -0.008455       0.000000
      0.005398      -0.010076       0.000000
      0.005456      -0.011612       0.000000
      0.006579      -0.011659       0.000000
      0.006566      -0.010107       0.000000
      0.006581      -0.008455       0.000000
      0.006566      -0.010107       0.000000
      0.007662      -0.010140       0.000000
      0.007673      -0.008518       0.000000
      0.006566      -0.010107       0.000000
      0.006579      -0.011659       0.000000
      0.007657      -0.011697       0.000000
      0.007662      -0.010140       0.000000
      0.005456      -0.011612       0.000000
      0.005539      -0.013084       0.000000
      0.006621      -0.013148       0.000000
      0.006579      -0.011659       0.000000
      0.005539      -0.013084       0.000000
      0.005639      -0.014515       0.000000
      0.006686      -0.014594       0.000000
      0.006621      -0.013148       0.000000
      0.006579      -0.011659       0.000000
      0.006621      -0.013148       0.000000
      0.007673      -0.013200       0.000000
      0.007657      -0.011697       0.000000
      0.006621      -0.013148       0.000000
      0.006686      -0.014594       0.000000
      0.007709      -0.014661       0.000000
      0.007673      -0.013200       0.000000
      0.005639      -0.014515       0.000000
      0.005752      -0.015915       0.000000
      0.006768      -0.016007       0.000000
      0.006686      -0.014594       0.000000
      0.005752      -0.015915       0.000000
      0.005878      -0.017285       0.000000
      0.006866      -0.017389       0.000000
      0.006768      -0.016007       0.000000
      0.006686      -0.014594       0.000000
      0.006768      -0.016007       0.000000
      0.007764      -0.016088       0.000000
      0.007709      -0.014661       0.000000
      0.006768      -0.016007       0.000000
      0.006866      -0.017389       0.000000
      0.007834      -0.017484       0.000000
      0.007764      -0.016088       0.000000
      0.005878      -0.017285       0.000000
      0.006017      -0.018625       0.000000
      0.006977      -0.018741       0.000000
      0.006866      -0.017389       0.000000
      0.006017      -0.018625       0.000000
      0.006169      -0.019933       0.000000
      0.007101      -0.020061       0.000000
      0.006977      -0.018741       0.000000
      0.006866      -0.017389       0.000000
      0.006977      -0.018741       0.000000
      0.007918      -0.018848       0.000000
      0.007834      -0.017484       0.000000
      0.006977      -0.018741       0.000000
      0.007101      -0.020061       0.000000
      0.008014      -0.020179       0.000000
      0.007918      -0.018848       0.000000
      0.006169      -0.019933       0.000000
      0.006334      -0.021206       0.000000
      0.007238      -0.021344       0.000000
      0.007101      -0.020061       0.000000
      0.006334      -0.021206       0.000000
      0.006513      -0.022439       0.000000
      0.007388      -0.022587       0.000000
      0.007238      -0.021344       0.000000
      0.007101      -0.020061       0.000000
      0.007238      -0.021344       0.000000
      0.008123      -0.021473       0.000000
      0.008014      -0.020179       0.000000
      0.007238      -0.021344       0.000000
      0.007388      -0.022587       0.000000
      0.008243      -0.022726       0.000000
      0.008123      -0.021473       0.000000
      0.006513      -0.022439       0.000000
      0.006705      -0.023629       0.000000
      0.007550      -0.023786       0.000000
      0.007388      -0.022587       0.000000
      0.006705      -0.023629       0.000000
      0.006910      -0.024771       0.000000
      0.007725      -0.024936       0.000000
      0.007550      -0.023786       0.000000
      0.007388      -0.022587       0.000000
      0.007550      -0.023786       0.000000
      0.008376      -0.023935       0.000000
      0.008243      -0.022726       0.000000
      0.007550      -0.023786       0.000000
      0.007725      -0.024936       0.000000
      0.008521      -0.025093       0.000000
      0.008376      -0.023935       0.000000
      0.006910      -0.024771       0.000000
      0.007126      -0.025858       0.000000
      0.007912      -0.026031       0.000000
      0.007725      -0.024936       0.000000
      0.007126      -0.025858       0.000000
      0.007353      -0.026887       0.000000
      0.008112      -0.027066       0.000000
      0.007912      -0.026031       0.000000
      0.007725      -0.024936       0.000000
      0.007912      -0.026031       0.000000
      0.008680      -0.026197       0.000000
      0.008521      -0.025093       0.000000
      0.007912      -0.026031       0.000000
      0.008112      -0.027066       0.000000
      0.008855      -0.027242       0.000000
      0.008680      -0.026197       0.000000
      0.007353      -0.026887       0.000000
      0.007589      -0.027854       0.000000
      0.008325      -0.028039       0.000000
      0.008112      -0.027066       0.000000
      0.007589      -0.027854       0.000000
      0.007830      -0.028755       0.000000
      0.008553      -0.028946       0.000000
      0.008325      -0.028039       0.000000
      0.008112      -0.027066       0.000000
      0.008325      -0.028039       0.000000
      0.009047      -0.028224       0.000000
      0.008855      -0.027242       0.000000
      0.008325      -0.028039       0.000000
      0.008553      -0.028946       0.000000
      0.009263      -0.029143       0.000000
      0.009047      -0.028224       0.000000
      0.007830      -0.028755       0.000000
      0.008072      -0.029593       0.000000
      0.008797      -0.029789       0.000000
      0.008553      -0.028946       0.000000
      0.008072      -0.029593       0.000000
      0.008312      -0.030377       0.000000
      0.009059      -0.030576       0.000000
      0.008797      -0.029789       0.000000
      0.008553      -0.028946       0.000000
      0.008797      -0.029789       0.000000
      0.009508      -0.029999       0.000000
      0.009263      -0.029143       0.000000
      0.008797      -0.029789       0.000000
      0.009059      -0.030576       0.000000
      0.009792      -0.030801       0.000000
      0.009508      -0.029999       0.000000
      0.008312      -0.030377       0.000000
      0.008539      -0.031130       0.000000
      0.009340      -0.031327       0.000000
      0.009059      -0.030576       0.000000
      0.008539      -0.031130       0.000000
      0.008734      -0.031900       0.000000
      0.009629      -0.032074       0.000000
      0.009340      -0.031327       0.000000
      0.009059      -0.030576       0.000000
      0.009340      -0.031327       0.000000
      0.010126      -0.031563       0.000000
      0.009792      -0.030801       0.000000
      0.009340      -0.031327       0.000000
      0.009629      -0.032074       0.000000
      0.010530      -0.032307       0.000000
      0.010126      -0.031563       0.000000
      0.008734      -0.031900       0.000000
      0.008804      -0.032317       0.000000
      0.009271      -0.032387       0.000000
      0.009174      -0.031982       0.000000
      0.008804      -0.032317       0.000000
      0.008848      -0.032776       0.000000
      0.009338      -0.032834       0.000000
      0.009271      -0.032387       0.000000
      0.009174      -0.031982       0.000000
      0.009271      -0.032387       0.000000
      0.009764      -0.032466       0.000000
      0.009629      -0.032074       0.000000
      0.009271      -0.032387       0.000000
      0.009338      -0.032834       0.000000
      0.009874      -0.032893       0.000000
      0.009764      -0.032466       0.000000
      0.008848      -0.032776       0.000000
      0.008862      -0.033299       0.000000
      0.009363      -0.033360       0.000000
      0.009338      -0.032834       0.000000
      0.008862      -0.033299       0.000000
      0.008862      -0.033895       0.000000
      0.009360      -0.034003       0.000000
      0.009363      -0.033360       0.000000
      0.009338      -0.032834       0.000000
      0.009363      -0.033360       0.000000
      0.009932      -0.033409       0.000000
      0.009874      -0.032893       0.000000
      0.009363      -0.033360       0.000000
      0.009360      -0.034003       0.000000
      0.009928      -0.034117       0.000000
      0.009932      -0.033409       0.000000
      0.009629      -0.032074       0.000000
      0.009764      -0.032466       0.000000
      0.010272      -0.032562       0.000000
      0.010087      -0.032181       0.000000
      0.009764      -0.032466       0.000000
      0.009874      -0.032893       0.000000
      0.010458      -0.032968       0.000000
      0.010272      -0.032562       0.000000
      0.010087      -0.032181       0.000000
      0.010272      -0.032562       0.000000
      0.010769      -0.032686       0.000000
      0.010530      -0.032307       0.000000
      0.010272      -0.032562       0.000000
      0.010458      -0.032968       0.000000
      0.011050      -0.033085       0.000000
      0.010769      -0.032686       0.000000
      0.009874      -0.032893       0.000000
      0.009912      -0.033135       0.000000
      0.010218      -0.033161       0.000000
      0.010161      -0.032927       0.000000
      0.009912      -0.033135       0.000000
      0.009932      -0.033409       0.000000
      0.010255      -0.033429       0.000000
      0.010218      -0.033161       0.000000
      0.010161      -0.032927       0.000000
      0.010218      -0.033161       0.000000
      0.010543      -0.033193       0.000000
      0.010458      -0.032968       0.000000
      0.010218      -0.033161       0.000000
      0.010255      -0.033429       0.000000
      0.010612      -0.033449       0.000000
      0.010543      -0.033193       0.000000
      0.009932      -0.033409       0.000000
      0.009934      -0.033734       0.000000
      0.010264      -0.033759       0.000000
      0.010255      -0.033429       0.000000
      0.009934      -0.033734       0.000000
      0.009928      -0.034117       0.000000
      0.010256      -0.034178       0.000000
      0.010264      -0.033759       0.000000
      0.010255      -0.033429       0.000000
      0.010264      -0.033759       0.000000
      0.010645      -0.033776       0.000000