# vtk DataFile Version 2.0
time_10.vtk
ASCII
DATASET UNSTRUCTURED_GRID
POINTS  3648 float
      0.000000       0.000000       0.000000
      0.162500       0.000000       0.000000
      0.163542       0.125000       0.000000
     -0.000000       0.125000       0.000000
      0.162500       0.000000       0.000000
      0.325000       0.000000       0.000000
      0.327083       0.125000       0.000000
      0.163542       0.125000       0.000000
     -0.000000       0.125000       0.000000
      0.163542       0.125000       0.000000
      0.164583       0.250000       0.000000
      0.000000       0.250000       0.000000
      0.163542       0.125000       0.000000
      0.327083       0.125000       0.000000
      0.329167       0.250000       0.000000
      0.164583       0.250000       0.000000
      0.325000       0.000000       0.000000
      0.487500       0.000000       0.000000
      0.490625       0.125000       0.000000
      0.327083       0.125000       0.000000
      0.487500       0.000000       0.000000
      0.650000       0.000000       0.000000
      0.654167       0.125000       0.000000
      0.490625       0.125000       0.000000
      0.327083       0.125000       0.000000
      0.490625       0.125000       0.000000
      0.493750       0.250000       0.000000
      0.329167       0.250000       0.000000
      0.490625       0.125000       0.000000
      0.654167       0.125000       0.000000
      0.658333       0.250000       0.000000
      0.493750       0.250000       0.000000
      0.650000       0.000000       0.000000
      0.812500       0.000000       0.000000
      0.817708       0.125000       0.000000
      0.654167       0.125000       0.000000
      0.812500       0.000000       0.000000
      0.975000       0.000000       0.000000
      0.981250       0.125000       0.000000
      0.817708       0.125000       0.000000
      0.654167       0.125000       0.000000
      0.817708       0.125000       0.000000
      0.822917       0.250000       0.000000
      0.658333       0.250000       0.000000
      0.817708       0.125000       0.000000
      0.981250       0.125000       0.000000
      0.987500       0.250000       0.000000
      0.822917       0.250000       0.000000
      0.975000       0.000000       0.000000
      1.137500      -0.000000       0.000000
      1.144792       0.125000       0.000000
      0.981250       0.125000       0.000000
      1.137500      -0.000000       0.000000
      1.300000       0.000000       0.000000
      1.308333       0.125000       0.000000
      1.144792       0.125000       0.000000
      0.981250       0.125000       0.000000
      1.144792       0.125000       0.000000
      1.152083       0.250000       0.000000
      0.987500       0.250000       0.000000
      1.144792       0.125000       0.000000
      1.308333       0.125000       0.000000
      1.316667       0.250000       0.000000
      1.152083       0.250000       0.000000
      1.300000       0.000000       0.000000
      1.462500       0.000000       0.000000
      1.471875       0.125000       0.000000
      1.308333       0.125000       0.000000
      1.462500       0.000000       0.000000
      1.625000       0.000000       0.000000
      1.635417       0.125000       0.000000
      1.471875       0.125000       0.000000
      1.308333       0.125000       0.000000
      1.471875       0.125000       0.000000
      1.481250       0.250000       0.000000
      1.316667       0.250000       0.000000
      1.471875       0.125000       0.000000
      1.635417       0.125000       0.000000
      1.645833       0.250000       0.000000
      1.481250       0.250000       0.000000
      1.625000       0.000000       0.000000
      1.787500      -0.000000       0.000000
      1.798958       0.125000       0.000000
      1.635417       0.125000       0.000000
      1.787500      -0.000000       0.000000
      1.950000       0.000000       0.000000
      1.962500       0.125000       0.000000
      1.798958       0.125000       0.000000
      1.635417       0.125000       0.000000
      1.798958       0.125000       0.000000
      1.810417       0.250000       0.000000
      1.645833       0.250000       0.000000
      1.798958       0.125000       0.000000
      1.962500       0.125000       0.000000
      1.975000       0.250000       0.000000
      1.810417       0.250000       0.000000
      1.950000       0.000000       0.000000
      2.112500      -0.000000       0.000000
      2.126042       0.125000       0.000000
      1.962500       0.125000       0.000000
      2.112500      -0.000000       0.000000
      2.275000       0.000000       0.000000
      2.289583       0.125000       0.000000
      2.126042       0.125000       0.000000
      1.962500       0.125000       0.000000
      2.126042       0.125000       0.000000
      2.139583       0.250000       0.000000
      1.975000       0.250000       0.000000
      2.126042       0.125000       0.000000
      2.289583       0.125000       0.000000
      2.304167       0.250000       0.000000
      2.139583       0.250000       0.000000
      2.275000       0.000000       0.000000
      2.437500       0.000000       0.000000
      2.453125       0.125000       0.000000
      2.289583       0.125000       0.000000
      2.437500       0.000000       0.000000
      2.600000       0.000000       0.000000
      2.616667       0.125000       0.000000
      2.453125       0.125000       0.000000
      2.289583       0.125000       0.000000
      2.453125       0.125000       0.000000
      2.468750       0.250000       0.000000
      2.304167       0.250000       0.000000
      2.453125       0.125000       0.000000
      2.616667       0.125000       0.000000
      2.633333       0.250000       0.000000
      2.468750       0.250000       0.000000
      2.600000       0.000000       0.000000
      2.762500       0.000000       0.000000
      2.780208       0.125000       0.000000
      2.616667       0.125000       0.000000
      2.762500       0.000000       0.000000
      2.925000       0.000000       0.000000
      2.943750       0.125000       0.000000
      2.780208       0.125000       0.000000
      2.616667       0.125000       0.000000
      2.780208       0.125000       0.000000
      2.797917       0.250000       0.000000
      2.633333       0.250000       0.000000
      2.780208       0.125000       0.000000
      2.943750       0.125000       0.000000
      2.962500       0.250000       0.000000
      2.797917       0.250000       0.000000
      2.925000       0.000000       0.000000
      3.087500       0.000000       0.000000
      3.107292       0.125000       0.000000
      2.943750       0.125000       0.000000
      3.087500       0.000000       0.000000
      3.250000       0.000000       0.000000
      3.270833       0.125000       0.000000
      3.107292       0.125000       0.000000
      2.943750       0.125000       0.000000
      3.107292       0.125000       0.000000
      3.127083       0.250000       0.000000
      2.962500       0.250000       0.000000
      3.107292       0.125000       0.000000
      3.270833       0.125000       0.000000
      3.291667       0.250000       0.000000
      3.127083       0.250000       0.000000
      3.250000       0.000000       0.000000
      3.412500       0.000000       0.000000
      3.434375       0.125000       0.000000
      3.270833       0.125000       0.000000
      3.412500       0.000000       0.000000
      3.575000       0.000000       0.000000
      3.597917       0.125000       0.000000
      3.434375       0.125000       0.000000
      3.270833       0.125000       0.000000
      3.434375       0.125000       0.000000
      3.456250       0.250000       0.000000
      3.291667       0.250000       0.000000
      3.434375       0.125000       0.000000
      3.597917       0.125000       0.000000
      3.620833       0.250000       0.000000
      3.456250       0.250000       0.000000
      3.575000       0.000000       0.000000
      3.737500      -0.000000       0.000000
      3.761458       0.125000       0.000000
      3.597917       0.125000       0.000000
      3.737500      -0.000000       0.000000
      3.900000       0.000000       0.000000
      3.925000       0.125000       0.000000
      3.761458       0.125000       0.000000
      3.597917       0.125000       0.000000
      3.761458       0.125000       0.000000
      3.785417       0.250000       0.000000
      3.620833       0.250000       0.000000
      3.761458       0.125000       0.000000
      3.925000       0.125000       0.000000
      3.950000       0.250000       0.000000
      3.785417       0.250000       0.000000
      0.000000       0.250000       0.000000
      0.164583       0.250000       0.000000
      0.165625       0.375000       0.000000
     -0.000000       0.375000       0.000000
      0.164583       0.250000       0.000000
      0.329167       0.250000       0.000000
      0.331250       0.375000       0.000000
      0.165625       0.375000       0.000000
     -0.000000       0.375000       0.000000
      0.165625       0.375000       0.000000
      0.166667       0.500000       0.000000
      0.000000       0.500000       0.000000
      0.165625       0.375000       0.000000
      0.331250       0.375000       0.000000
      0.333333       0.500000       0.000000
      0.166667       0.500000       0.000000
      0.329167       0.250000       0.000000
      0.493750       0.250000       0.000000
      0.496875       0.375000       0.000000
      0.331250       0.375000       0.000000
      0.493750       0.250000       0.000000
      0.658333       0.250000       0.000000
      0.662500       0.375000       0.000000
      0.496875       0.375000       0.000000
      0.331250       0.375000       0.000000
      0.496875       0.375000       0.000000
      0.500000       0.500000       0.000000
      0.333333       0.500000       0.000000
[...]
POINT_DATA  3648
VECTORS U float 
      0.000000       0.000000       0.000000
      0.001395      -0.004197       0.000000
      0.002791      -0.004343       0.000000
      0.002659      -0.002344       0.000000
      0.001395      -0.004197       0.000000
      0.001765      -0.005721       0.000000
      0.002821      -0.005802       0.000000
      0.002791      -0.004343       0.000000
      0.002659      -0.002344       0.000000
      0.002791      -0.004343       0.000000
      0.003849      -0.004399       0.000000
      0.003725      -0.002923       0.000000
      0.002791      -0.004343       0.000000
      0.002821      -0.005802       0.000000
      0.003829      -0.005823       0.000000
      0.003849      -0.004399       0.000000
      0.001765      -0.005721       0.000000
      0.001982      -0.006963       0.000000
      0.002912      -0.007032       0.000000
      0.002821      -0.005802       0.000000
      0.001982      -0.006963       0.000000
      0.002144      -0.008106       0.000000
      0.003014      -0.008175       0.000000
      0.002912      -0.007032       0.000000
      0.002821      -0.005802       0.000000
      0.002912      -0.007032       0.000000
      0.003839      -0.007070       0.000000
      0.003829      -0.005823       0.000000
      0.002912      -0.007032       0.000000
      0.003014      -0.008175       0.000000
      0.003883      -0.008225       0.000000
      0.003839      -0.007070       0.000000
      0.002144      -0.008106       0.000000
      0.002282      -0.009199       0.000000
      0.003116      -0.009272       0.000000
      0.003014      -0.008175       0.000000
      0.002282      -0.009199       0.000000
      0.002413      -0.010260       0.000000
      0.003221      -0.010338       0.000000
      0.003116      -0.009272       0.000000
      0.003014      -0.008175       0.000000
      0.003116      -0.009272       0.000000
      0.003946      -0.009332       0.000000
      0.003883      -0.008225       0.000000
      0.003116      -0.009272       0.000000
      0.003221      -0.010338       0.000000
      0.004022      -0.010408       0.000000
      0.003946      -0.009332       0.000000
      0.002413      -0.010260       0.000000
      0.002543      -0.011295       0.000000
      0.003331      -0.011381       0.000000
      0.003221      -0.010338       0.000000
      0.002543      -0.011295       0.000000
      0.002678      -0.012307       0.000000
      0.003448      -0.012401       0.000000
      0.003331      -0.011381       0.000000
      0.003221      -0.010338       0.000000
      0.003331      -0.011381       0.000000
      0.004108      -0.011459       0.000000
      0.004022      -0.010408       0.000000
      0.003331      -0.011381       0.000000
      0.003448      -0.012401       0.000000
      0.004204      -0.012488       0.000000
      0.004108      -0.011459       0.000000
      0.002678      -0.012307       0.000000
      0.002822      -0.013297       0.000000
      0.003574      -0.013399       0.000000
      0.003448      -0.012401       0.000000
      0.002822      -0.013297       0.000000
      0.002977      -0.014262       0.000000
      0.003710      -0.014373       0.000000
      0.003574      -0.013399       0.000000
      0.003448      -0.012401       0.000000
      0.003574      -0.013399       0.000000
      0.004310      -0.013495       0.000000
      0.004204      -0.012488       0.000000
      0.003574      -0.013399       0.000000
      0.003710      -0.014373       0.000000
      0.004426      -0.014476       0.000000
      0.004310      -0.013495       0.000000
      0.002977      -0.014262       0.000000
      0.003143      -0.015201       0.000000
      0.003857      -0.015320       0.000000
      0.003710      -0.014373       0.000000
      0.003143      -0.015201       0.000000
      0.003323      -0.016112       0.000000
      0.004015      -0.016238       0.000000
      0.003857      -0.015320       0.000000
      0.003710      -0.014373       0.000000
      0.003857      -0.015320       0.000000
      0.004551      -0.015432       0.000000
      0.004426      -0.014476       0.000000
      0.003857      -0.015320       0.000000
      0.004015      -0.016238       0.000000
      0.004687      -0.016357       0.000000
      0.004551      -0.015432       0.000000
      0.003323      -0.016112       0.000000
      0.003515      -0.016990       0.000000
      0.004184      -0.017123       0.000000
      0.004015      -0.016238       0.000000
      0.003515      -0.016990       0.000000
      0.003720      -0.017834       0.000000
      0.004364      -0.017973       0.000000
      0.004184      -0.017123       0.000000
      0.004015      -0.016238       0.000000
      0.004184      -0.017123       0.000000
      0.004834      -0.017249       0.000000
      0.004687      -0.016357       0.000000
      0.004184      -0.017123       0.000000
      0.004364      -0.017973       0.000000
      0.004989      -0.018104       0.000000
      0.004834      -0.017249       0.000000
      0.003720      -0.017834       0.000000
      0.003936      -0.018639       0.000000
      0.004553      -0.018783       0.000000
      0.004364      -0.017973       0.000000
      0.003936      -0.018639       0.000000
      0.004161      -0.019403       0.000000
      0.004749      -0.019549       0.000000
      0.004553      -0.018783       0.000000
      0.004364      -0.017973       0.000000
      0.004553      -0.018783       0.000000
      0.005154      -0.018918       0.000000
      0.004989      -0.018104       0.000000
      0.004553      -0.018783       0.000000
      0.004749      -0.019549       0.000000
      0.005327      -0.019688       0.000000
      0.005154      -0.018918       0.000000
      0.004161      -0.019403       0.000000
      0.004390      -0.020123       0.000000
      0.004950      -0.020270       0.000000
      0.004749      -0.019549       0.000000
      0.004390      -0.020123       0.000000
      0.004616      -0.020799       0.000000
      0.005149      -0.020943       0.000000
      0.004950      -0.020270       0.000000
      0.004749      -0.019549       0.000000
      0.004950      -0.020270       0.000000
      0.005506      -0.020411       0.000000
      0.005327      -0.019688       0.000000
      0.004950      -0.020270       0.000000
      0.005149      -0.020943       0.000000
      0.005689      -0.021083       0.000000
      0.005506      -0.020411       0.000000
      0.004616      -0.020799       0.000000
      0.004830      -0.021431       0.000000
      0.005341      -0.021569       0.000000
      0.005149      -0.020943       0.000000
      0.004830      -0.021431       0.000000
      0.005017      -0.022028       0.000000
      0.005516      -0.022157       0.000000
      0.005341      -0.021569       0.000000
      0.005149      -0.020943       0.000000
      0.005341      -0.021569       0.000000
      0.005874      -0.021708       0.000000
      0.005689      -0.021083       0.000000
      0.005341      -0.021569       0.000000
      0.005516      -0.022157       0.000000
      0.006057      -0.022291       0.000000
      0.005874      -0.021708       0.000000
      0.005017      -0.022028       0.000000
      0.005157      -0.022608       0.000000
      0.005662      -0.022724       0.000000
      0.005516      -0.022157       0.000000
      0.005157      -0.022608       0.000000
      0.005231      -0.023205       0.000000
      0.005766      -0.023311       0.000000
      0.005662      -0.022724       0.000000
      0.005516      -0.022157       0.000000
      0.005662      -0.022724       0.000000
      0.006230      -0.022851       0.000000
      0.006057      -0.022291       0.000000
      0.005662      -0.022724       0.000000
      0.005766      -0.023311       0.000000
      0.006379      -0.023424       0.000000
      0.006230      -0.022851       0.000000
      0.005231      -0.023205       0.000000
      0.005237      -0.023874       0.000000
      0.005816      -0.023979       0.000000
      0.005766      -0.023311       0.000000
      0.005237      -0.023874       0.000000
      0.005225      -0.024633       0.000000
      0.005822      -0.024762       0.000000
      0.005816      -0.023979       0.000000
      0.005766      -0.023311       0.000000
      0.005816      -0.023979       0.000000
      0.006468      -0.024075       0.000000
      0.006379      -0.023424       0.000000
      0.005816      -0.023979       0.000000
      0.005822      -0.024762       0.000000
      0.006479      -0.024913       0.000000
      0.006468      -0.024075       0.000000
      0.003725      -0.002923       0.000000
      0.003849      -0.004399       0.000000
      0.004723      -0.004521       0.000000
      0.004618      -0.003255       0.000000
      0.003849      -0.004399       0.000000
      0.003829      -0.005823       0.000000
      0.004728      -0.005850       0.000000
      0.004723      -0.004521       0.000000
      0.004618      -0.003255       0.000000
      0.004723      -0.004521       0.000000
      0.005527      -0.004650       0.000000
      0.005440      -0.003488       0.000000
      0.004723      -0.004521       0.000000
      0.004728      -0.005850       0.000000
      0.005549      -0.005897       0.000000
      0.005527      -0.004650       0.000000
      0.003829      -0.005823       0.000000
      0.003839      -0.007070       0.000000
      0.004717      -0.007093       0.000000
      0.004728      -0.005850       0.000000
      0.003839      -0.007070       0.000000
      0.003883      -0.008225       0.000000
      0.004727      -0.008260       0.000000
      0.004717      -0.007093       0.000000
      0.004728      -0.005850       0.000000
      0.004717      -0.007093       0.000000
      0.005541      -0.007118       0.000000
      0.005549      -0.005897       0.000000
      0.004717      -0.007093       0.000000
      0.004727      -0.008260       0.000000
      0.005537      -0.008289       0.000000
      0.005541      -0.007118       0.000000
      0.003883      -0.008225       0.000000
      0.003946      -0.009332       0.000000
      0.004759      -0.009380       0.000000
      0.004727      -0.008260       0.000000
      0.003946      -0.009332       0.000000
      0.004022      -0.010408       0.000000
      0.004809      -0.010467       0.000000
      0.004759      -0.009380       0.000000
      0.004727      -0.008260       0.000000
      0.004759      -0.009380       0.000000
      0.005549      -0.009419       0.000000
      0.005537      -0.008289       0.000000
      0.004759      -0.009380       0.000000
      0.004809      -0.010467       0.000000
      0.005577      -0.010518       0.000000
      0.005549      -0.009419       0.000000
      0.004022      -0.010408       0.000000
      0.004108      -0.011459       0.000000
      0.004871      -0.011529       0.000000
      0.004809      -0.010467       0.000000
      0.004108      -0.011459       0.000000
      0.004204      -0.012488       0.000000
      0.004946      -0.012567       0.000000
      0.004871      -0.011529       0.000000
      0.004809      -0.010467       0.000000
      0.004871      -0.011529       0.000000
      0.005619      -0.011590       0.000000
      0.005577      -0.010518       0.000000
      0.004871      -0.011529       0.000000
      0.004946      -0.012567       0.000000
      0.005672      -0.012638       0.000000
      0.005619      -0.011590       0.000000
      0.004204      -0.012488       0.000000
      0.004310      -0.013495       0.000000
      0.005030      -0.013582       0.000000
      0.004946      -0.012567       0.000000
      0.004310      -0.013495       0.000000
      0.004426      -0.014476       0.000000
      0.005125      -0.014573       0.000000
      0.005030      -0.013582       0.000000
      0.004946      -0.012567       0.000000
      0.005030      -0.013582       0.000000
      0.005736      -0.013663       0.000000
      0.005672      -0.012638       0.000000
      0.005030      -0.013582       0.000000
      0.005125      -0.014573       0.000000
      0.005809      -0.014662       0.000000
      0.005736      -0.013663       0.000000
      0.004426      -0.014476       0.000000
      0.004551      -0.015432       0.000000
      0.005229      -0.015536       0.000000
      0.005125      -0.014573       0.000000
      0.004551      -0.015432       0.000000
      0.004687      -0.016357       0.000000
      0.005343      -0.016469       0.000000
      0.005229      -0.015536       0.000000
      0.005125      -0.014573       0.000000
      0.005229      -0.015536       0.000000
      0.005892      -0.015633       0.000000
      0.005809      -0.014662       0.000000
      0.005229      -0.015536       0.000000
      0.005343      -0.016469       0.000000
      0.005984      -0.016573       0.000000
      0.005892      -0.015633       0.000000
      0.004687      -0.016357       0.000000
      0.004834      -0.017249       0.000000
      0.005467      -0.017367       0.000000
      0.005343      -0.016469       0.000000
      0.004834      -0.017249       0.000000
      0.004989      -0.018104       0.000000
      0.005600      -0.018228       0.000000
      0.005467      -0.017367       0.000000
      0.005343      -0.016469       0.000000
      0.005467      -0.017367       0.000000
      0.006085      -0.017479       0.000000
      0.005984      -0.016573       0.000000
      0.005467      -0.017367       0.000000
      0.005600      -0.018228       0.000000
      0.006195      -0.018347       0.000000
      0.006085      -0.017479       0.000000
      0.004989      -0.018104       0.000000
      0.005154      -0.018918       0.000000
      0.005742      -0.019048       0.000000
      0.005600      -0.018228       0.000000
      0.005154      -0.018918       0.000000
      0.005327      -0.019688       0.000000
      0.005894      -0.019823       0.000000
      0.005742      -0.019048       0.000000
      0.005600      -0.018228       0.000000
      0.005742      -0.019048       0.000000
      0.006316      -0.019174       0.000000
      0.006195      -0.018347       0.000000
      0.005742      -0.019048       0.000000
      0.005894      -0.019823       0.000000
      0.006449      -0.019955       0.000000
      0.006316      -0.019174       0.000000
      0.005327      -0.019688       0.000000
      0.005506      -0.020411       0.000000
      0.006056      -0.020550       0.000000
      0.005894      -0.019823       0.000000
      0.005506      -0.020411       0.000000
      0.005689      -0.021083       0.000000
      0.006229      -0.021227       0.000000
      0.006056      -0.020550       0.000000
      0.005894      -0.019823       0.000000
      0.006056      -0.020550       0.000000
      0.006595      -0.020690       0.000000
      0.006449      -0.019955       0.000000
      0.006056      -0.020550       0.000000
      0.006229      -0.021227       0.000000
      0.006759      -0.021375       0.000000
      0.006595      -0.020690       0.000000
      0.005689      -0.021083       0.000000
      0.005874      -0.021708       0.000000
      0.006415      -0.021855       0.000000
      0.006229      -0.021227       0.000000
      0.005874      -0.021708       0.000000
      0.006057      -0.022291       0.000000
      0.006615      -0.022442       0.000000
      0.006415      -0.021855       0.000000
      0.006229      -0.021227       0.000000
      0.006415      -0.021855       0.000000
      0.006946      -0.022014       0.000000
      0.006759      -0.021375       0.000000
      0.006415      -0.021855       0.000000
      0.006615      -0.022442       0.000000
      0.007161      -0.022611       0.000000
      0.006946      -0.022014       0.000000
      0.006057      -0.022291       0.000000
      0.006230      -0.022851       0.000000
      0.006829      -0.023000       0.000000
      0.006615      -0.022442       0.000000
      0.006230      -0.022851       0.000000
      0.006379      -0.023424       0.000000
      0.007050      -0.023555       0.000000
      0.006829      -0.023000       0.000000
      0.006615      -0.022442       0.000000
      0.006829      -0.023000       0.000000
      0.007416      -0.023178       0.000000
      0.007161      -0.022611       0.000000
      0.006829      -0.023000       0.000000
      0.007050      -0.023555       0.000000
      0.007723      -0.023731       0.000000
      0.007416      -0.023178       0.000000
      0.006379      -0.023424       0.000000
      0.006434      -0.023734       0.000000
      0.006784      -0.023786       0.000000
      0.006710      -0.023485       0.000000
      0.006434      -0.023734       0.000000
      0.006468      -0.024075       0.000000
      0.006836      -0.024119       0.000000
      0.006784      -0.023786       0.000000
      0.006710      -0.023485       0.000000
      0.006784      -0.023786       0.000000
      0.007154      -0.023846       0.000000
      0.007050      -0.023555       0.000000
      0.006784      -0.023786       0.000000
      0.006836      -0.024119       0.000000
      0.007239      -0.024163       0.000000
      0.007154      -0.023846       0.000000
      0.006468      -0.024075       0.000000
      0.006479      -0.024466       0.000000
      0.006855      -0.024511       0.000000
      0.006836      -0.024119       0.000000
      0.006479      -0.024466       0.000000
      0.006479      -0.024913       0.000000
      0.006854      -0.024993       0.000000
      0.006855      -0.024511       0.000000
      0.006836      -0.024119       0.000000
      0.006855      -0.024511       0.000000
      0.007285      -0.024547       0.000000
      0.007239      -0.024163       0.000000
      0.006855      -0.024511       0.000000
      0.006854      -0.024993       0.000000
      0.007282      -0.025078       0.000000
      0.007285      -0.024547       0.000000
      0.007050      -0.023555       0.000000
      0.007154      -0.023846       0.000000
      0.007535      -0.023919       0.000000
      0.007393      -0.023636       0.000000
      0.007154      -0.023846       0.000000
      0.007239      -0.024163       0.000000
      0.007678      -0.024220       0.000000
      0.007535      -0.023919       0.000000
      0.007393      -0.023636       0.000000
      0.007535      -0.023919       0.000000
      0.007905      -0.024013       0.000000
      0.007723      -0.023731       0.000000
      0.007535      -0.023919       0.000000
      0.007678      -0.024220       0.000000
      0.008120      -0.024309       0.000000
      0.007905      -0.024013       0.000000
      0.007239      -0.024163       0.000000
      0.007269      -0.024343       0.000000
      0.007499      -0.024363       0.000000
      0.007455      -0.024189       0.000000
      0.007269      -0.024343       0.000000
      0.007285      -0.024547       0.000000
      0.007528      -0.024562       0.000000
      0.007499      -0.024363       0.000000
      0.007455      -0.024189       0.000000
      0.007499      -0.024363       0.000000
      0.007744      -0.024387       0.000000
      0.007678      -0.024220       0.000000
      0.007499      -0.024363       0.000000
      0.007528      -0.024562       0.000000
      0.007798      -0.024577       0.000000
      0.007744      -0.024387       0.000000
      0.007285      -0.024547       0.000000
      0.007286      -0.024790       0.000000
      0.007536      -0.024809       0.000000
      0.007528      -0.024562       0.000000
      0.007286      -0.024790       0.000000
      0.007282      -0.025078       0.000000
      0.007530      -0.025123       0.000000
      0.007536      -0.024809       0.000000
      0.007528      -0.024562       0.000000
      0.007536      -0.024809       0.000000
      0.007824      -0.024820       0.000000