# vtk DataFile Version 2.0
time_10.vtk
ASCII
DATASET UNSTRUCTURED_GRID
POINTS  3780 float
      0.000000       0.000000       0.000000
      0.162500       0.000000       0.000000
      0.163542       0.125000       0.000000
     -0.000000       0.125000       0.000000
      0.162500       0.000000       0.000000
      0.325000       0.000000       0.000000
      0.327083       0.125000       0.000000
      0.163542       0.125000       0.000000
     -0.000000       0.125000       0.000000
      0.163542       0.125000       0.000000
      0.164583       0.250000       0.000000
      0.000000       0.250000       0.000000
      0.163542       0.125000       0.000000
      0.327083       0.125000       0.000000
      0.329167       0.250000       0.000000
      0.164583       0.250000       0.000000
      0.325000       0.000000       0.000000
      0.487500       0.000000       0.000000
      0.490625       0.125000       0.000000
      0.327083       0.125000       0.000000
      0.487500       0.000000       0.000000
      0.650000       0.000000       0.000000
      0.654167       0.125000       0.000000
      0.490625       0.125000       0.000000
      0.327083       0.125000       0.000000
      0.490625       0.125000       0.000000
      0.493750       0.250000       0.000000
      0.329167       0.250000       0.000000
      0.490625       0.125000       0.000000
      0.654167       0.125000       0.000000
      0.658333       0.250000       0.000000
      0.493750       0.250000       0.000000
      0.650000       0.000000       0.000000
      0.812500       0.000000       0.000000
      0.817708       0.125000       0.000000
      0.654167       0.125000       0.000000
      0.812500       0.000000       0.000000
      0.975000       0.000000       0.000000
      0.981250       0.125000       0.000000
      0.817708       0.125000       0.000000
      0.654167       0.125000       0.000000
      0.817708       0.125000       0.000000
      0.822917       0.250000       0.000000
      0.658333       0.250000       0.000000
      0.817708       0.125000       0.000000
      0.981250       0.125000       0.000000
      0.987500       0.250000       0.000000
      0.822917       0.250000       0.000000
      0.975000       0.000000       0.000000
      1.137500      -0.000000       0.000000
      1.144792       0.125000       0.000000
      0.981250       0.125000       0.000000
      1.137500      -0.000000       0.000000
      1.300000       0.000000       0.000000
      1.308333       0.125000       0.000000
      1.144792       0.125000       0.000000
      0.981250       0.125000       0.000000
      1.144792       0.125000       0.000000
      1.152083       0.250000       0.000000
      0.987500       0.250000       0.000000
      1.144792       0.125000       0.000000
      1.308333       0.125000       0.000000
      1.316667       0.250000       0.000000
      1.152083       0.250000       0.000000
      1.300000       0.000000       0.000000
      1.462500       0.000000       0.000000
      1.471875       0.125000       0.000000
      1.308333       0.125000       0.000000
      1.462500       0.000000       0.000000
      1.625000       0.000000       0.000000
      1.635417       0.125000       0.000000
      1.471875       0.125000       0.000000
      1.308333       0.125000       0.000000
      1.471875       0.125000       0.000000
      1.481250       0.250000       0.000000
      1.316667       0.250000       0.000000
      1.471875       0.125000       0.000000
      1.635417       0.125000       0.000000
      1.645833       0.250000       0.000000
      1.481250       0.250000       0.000000
      1.625000       0.000000       0.000000
      1.787500      -0.000000       0.000000
      1.798958       0.125000       0.000000
      1.635417       0.125000       0.000000
      1.787500      -0.000000       0.000000
      1.950000       0.000000       0.000000
      1.962500       0.125000       0.000000
      1.798958       0.125000       0.000000
      1.635417       0.125000       0.000000
      1.798958       0.125000       0.000000
      1.810417       0.250000       0.000000
      1.645833       0.250000       0.000000
      1.798958       0.125000       0.000000
      1.962500       0.125000       0.000000
      1.975000       0.250000       0.000000
      1.810417       0.250000       0.000000
      1.950000       0.000000       0.000000
      2.112500      -0.000000       0.000000
      2.126042       0.125000       0.000000
      1.962500       0.125000       0.000000
      2.112500      -0.000000       0.000000
      2.275000       0.000000       0.000000
      2.289583       0.125000       0.000000
      2.126042       0.125000       0.000000
      1.962500       0.125000       0.000000
      2.126042       0.125000       0.000000
      2.139583       0.250000       0.000000
      1.975000       0.250000       0.000000
      2.126042       0.125000       0.000000
      2.289583       0.125000       0.000000
      2.304167       0.250000       0.000000
      2.139583       0.250000       0.000000
      2.275000       0.000000       0.000000
      2.437500       0.000000       0.000000
      2.453125       0.125000       0.000000
      2.289583       0.125000       0.000000
      2.437500       0.000000       0.000000
      2.600000       0.000000       0.000000
      2.616667       0.125000       0.000000
      2.453125       0.125000       0.000000
      2.289583       0.125000       0.000000
      2.453125       0.125000       0.000000
      2.468750       0.250000       0.000000
      2.304167       0.250000       0.000000
      2.453125       0.125000       0.000000
      2.616667       0.125000       0.000000
      2.633333       0.250000       0.000000
      2.468750       0.250000       0.000000
      2.600000       0.000000       0.000000
      2.762500       0.000000       0.000000
      2.780208       0.125000       0.000000
      2.616667       0.125000       0.000000
      2.762500       0.000000       0.000000
      2.925000       0.000000       0.000000
      2.943750       0.125000       0.000000
      2.780208       0.125000       0.000000
      2.616667       0.125000       0.000000
      2.780208       0.125000       0.000000
      2.797917       0.250000       0.000000
      2.633333       0.250000       0.000000
      2.780208       0.125000       0.000000
      2.943750       0.125000       0.000000
      2.962500       0.250000       0.000000
      2.797917       0.250000       0.000000
      2.925000       0.000000       0.000000
      3.087500       0.000000       0.000000
      3.107292       0.125000       0.000000
      2.943750       0.125000       0.000000
      3.087500       0.000000       0.000000
      3.250000       0.000000       0.000000
      3.270833       0.125000       0.000000
      3.107292       0.125000       0.000000
      2.943750       0.125000       0.000000
      3.107292       0.125000       0.000000
      3.127083       0.250000       0.000000
      2.962500       0.250000       0.000000
      3.107292       0.125000       0.000000
      3.270833       0.125000       0.000000
      3.291667       0.250000       0.000000
      3.127083       0.250000       0.000000
      3.250000       0.000000       0.000000
      3.412500       0.000000       0.000000
      3.434375       0.125000       0.000000
      3.270833       0.125000       0.000000
      3.412500       0.000000       0.000000
      3.575000       0.000000       0.000000
      3.597917       0.125000       0.000000
      3.434375       0.125000       0.000000
      3.270833       0.125000       0.000000
      3.434375       0.125000       0.000000
      3.456250       0.250000       0.000000
      3.291667       0.250000       0.000000
      3.434375       0.125000       0.000000
      3.597917       0.125000       0.000000
      3.620833       0.250000       0.000000
      3.456250       0.250000       0.000000
      3.575000       0.000000       0.000000
      3.737500      -0.000000       0.000000
      3.761458       0.125000       0.000000
      3.597917       0.125000       0.000000
      3.737500      -0.000000       0.000000
      3.900000       0.000000       0.000000
      3.925000       0.125000       0.000000
      3.761458       0.125000       0.000000
      3.597917       0.125000       0.000000
      3.761458       0.125000       0.000000
      3.785417       0.250000       0.000000
      3.620833       0.250000       0.000000
      3.761458       0.125000       0.000000
      3.925000       0.125000       0.000000
      3.950000       0.250000       0.000000
      3.785417       0.250000       0.000000
      0.000000       0.250000       0.000000
      0.164583       0.250000       0.000000
      0.165625       0.375000       0.000000
     -0.000000       0.375000       0.000000
      0.164583       0.250000       0.000000
      0.329167       0.250000       0.000000
      0.331250       0.375000       0.000000
      0.165625       0.375000       0.000000
     -0.000000       0.375000       0.000000
      0.165625       0.375000       0.000000
      0.166667       0.500000       0.000000
      0.000000       0.500000       0.000000
      0.165625       0.375000       0.000000
      0.331250       0.375000       0.000000
      0.333333       0.500000       0.000000
      0.166667       0.500000       0.000000
      0.329167       0.250000       0.000000
      0.493750       0.250000       0.000000
      0.496875       0.375000       0.000000
      0.331250       0.375000       0.000000
      0.493750       0.250000       0.000000
      0.658333       0.250000       0.000000
      0.662500       0.375000       0.000000
      0.496875       0.375000       0.000000
      0.331250       0.375000       0.000000
      0.496875       0.375000       0.000000
      0.500000       0.500000       0.000000
      0.333333       0.500000       0.000000
[...]
POINT_DATA  3780
VECTORS U float 
      0.000000       0.000000       0.000000
      0.000078      -0.001535       0.000000
      0.001159      -0.001552       0.000000
      0.001152      -0.000126       0.000000
      0.000078      -0.001535       0.000000
      0.000100      -0.002924       0.000000
      0.001161      -0.002945       0.000000
      0.001159      -0.001552       0.000000
      0.001152      -0.000126       0.000000
      0.001159      -0.001552       0.000000
      0.002221      -0.001564       0.000000
      0.002213      -0.000162       0.000000
      0.001159      -0.001552       0.000000
      0.001161      -0.002945       0.000000
      0.002219      -0.002963       0.000000
      0.002221      -0.001564       0.000000
      0.000100      -0.002924       0.000000
      0.000114      -0.004295       0.000000
      0.001167      -0.004324       0.000000
      0.001161      -0.002945       0.000000
      0.000114      -0.004295       0.000000
      0.000124      -0.005660       0.000000
      0.001173      -0.005697       0.000000
      0.001167      -0.004324       0.000000
      0.001161      -0.002945       0.000000
      0.001167      -0.004324       0.000000
      0.002220      -0.004351       0.000000
      0.002219      -0.002963       0.000000
      0.001167      -0.004324       0.000000
      0.001173      -0.005697       0.000000
      0.002223      -0.005733       0.000000
      0.002220      -0.004351       0.000000
      0.000124      -0.005660       0.000000
      0.000132      -0.007022       0.000000
      0.001180      -0.007068       0.000000
      0.001173      -0.005697       0.000000
      0.000132      -0.007022       0.000000
      0.000140      -0.008382       0.000000
      0.001186      -0.008436       0.000000
      0.001180      -0.007068       0.000000
      0.001173      -0.005697       0.000000
      0.001180      -0.007068       0.000000
      0.002227      -0.007113       0.000000
      0.002223      -0.005733       0.000000
      0.001180      -0.007068       0.000000
      0.001186      -0.008436       0.000000
      0.002231      -0.008490       0.000000
      0.002227      -0.007113       0.000000
      0.000140      -0.008382       0.000000
      0.000149      -0.009740       0.000000
      0.001193      -0.009804       0.000000
      0.001186      -0.008436       0.000000
      0.000149      -0.009740       0.000000
      0.000157      -0.011097       0.000000
      0.001200      -0.011169       0.000000
      0.001193      -0.009804       0.000000
      0.001186      -0.008436       0.000000
      0.001193      -0.009804       0.000000
      0.002237      -0.009866       0.000000
      0.002231      -0.008490       0.000000
      0.001193      -0.009804       0.000000
      0.001200      -0.011169       0.000000
      0.002243      -0.011241       0.000000
      0.002237      -0.009866       0.000000
      0.000157      -0.011097       0.000000
      0.000166      -0.012453       0.000000
      0.001208      -0.012534       0.000000
      0.001200      -0.011169       0.000000
      0.000166      -0.012453       0.000000
      0.000176      -0.013807       0.000000
      0.001217      -0.013897       0.000000
      0.001208      -0.012534       0.000000
      0.001200      -0.011169       0.000000
      0.001208      -0.012534       0.000000
      0.002249      -0.012614       0.000000
      0.002243      -0.011241       0.000000
      0.001208      -0.012534       0.000000
      0.001217      -0.013897       0.000000
      0.002256      -0.013986       0.000000
      0.002249      -0.012614       0.000000
      0.000176      -0.013807       0.000000
      0.000186      -0.015159       0.000000
      0.001226      -0.015258       0.000000
      0.001217      -0.013897       0.000000
      0.000186      -0.015159       0.000000
      0.000197      -0.016510       0.000000
      0.001236      -0.016618       0.000000
      0.001226      -0.015258       0.000000
      0.001217      -0.013897       0.000000
      0.001226      -0.015258       0.000000
      0.002264      -0.015356       0.000000
      0.002256      -0.013986       0.000000
      0.001226      -0.015258       0.000000
      0.001236      -0.016618       0.000000
      0.002273      -0.016725       0.000000
      0.002264      -0.015356       0.000000
      0.000197      -0.016510       0.000000
      0.000210      -0.017859       0.000000
      0.001247      -0.017975       0.000000
      0.001236      -0.016618       0.000000
      0.000210      -0.017859       0.000000
      0.000223      -0.019205       0.000000
      0.001258      -0.019330       0.000000
      0.001247      -0.017975       0.000000
      0.001236      -0.016618       0.000000
      0.001247      -0.017975       0.000000
      0.002282      -0.018091       0.000000
      0.002273      -0.016725       0.000000
      0.001247      -0.017975       0.000000
      0.001258      -0.019330       0.000000
      0.002292      -0.019455       0.000000
      0.002282      -0.018091       0.000000
      0.000223      -0.019205       0.000000
      0.000237      -0.020549       0.000000
      0.001270      -0.020683       0.000000
      0.001258      -0.019330       0.000000
      0.000237      -0.020549       0.000000
      0.000252      -0.021891       0.000000
      0.001283      -0.022033       0.000000
      0.001270      -0.020683       0.000000
      0.001258      -0.019330       0.000000
      0.001270      -0.020683       0.000000
      0.002303      -0.020816       0.000000
      0.002292      -0.019455       0.000000
      0.001270      -0.020683       0.000000
      0.001283      -0.022033       0.000000
      0.002314      -0.022174       0.000000
      0.002303      -0.020816       0.000000
      0.000252      -0.021891       0.000000
      0.000267      -0.023229       0.000000
      0.001296      -0.023379       0.000000
      0.001283      -0.022033       0.000000
      0.000267      -0.023229       0.000000
      0.000283      -0.024564       0.000000
      0.001310      -0.024722       0.000000
      0.001296      -0.023379       0.000000
      0.001283      -0.022033       0.000000
      0.001296      -0.023379       0.000000
      0.002325      -0.023529       0.000000
      0.002314      -0.022174       0.000000
      0.001296      -0.023379       0.000000
      0.001310      -0.024722       0.000000
      0.002337      -0.024880       0.000000
      0.002325      -0.023529       0.000000
      0.000283      -0.024564       0.000000
      0.000298      -0.025895       0.000000
      0.001323      -0.026061       0.000000
      0.001310      -0.024722       0.000000
      0.000298      -0.025895       0.000000
      0.000311      -0.027223       0.000000
      0.001335      -0.027397       0.000000
      0.001323      -0.026061       0.000000
      0.001310      -0.024722       0.000000
      0.001323      -0.026061       0.000000
      0.002349      -0.026228       0.000000
      0.002337      -0.024880       0.000000
      0.001323      -0.026061       0.000000
      0.001335      -0.027397       0.000000
      0.002361      -0.027571       0.000000
      0.002349      -0.026228       0.000000
      0.000311      -0.027223       0.000000
      0.000322      -0.028549       0.000000
      0.001345      -0.028731       0.000000
      0.001335      -0.027397       0.000000
      0.000322      -0.028549       0.000000
      0.000329      -0.029875       0.000000
      0.001353      -0.030063       0.000000
      0.001345      -0.028731       0.000000
      0.001335      -0.027397       0.000000
      0.001345      -0.028731       0.000000
      0.002373      -0.028912       0.000000
      0.002361      -0.027571       0.000000
      0.001345      -0.028731       0.000000
      0.001353      -0.030063       0.000000
      0.002382      -0.030252       0.000000
      0.002373      -0.028912       0.000000
      0.000329      -0.029875       0.000000
      0.000331      -0.031203       0.000000
      0.001357      -0.031399       0.000000
      0.001353      -0.030063       0.000000
      0.000331      -0.031203       0.000000
      0.000331      -0.032537       0.000000
      0.001358      -0.032742       0.000000
      0.001357      -0.031399       0.000000
      0.001353      -0.030063       0.000000
      0.001357      -0.031399       0.000000
      0.002388      -0.031595       0.000000
      0.002382      -0.030252       0.000000
      0.001357      -0.031399       0.000000
      0.001358      -0.032742       0.000000
      0.002389      -0.032949       0.000000
      0.002388      -0.031595       0.000000
      0.002213      -0.000162       0.000000
      0.002221      -0.001564       0.000000
      0.003270      -0.001580       0.000000
      0.003264      -0.000182       0.000000
      0.002221      -0.001564       0.000000
      0.002219      -0.002963       0.000000
      0.003271      -0.002981       0.000000
      0.003270      -0.001580       0.000000
      0.003264      -0.000182       0.000000
      0.003270      -0.001580       0.000000
      0.004316      -0.001596       0.000000
      0.004310      -0.000197       0.000000
      0.003270      -0.001580       0.000000
      0.003271      -0.002981       0.000000
      0.004317      -0.003001       0.000000
      0.004316      -0.001596       0.000000
      0.002219      -0.002963       0.000000
      0.002220      -0.004351       0.000000
      0.003270      -0.004377       0.000000
      0.003271      -0.002981       0.000000
      0.002220      -0.004351       0.000000
      0.002223      -0.005733       0.000000
      0.003271      -0.005769       0.000000
      0.003270      -0.004377       0.000000
      0.003271      -0.002981       0.000000
      0.003270      -0.004377       0.000000
      0.004317      -0.004404       0.000000
      0.004317      -0.003001       0.000000
      0.003270      -0.004377       0.000000
      0.003271      -0.005769       0.000000
      0.004316      -0.005804       0.000000
      0.004317      -0.004404       0.000000
      0.002223      -0.005733       0.000000
      0.002227      -0.007113       0.000000
      0.003273      -0.007157       0.000000
      0.003271      -0.005769       0.000000
      0.002227      -0.007113       0.000000
      0.002231      -0.008490       0.000000
      0.003276      -0.008544       0.000000
      0.003273      -0.007157       0.000000
      0.003271      -0.005769       0.000000
      0.003273      -0.007157       0.000000
      0.004317      -0.007201       0.000000
      0.004316      -0.005804       0.000000
      0.003273      -0.007157       0.000000
      0.003276      -0.008544       0.000000
      0.004319      -0.008597       0.000000
      0.004317      -0.007201       0.000000
      0.002231      -0.008490       0.000000
      0.002237      -0.009866       0.000000
      0.003280      -0.009929       0.000000
      0.003276      -0.008544       0.000000
      0.002237      -0.009866       0.000000
      0.002243      -0.011241       0.000000
      0.003284      -0.011312       0.000000
      0.003280      -0.009929       0.000000
      0.003276      -0.008544       0.000000
      0.003280      -0.009929       0.000000
      0.004321      -0.009991       0.000000
      0.004319      -0.008597       0.000000
      0.003280      -0.009929       0.000000
      0.003284      -0.011312       0.000000
      0.004325      -0.011383       0.000000
      0.004321      -0.009991       0.000000
      0.002243      -0.011241       0.000000
      0.002249      -0.012614       0.000000
      0.003289      -0.012694       0.000000
      0.003284      -0.011312       0.000000
      0.002249      -0.012614       0.000000
      0.002256      -0.013986       0.000000
      0.003295      -0.014075       0.000000
      0.003289      -0.012694       0.000000
      0.003284      -0.011312       0.000000
      0.003289      -0.012694       0.000000
      0.004329      -0.012774       0.000000
      0.004325      -0.011383       0.000000
      0.003289      -0.012694       0.000000
      0.003295      -0.014075       0.000000
      0.004333      -0.014164       0.000000
      0.004329      -0.012774       0.000000
      0.002256      -0.013986       0.000000
      0.002264      -0.015356       0.000000
      0.003302      -0.015454       0.000000
      0.003295      -0.014075       0.000000
      0.002264      -0.015356       0.000000
      0.002273      -0.016725       0.000000
      0.003309      -0.016831       0.000000
      0.003302      -0.015454       0.000000
      0.003295      -0.014075       0.000000
      0.003302      -0.015454       0.000000
      0.004338      -0.015551       0.000000
      0.004333      -0.014164       0.000000
      0.003302      -0.015454       0.000000
      0.003309      -0.016831       0.000000
      0.004344      -0.016937       0.000000
      0.004338      -0.015551       0.000000
      0.002273      -0.016725       0.000000
      0.002282      -0.018091       0.000000
      0.003317      -0.018206       0.000000
      0.003309      -0.016831       0.000000
      0.002282      -0.018091       0.000000
      0.002292      -0.019455       0.000000
      0.003325      -0.019579       0.000000
      0.003317      -0.018206       0.000000
      0.003309      -0.016831       0.000000
      0.003317      -0.018206       0.000000
      0.004350      -0.018321       0.000000
      0.004344      -0.016937       0.000000
      0.003317      -0.018206       0.000000
      0.003325      -0.019579       0.000000
      0.004357      -0.019702       0.000000
      0.004350      -0.018321       0.000000
      0.002292      -0.019455       0.000000
      0.002303      -0.020816       0.000000
      0.003334      -0.020948       0.000000
      0.003325      -0.019579       0.000000
      0.002303      -0.020816       0.000000
      0.002314      -0.022174       0.000000
      0.003343      -0.022315       0.000000
      0.003334      -0.020948       0.000000
      0.003325      -0.019579       0.000000
      0.003334      -0.020948       0.000000
      0.004364      -0.021081       0.000000
      0.004357      -0.019702       0.000000
      0.003334      -0.020948       0.000000
      0.003343      -0.022315       0.000000
      0.004372      -0.022456       0.000000
      0.004364      -0.021081       0.000000
      0.002314      -0.022174       0.000000
      0.002325      -0.023529       0.000000
      0.003354      -0.023679       0.000000
      0.003343      -0.022315       0.000000
      0.002325      -0.023529       0.000000
      0.002337      -0.024880       0.000000
      0.003365      -0.025039       0.000000
      0.003354      -0.023679       0.000000
      0.003343      -0.022315       0.000000
      0.003354      -0.023679       0.000000
      0.004381      -0.023828       0.000000
      0.004372      -0.022456       0.000000
      0.003354      -0.023679       0.000000
      0.003365      -0.025039       0.000000
      0.004391      -0.025197       0.000000
      0.004381      -0.023828       0.000000
      0.002337      -0.024880       0.000000
      0.002349      -0.026228       0.000000
      0.003376      -0.026394       0.000000
      0.003365      -0.025039       0.000000
      0.002349      -0.026228       0.000000
      0.002361      -0.027571       0.000000
      0.003389      -0.027746       0.000000
      0.003376      -0.026394       0.000000
      0.003365      -0.025039       0.000000
      0.003376      -0.026394       0.000000
      0.004403      -0.026562       0.000000
      0.004391      -0.025197       0.000000
      0.003376      -0.026394       0.000000
      0.003389      -0.027746       0.000000
      0.004416      -0.027923       0.000000
      0.004403      -0.026562       0.000000
      0.002361      -0.027571       0.000000
      0.002373      -0.028912       0.000000
      0.003402      -0.029095       0.000000
      0.003389      -0.027746       0.000000
      0.002373      -0.028912       0.000000
      0.002382      -0.030252       0.000000
      0.003415      -0.030442       0.000000
      0.003402      -0.029095       0.000000
      0.003389      -0.027746       0.000000
      0.003402      -0.029095       0.000000
      0.004430      -0.029280       0.000000
      0.004416      -0.027923       0.000000
      0.003402      -0.029095       0.000000
      0.003415      -0.030442       0.000000
      0.004447      -0.030634       0.000000
      0.004430      -0.029280       0.000000
      0.002382      -0.030252       0.000000
      0.002386      -0.030923       0.000000
      0.002903      -0.031019       0.000000
      0.002898      -0.030347       0.000000
      0.002386      -0.030923       0.000000
      0.002388      -0.031595       0.000000
      0.002906      -0.031693       0.000000
      0.002903      -0.031019       0.000000
      0.002898      -0.030347       0.000000
      0.002903      -0.031019       0.000000
      0.003421      -0.031116       0.000000
      0.003415      -0.030442       0.000000
      0.002903      -0.031019       0.000000
      0.002906      -0.031693       0.000000
      0.003426      -0.031790       0.000000
      0.003421      -0.031116       0.000000
      0.002388      -0.031595       0.000000
      0.002389      -0.032270       0.000000
      0.002908      -0.032369       0.000000
      0.002906      -0.031693       0.000000
      0.002389      -0.032270       0.000000
      0.002389      -0.032949       0.000000
      0.002907      -0.033051       0.000000
      0.002908      -0.032369       0.000000
      0.002906      -0.031693       0.000000
      0.002908      -0.032369       0.000000
      0.003429      -0.032468       0.000000
      0.003426      -0.031790       0.000000
      0.002908      -0.032369       0.000000
      0.002907      -0.033051       0.000000
      0.003428      -0.033153       0.000000
      0.003429      -0.032468       0.000000
      0.003415      -0.030442       0.000000
      0.003421      -0.031116       0.000000
      0.003939      -0.031213       0.000000
      0.003931      -0.030538       0.000000
      0.003421      -0.031116       0.000000
      0.003426      -0.031790       0.000000
      0.003947      -0.031888       0.000000
      0.003939      -0.031213       0.000000
      0.003931      -0.030538       0.000000
      0.003939      -0.031213       0.000000
      0.004457      -0.031311       0.000000
      0.004447      -0.030634       0.000000
      0.003939      -0.031213       0.000000
      0.003947      -0.031888       0.000000
      0.004468      -0.031988       0.000000
      0.004457      -0.031311       0.000000
      0.003426      -0.031790       0.000000
      0.003428      -0.032129       0.000000
      0.003689      -0.032178       0.000000
      0.003686      -0.031839       0.000000
      0.003428      -0.032129       0.000000
      0.003429      -0.032468       0.000000
      0.003690      -0.032517       0.000000
      0.003689      -0.032178       0.000000
      0.003686      -0.031839       0.000000
      0.003689      -0.032178       0.000000
      0.003950      -0.032227       0.000000
      0.003947      -0.031888       0.000000
      0.003689      -0.032178       0.000000
      0.003690      -0.032517       0.000000
      0.003953      -0.032566       0.000000
      0.003950      -0.032227       0.000000
      0.003429      -0.032468       0.000000
      0.003429      -0.032809       0.000000
      0.003691      -0.032859       0.000000
      0.003690      -0.032517       0.000000
      0.003429      -0.032809       0.000000
      0.003428      -0.033153       0.000000
      0.003690      -0.033204       0.000000
      0.003691      -0.032859       0.000000
      0.003690      -0.032517       0.000000
      0.003691      -0.032859       0.000000
      0.003955      -0.032907       0.000000