# vtk DataFile Version 2.0
time_10.vtk
ASCII
DATASET UNSTRUCTURED_GRID
POINTS  3780 float
      0.000000       0.000000       0.000000
      0.162500       0.000000       0.000000
      0.163542       0.125000       0.000000
     -0.000000       0.125000       0.000000
      0.162500       0.000000       0.000000
      0.325000       0.000000       0.000000
      0.327083       0.125000       0.000000
      0.163542       0.125000       0.000000
     -0.000000       0.125000       0.000000
      0.163542       0.125000       0.000000
      0.164583       0.250000       0.000000
      0.000000       0.250000       0.000000
      0.163542       0.125000       0.000000
      0.327083       0.125000       0.000000
      0.329167       0.250000       0.000000
      0.164583       0.250000       0.000000
      0.325000       0.000000       0.000000
      0.487500       0.000000       0.000000
      0.490625       0.125000       0.000000
      0.327083       0.125000       0.000000
      0.487500       0.000000       0.000000
      0.650000       0.000000       0.000000
      0.654167       0.125000       0.000000
      0.490625       0.125000       0.000000
      0.327083       0.125000       0.000000
      0.490625       0.125000       0.000000
      0.493750       0.250000       0.000000
      0.329167       0.250000       0.000000
      0.490625       0.125000       0.000000
      0.654167       0.125000       0.000000
      0.658333       0.250000       0.000000
      0.493750       0.250000       0.000000
      0.650000       0.000000       0.000000
      0.812500       0.000000       0.000000
      0.817708       0.125000       0.000000
      0.654167       0.125000       0.000000
      0.812500       0.000000       0.000000
      0.975000       0.000000       0.000000
      0.981250       0.125000       0.000000
      0.817708       0.125000       0.000000
      0.654167       0.125000       0.000000
      0.817708       0.125000       0.000000
      0.822917       0.250000       0.000000
      0.658333       0.250000       0.000000
      0.817708       0.125000       0.000000
      0.981250       0.125000       0.000000
      0.987500       0.250000       0.000000
      0.822917       0.250000       0.000000
      0.975000       0.000000       0.000000
      1.137500      -0.000000       0.000000
      1.144792       0.125000       0.000000
      0.981250       0.125000       0.000000
      1.137500      -0.000000       0.000000
      1.300000       0.000000       0.000000
      1.308333       0.125000       0.000000
      1.144792       0.125000       0.000000
      0.981250       0.125000       0.000000
      1.144792       0.125000       0.000000
      1.152083       0.250000       0.000000
      0.987500       0.250000       0.000000
      1.144792       0.125000       0.000000
      1.308333       0.125000       0.000000
      1.316667       0.250000       0.000000
      1.152083       0.250000       0.000000
      1.300000       0.000000       0.000000
      1.462500       0.000000       0.000000
      1.471875       0.125000       0.000000
      1.308333       0.125000       0.000000
      1.462500       0.000000       0.000000
      1.625000       0.000000       0.000000
      1.635417       0.125000       0.000000
      1.471875       0.125000       0.000000
      1.308333       0.125000       0.000000
      1.471875       0.125000       0.000000
      1.481250       0.250000       0.000000
      1.316667       0.250000       0.000000
      1.471875       0.125000       0.000000
      1.635417       0.125000       0.000000
      1.645833       0.250000       0.000000
      1.481250       0.250000       0.000000
      1.625000       0.000000       0.000000
      1.787500      -0.000000       0.000000
      1.798958       0.125000       0.000000
      1.635417       0.125000       0.000000
      1.787500      -0.000000       0.000000
      1.950000       0.000000       0.000000
      1.962500       0.125000       0.000000
      1.798958       0.125000       0.000000
      1.635417       0.125000       0.000000
      1.798958       0.125000       0.000000
      1.810417       0.250000       0.000000
      1.645833       0.250000       0.000000
      1.798958       0.125000       0.000000
      1.962500       0.125000       0.000000
      1.975000       0.250000       0.000000
      1.810417       0.250000       0.000000
      1.950000       0.000000       0.000000
      2.112500      -0.000000       0.000000
      2.126042       0.125000       0.000000
      1.962500       0.125000       0.000000
      2.112500      -0.000000       0.000000
      2.275000       0.000000       0.000000
      2.289583       0.125000       0.000000
      2.126042       0.125000       0.000000
      1.962500       0.125000       0.000000
      2.126042       0.125000       0.000000
      2.139583       0.250000       0.000000
      1.975000       0.250000       0.000000
      2.126042       0.125000       0.000000
      2.289583       0.125000       0.000000
      2.304167       0.250000       0.000000
      2.139583       0.250000       0.000000
      2.275000       0.000000       0.000000
      2.437500       0.000000       0.000000
      2.453125       0.125000       0.000000
      2.289583       0.125000       0.000000
      2.437500       0.000000       0.000000
      2.600000       0.000000       0.000000
      2.616667       0.125000       0.000000
      2.453125       0.125000       0.000000
      2.289583       0.125000       0.000000
      2.453125       0.125000       0.000000
      2.468750       0.250000       0.000000
      2.304167       0.250000       0.000000
      2.453125       0.125000       0.000000
      2.616667       0.125000       0.000000
      2.633333       0.250000       0.000000
      2.468750       0.250000       0.000000
      2.600000       0.000000       0.000000
      2.762500       0.000000       0.000000
      2.780208       0.125000       0.000000
      2.616667       0.125000       0.000000
      2.762500       0.000000       0.000000
      2.925000       0.000000       0.000000
      2.943750       0.125000       0.000000
      2.780208       0.125000       0.000000
      2.616667       0.125000       0.000000
      2.780208       0.125000       0.000000
      2.797917       0.250000       0.000000
      2.633333       0.250000       0.000000
      2.780208       0.125000       0.000000
      2.943750       0.125000       0.000000
      2.962500       0.250000       0.000000
      2.797917       0.250000       0.000000
      2.925000       0.000000       0.000000
      3.087500       0.000000       0.000000
      3.107292       0.125000       0.000000
      2.943750       0.125000       0.000000
      3.087500       0.000000       0.000000
      3.250000       0.000000       0.000000
      3.270833       0.125000       0.000000
      3.107292       0.125000       0.000000
      2.943750       0.125000       0.000000
      3.107292       0.125000       0.000000
      3.127083       0.250000       0.000000
      2.962500       0.250000       0.000000
      3.107292       0.125000       0.000000
      3.270833       0.125000       0.000000
      3.291667       0.250000       0.000000
      3.127083       0.250000       0.000000
      3.250000       0.000000       0.000000
      3.412500       0.000000       0.000000
      3.434375       0.125000       0.000000
      3.270833       0.125000       0.000000
      3.412500       0.000000       0.000000
      3.575000       0.000000       0.000000
      3.597917       0.125000       0.000000
      3.434375       0.125000       0.000000
      3.270833       0.125000       0.000000
      3.434375       0.125000       0.000000
      3.456250       0.250000       0.000000
      3.291667       0.250000       0.000000
      3.434375       0.125000       0.000000
      3.597917       0.125000       0.000000
      3.620833       0.250000       0.000000
      3.456250       0.250000       0.000000
      3.575000       0.000000       0.000000
      3.737500      -0.000000       0.000000
      3.761458       0.125000       0.000000
      3.597917       0.125000       0.000000
      3.737500      -0.000000       0.000000
      3.900000       0.000000       0.000000
      3.925000       0.125000       0.000000
      3.761458       0.125000       0.000000
      3.597917       0.125000       0.000000
      3.761458       0.125000       0.000000
      3.785417       0.250000       0.000000
      3.620833       0.250000       0.000000
      3.761458       0.125000       0.000000
      3.925000       0.125000       0.000000
      3.950000       0.250000       0.000000
      3.785417       0.250000       0.000000
      0.000000       0.250000       0.000000
      0.164583       0.250000       0.000000
      0.165625       0.375000       0.000000
     -0.000000       0.375000       0.000000
      0.164583       0.250000       0.000000
      0.329167       0.250000       0.000000
      0.331250       0.375000       0.000000
      0.165625       0.375000       0.000000
     -0.000000       0.375000       0.000000
      0.165625       0.375000       0.000000
      0.166667       0.500000       0.000000
      0.000000       0.500000       0.000000
      0.165625       0.375000       0.000000
      0.331250       0.375000       0.000000
      0.333333       0.500000       0.000000
      0.166667       0.500000       0.000000
      0.329167       0.250000       0.000000
      0.493750       0.250000       0.000000
      0.496875       0.375000       0.000000
      0.331250       0.375000       0.000000
      0.493750       0.250000       0.000000
      0.658333       0.250000       0.000000
      0.662500       0.375000       0.000000
      0.496875       0.375000       0.000000
      0.331250       0.375000       0.000000
      0.496875       0.375000       0.000000
      0.500000       0.500000       0.000000
      0.333333       0.500000       0.000000
[...]
POINT_DATA  3780
VECTORS U float 
      0.000000       0.000000       0.000000
      0.000077      -0.001544       0.000000
      0.001166      -0.001561       0.000000
      0.001159      -0.000125       0.000000
      0.000077      -0.001544       0.000000
      0.000100      -0.002942       0.000000
      0.001168      -0.002963       0.000000
      0.001166      -0.001561       0.000000
      0.001159      -0.000125       0.000000
      0.001166      -0.001561       0.000000
      0.002235      -0.001573       0.000000
      0.002227      -0.000160       0.000000
      0.001166      -0.001561       0.000000
      0.001168      -0.002963       0.000000
      0.002234      -0.002981       0.000000
      0.002235      -0.001573       0.000000
      0.000100      -0.002942       0.000000
      0.000113      -0.004323       0.000000
      0.001174      -0.004352       0.000000
      0.001168      -0.002963       0.000000
      0.000113      -0.004323       0.000000
      0.000123      -0.005698       0.000000
      0.001180      -0.005735       0.000000
      0.001174      -0.004352       0.000000
      0.001168      -0.002963       0.000000
      0.001174      -0.004352       0.000000
      0.002234      -0.004379       0.000000
      0.002234      -0.002981       0.000000
      0.001174      -0.004352       0.000000
      0.001180      -0.005735       0.000000
      0.002237      -0.005772       0.000000
      0.002234      -0.004379       0.000000
      0.000123      -0.005698       0.000000
      0.000131      -0.007069       0.000000
      0.001186      -0.007116       0.000000
      0.001180      -0.005735       0.000000
      0.000131      -0.007069       0.000000
      0.000139      -0.008439       0.000000
      0.001193      -0.008494       0.000000
      0.001186      -0.007116       0.000000
      0.001180      -0.005735       0.000000
      0.001186      -0.007116       0.000000
      0.002241      -0.007161       0.000000
      0.002237      -0.005772       0.000000
      0.001186      -0.007116       0.000000
      0.001193      -0.008494       0.000000
      0.002245      -0.008549       0.000000
      0.002241      -0.007161       0.000000
      0.000139      -0.008439       0.000000
      0.000147      -0.009808       0.000000
      0.001199      -0.009871       0.000000
      0.001193      -0.008494       0.000000
      0.000147      -0.009808       0.000000
      0.000156      -0.011175       0.000000
      0.001207      -0.011247       0.000000
      0.001199      -0.009871       0.000000
      0.001193      -0.008494       0.000000
      0.001199      -0.009871       0.000000
      0.002251      -0.009935       0.000000
      0.002245      -0.008549       0.000000
      0.001199      -0.009871       0.000000
      0.001207      -0.011247       0.000000
      0.002257      -0.011319       0.000000
      0.002251      -0.009935       0.000000
      0.000156      -0.011175       0.000000
      0.000165      -0.012540       0.000000
      0.001214      -0.012622       0.000000
      0.001207      -0.011247       0.000000
      0.000165      -0.012540       0.000000
      0.000174      -0.013904       0.000000
      0.001223      -0.013995       0.000000
      0.001214      -0.012622       0.000000
      0.001207      -0.011247       0.000000
      0.001214      -0.012622       0.000000
      0.002263      -0.012703       0.000000
      0.002257      -0.011319       0.000000
      0.001214      -0.012622       0.000000
      0.001223      -0.013995       0.000000
      0.002270      -0.014085       0.000000
      0.002263      -0.012703       0.000000
      0.000174      -0.013904       0.000000
      0.000185      -0.015267       0.000000
      0.001232      -0.015366       0.000000
      0.001223      -0.013995       0.000000
      0.000185      -0.015267       0.000000
      0.000196      -0.016627       0.000000
      0.001242      -0.016736       0.000000
      0.001232      -0.015366       0.000000
      0.001223      -0.013995       0.000000
      0.001232      -0.015366       0.000000
      0.002278      -0.015465       0.000000
      0.002270      -0.014085       0.000000
      0.001232      -0.015366       0.000000
      0.001242      -0.016736       0.000000
      0.002287      -0.016843       0.000000
      0.002278      -0.015465       0.000000
      0.000196      -0.016627       0.000000
      0.000208      -0.017986       0.000000
      0.001253      -0.018103       0.000000
      0.001242      -0.016736       0.000000
      0.000208      -0.017986       0.000000
      0.000221      -0.019343       0.000000
      0.001264      -0.019468       0.000000
      0.001253      -0.018103       0.000000
      0.001242      -0.016736       0.000000
      0.001253      -0.018103       0.000000
      0.002296      -0.018220       0.000000
      0.002287      -0.016843       0.000000
      0.001253      -0.018103       0.000000
      0.001264      -0.019468       0.000000
      0.002306      -0.019594       0.000000
      0.002296      -0.018220       0.000000
      0.000221      -0.019343       0.000000
      0.000235      -0.020697       0.000000
      0.001276      -0.020831       0.000000
      0.001264      -0.019468       0.000000
      0.000235      -0.020697       0.000000
      0.000250      -0.022048       0.000000
      0.001289      -0.022191       0.000000
      0.001276      -0.020831       0.000000
      0.001264      -0.019468       0.000000
      0.001276      -0.020831       0.000000
      0.002316      -0.020965       0.000000
      0.002306      -0.019594       0.000000
      0.001276      -0.020831       0.000000
      0.001289      -0.022191       0.000000
      0.002327      -0.022333       0.000000
      0.002316      -0.020965       0.000000
      0.000250      -0.022048       0.000000
      0.000265      -0.023396       0.000000
      0.001302      -0.023548       0.000000
      0.001289      -0.022191       0.000000
      0.000265      -0.023396       0.000000
      0.000280      -0.024741       0.000000
      0.001315      -0.024901       0.000000
      0.001302      -0.023548       0.000000
      0.001289      -0.022191       0.000000
      0.001302      -0.023548       0.000000
      0.002339      -0.023698       0.000000
      0.002327      -0.022333       0.000000
      0.001302      -0.023548       0.000000
      0.001315      -0.024901       0.000000
      0.002351      -0.025060       0.000000
      0.002339      -0.023698       0.000000
      0.000280      -0.024741       0.000000
      0.000295      -0.026083       0.000000
      0.001328      -0.026250       0.000000
      0.001315      -0.024901       0.000000
      0.000295      -0.026083       0.000000
      0.000309      -0.027421       0.000000
      0.001340      -0.027596       0.000000
      0.001328      -0.026250       0.000000
      0.001315      -0.024901       0.000000
      0.001328      -0.026250       0.000000
      0.002363      -0.026418       0.000000
      0.002351      -0.025060       0.000000
      0.001328      -0.026250       0.000000
      0.001340      -0.027596       0.000000
      0.002374      -0.027772       0.000000
      0.002363      -0.026418       0.000000
      0.000309      -0.027421       0.000000
      0.000320      -0.028757       0.000000
      0.001351      -0.028940       0.000000
      0.001340      -0.027596       0.000000
      0.000320      -0.028757       0.000000
      0.000327      -0.030092       0.000000
      0.001358      -0.030282       0.000000
      0.001351      -0.028940       0.000000
      0.001340      -0.027596       0.000000
      0.001351      -0.028940       0.000000
      0.002386      -0.029123       0.000000
      0.002374      -0.027772       0.000000
      0.001351      -0.028940       0.000000
      0.001358      -0.030282       0.000000
      0.002395      -0.030473       0.000000
      0.002386      -0.029123       0.000000
      0.000327      -0.030092       0.000000
      0.000329      -0.031431       0.000000
      0.001362      -0.031629       0.000000
      0.001358      -0.030282       0.000000
      0.000329      -0.031431       0.000000
      0.000328      -0.032774       0.000000
      0.001363      -0.032982       0.000000
      0.001362      -0.031629       0.000000
      0.001358      -0.030282       0.000000
      0.001362      -0.031629       0.000000
      0.002401      -0.031826       0.000000
      0.002395      -0.030473       0.000000
      0.001362      -0.031629       0.000000
      0.001363      -0.032982       0.000000
      0.002402      -0.033189       0.000000
      0.002401      -0.031826       0.000000
      0.002227      -0.000160       0.000000
      0.002235      -0.001573       0.000000
      0.003292      -0.001588       0.000000
      0.003286      -0.000181       0.000000
      0.002235      -0.001573       0.000000
      0.002234      -0.002981       0.000000
      0.003292      -0.003000       0.000000
      0.003292      -0.001588       0.000000
      0.003286      -0.000181       0.000000
      0.003292      -0.001588       0.000000
      0.004345      -0.001605       0.000000
      0.004340      -0.000195       0.000000
      0.003292      -0.001588       0.000000
      0.003292      -0.003000       0.000000
      0.004346      -0.003019       0.000000
      0.004345      -0.001605       0.000000
      0.002234      -0.002981       0.000000
      0.002234      -0.004379       0.000000
      0.003292      -0.004406       0.000000
      0.003292      -0.003000       0.000000
      0.002234      -0.004379       0.000000
      0.002237      -0.005772       0.000000
      0.003292      -0.005807       0.000000
      0.003292      -0.004406       0.000000
      0.003292      -0.003000       0.000000
      0.003292      -0.004406       0.000000
      0.004346      -0.004433       0.000000
      0.004346      -0.003019       0.000000
      0.003292      -0.004406       0.000000
      0.003292      -0.005807       0.000000
      0.004346      -0.005843       0.000000
      0.004346      -0.004433       0.000000
      0.002237      -0.005772       0.000000
      0.002241      -0.007161       0.000000
      0.003294      -0.007206       0.000000
      0.003292      -0.005807       0.000000
      0.002241      -0.007161       0.000000
      0.002245      -0.008549       0.000000
      0.003297      -0.008603       0.000000
      0.003294      -0.007206       0.000000
      0.003292      -0.005807       0.000000
      0.003294      -0.007206       0.000000
      0.004346      -0.007250       0.000000
      0.004346      -0.005843       0.000000
      0.003294      -0.007206       0.000000
      0.003297      -0.008603       0.000000
      0.004348      -0.008656       0.000000
      0.004346      -0.007250       0.000000
      0.002245      -0.008549       0.000000
      0.002251      -0.009935       0.000000
      0.003301      -0.009998       0.000000
      0.003297      -0.008603       0.000000
      0.002251      -0.009935       0.000000
      0.002257      -0.011319       0.000000
      0.003306      -0.011391       0.000000
      0.003301      -0.009998       0.000000
      0.003297      -0.008603       0.000000
      0.003301      -0.009998       0.000000
      0.004351      -0.010060       0.000000
      0.004348      -0.008656       0.000000
      0.003301      -0.009998       0.000000
      0.003306      -0.011391       0.000000
      0.004354      -0.011463       0.000000
      0.004351      -0.010060       0.000000
      0.002257      -0.011319       0.000000
      0.002263      -0.012703       0.000000
      0.003311      -0.012783       0.000000
      0.003306      -0.011391       0.000000
      0.002263      -0.012703       0.000000
      0.002270      -0.014085       0.000000
      0.003317      -0.014174       0.000000
      0.003311      -0.012783       0.000000
      0.003306      -0.011391       0.000000
      0.003311      -0.012783       0.000000
      0.004358      -0.012864       0.000000
      0.004354      -0.011463       0.000000
      0.003311      -0.012783       0.000000
      0.003317      -0.014174       0.000000
      0.004362      -0.014263       0.000000
      0.004358      -0.012864       0.000000
      0.002270      -0.014085       0.000000
      0.002278      -0.015465       0.000000
      0.003323      -0.015563       0.000000
      0.003317      -0.014174       0.000000
      0.002278      -0.015465       0.000000
      0.002287      -0.016843       0.000000
      0.003330      -0.016951       0.000000
      0.003323      -0.015563       0.000000
      0.003317      -0.014174       0.000000
      0.003323      -0.015563       0.000000
      0.004367      -0.015661       0.000000
      0.004362      -0.014263       0.000000
      0.003323      -0.015563       0.000000
      0.003330      -0.016951       0.000000
      0.004373      -0.017057       0.000000
      0.004367      -0.015661       0.000000
      0.002287      -0.016843       0.000000
      0.002296      -0.018220       0.000000
      0.003338      -0.018336       0.000000
      0.003330      -0.016951       0.000000
      0.002296      -0.018220       0.000000
      0.002306      -0.019594       0.000000
      0.003346      -0.019718       0.000000
      0.003338      -0.018336       0.000000
      0.003330      -0.016951       0.000000
      0.003338      -0.018336       0.000000
      0.004379      -0.018451       0.000000
      0.004373      -0.017057       0.000000
      0.003338      -0.018336       0.000000
      0.003346      -0.019718       0.000000
      0.004386      -0.019843       0.000000
      0.004379      -0.018451       0.000000
      0.002306      -0.019594       0.000000
      0.002316      -0.020965       0.000000
      0.003355      -0.021098       0.000000
      0.003346      -0.019718       0.000000
      0.002316      -0.020965       0.000000
      0.002327      -0.022333       0.000000
      0.003365      -0.022476       0.000000
      0.003355      -0.021098       0.000000
      0.003346      -0.019718       0.000000
      0.003355      -0.021098       0.000000
      0.004393      -0.021232       0.000000
      0.004386      -0.019843       0.000000
      0.003355      -0.021098       0.000000
      0.003365      -0.022476       0.000000
      0.004401      -0.022617       0.000000
      0.004393      -0.021232       0.000000
      0.002327      -0.022333       0.000000
      0.002339      -0.023698       0.000000
      0.003375      -0.023849       0.000000
      0.003365      -0.022476       0.000000
      0.002339      -0.023698       0.000000
      0.002351      -0.025060       0.000000
      0.003386      -0.025219       0.000000
      0.003375      -0.023849       0.000000
      0.003365      -0.022476       0.000000
      0.003375      -0.023849       0.000000
      0.004410      -0.024000       0.000000
      0.004401      -0.022617       0.000000
      0.003375      -0.023849       0.000000
      0.003386      -0.025219       0.000000
      0.004420      -0.025379       0.000000
      0.004410      -0.024000       0.000000
      0.002351      -0.025060       0.000000
      0.002363      -0.026418       0.000000
      0.003397      -0.026585       0.000000
      0.003386      -0.025219       0.000000
      0.002363      -0.026418       0.000000
      0.002374      -0.027772       0.000000
      0.003410      -0.027948       0.000000
      0.003397      -0.026585       0.000000
      0.003386      -0.025219       0.000000
      0.003397      -0.026585       0.000000
      0.004431      -0.026754       0.000000
      0.004420      -0.025379       0.000000
      0.003397      -0.026585       0.000000
      0.003410      -0.027948       0.000000
      0.004444      -0.028125       0.000000
      0.004431      -0.026754       0.000000
      0.002374      -0.027772       0.000000
      0.002386      -0.029123       0.000000
      0.003422      -0.029307       0.000000
      0.003410      -0.027948       0.000000
      0.002386      -0.029123       0.000000
      0.002395      -0.030473       0.000000
      0.003435      -0.030664       0.000000
      0.003422      -0.029307       0.000000
      0.003410      -0.027948       0.000000
      0.003422      -0.029307       0.000000
      0.004459      -0.029493       0.000000
      0.004444      -0.028125       0.000000
      0.003422      -0.029307       0.000000
      0.003435      -0.030664       0.000000
      0.004476      -0.030858       0.000000
      0.004459      -0.029493       0.000000
      0.002395      -0.030473       0.000000
      0.002399      -0.031149       0.000000
      0.002920      -0.031246       0.000000
      0.002915      -0.030568       0.000000
      0.002399      -0.031149       0.000000
      0.002401      -0.031826       0.000000
      0.002923      -0.031924       0.000000
      0.002920      -0.031246       0.000000
      0.002915      -0.030568       0.000000
      0.002920      -0.031246       0.000000
      0.003441      -0.031343       0.000000
      0.003435      -0.030664       0.000000
      0.002920      -0.031246       0.000000
      0.002923      -0.031924       0.000000
      0.003446      -0.032023       0.000000
      0.003441      -0.031343       0.000000
      0.002401      -0.031826       0.000000
      0.002402      -0.032506       0.000000
      0.002924      -0.032606       0.000000
      0.002923      -0.031924       0.000000
      0.002402      -0.032506       0.000000
      0.002402      -0.033189       0.000000
      0.002924      -0.033293       0.000000
      0.002924      -0.032606       0.000000
      0.002923      -0.031924       0.000000
      0.002924      -0.032606       0.000000
      0.003449      -0.032705       0.000000
      0.003446      -0.032023       0.000000
      0.002924      -0.032606       0.000000
      0.002924      -0.033293       0.000000
      0.003449      -0.033395       0.000000
      0.003449      -0.032705       0.000000
      0.003435      -0.030664       0.000000
      0.003441      -0.031343       0.000000
      0.003964      -0.031441       0.000000
      0.003956      -0.030761       0.000000
      0.003441      -0.031343       0.000000
      0.003446      -0.032023       0.000000
      0.003971      -0.032121       0.000000
      0.003964      -0.031441       0.000000
      0.003956      -0.030761       0.000000
      0.003964      -0.031441       0.000000
      0.004485      -0.031540       0.000000
      0.004476      -0.030858       0.000000
      0.003964      -0.031441       0.000000
      0.003971      -0.032121       0.000000
      0.004496      -0.032222       0.000000
      0.004485      -0.031540       0.000000
      0.003446      -0.032023       0.000000
      0.003448      -0.032363       0.000000
      0.003711      -0.032413       0.000000
      0.003709      -0.032072       0.000000
      0.003448      -0.032363       0.000000
      0.003449      -0.032705       0.000000
      0.003713      -0.032755       0.000000
      0.003711      -0.032413       0.000000
      0.003709      -0.032072       0.000000
      0.003711      -0.032413       0.000000
      0.003975      -0.032462       0.000000
      0.003971      -0.032121       0.000000
      0.003711      -0.032413       0.000000
      0.003713      -0.032755       0.000000
      0.003978      -0.032804       0.000000
      0.003975      -0.032462       0.000000
      0.003449      -0.032705       0.000000
      0.003449      -0.033049       0.000000
      0.003713      -0.033099       0.000000
      0.003713      -0.032755       0.000000
      0.003449      -0.033049       0.000000
      0.003449      -0.033395       0.000000
      0.003712      -0.033446       0.000000
      0.003713      -0.033099       0.000000
      0.003713      -0.032755       0.000000
      0.003713      -0.033099       0.000000
      0.003979      -0.033148       0.000000