# vtk DataFile Version 2.0
time_10.vtk
ASCII
DATASET UNSTRUCTURED_GRID
POINTS  3780 float
      0.000000       0.000000       0.000000
      0.162500       0.000000       0.000000
      0.163542       0.125000       0.000000
     -0.000000       0.125000       0.000000
      0.162500       0.000000       0.000000
      0.325000       0.000000       0.000000
      0.327083       0.125000       0.000000
      0.163542       0.125000       0.000000
     -0.000000       0.125000       0.000000
      0.163542       0.125000       0.000000
      0.164583       0.250000       0.000000
      0.000000       0.250000       0.000000
      0.163542       0.125000       0.000000
      0.327083       0.125000       0.000000
      0.329167       0.250000       0.000000
      0.164583       0.250000       0.000000
      0.325000       0.000000       0.000000
      0.487500       0.000000       0.000000
      0.490625       0.125000       0.000000
      0.327083       0.125000       0.000000
      0.487500       0.000000       0.000000
      0.650000       0.000000       0.000000
      0.654167       0.125000       0.000000
      0.490625       0.125000       0.000000
      0.327083       0.125000       0.000000
      0.490625       0.125000       0.000000
      0.493750       0.250000       0.000000
      0.329167       0.250000       0.000000
      0.490625       0.125000       0.000000
      0.654167       0.125000       0.000000
      0.658333       0.250000       0.000000
      0.493750       0.250000       0.000000
      0.650000       0.000000       0.000000
      0.812500       0.000000       0.000000
      0.817708       0.125000       0.000000
      0.654167       0.125000       0.000000
      0.812500       0.000000       0.000000
      0.975000       0.000000       0.000000
      0.981250       0.125000       0.000000
      0.817708       0.125000       0.000000
      0.654167       0.125000       0.000000
      0.817708       0.125000       0.000000
      0.822917       0.250000       0.000000
      0.658333       0.250000       0.000000
      0.817708       0.125000       0.000000
      0.981250       0.125000       0.000000
      0.987500       0.250000       0.000000
      0.822917       0.250000       0.000000
      0.975000       0.000000       0.000000
      1.137500      -0.000000       0.000000
      1.144792       0.125000       0.000000
      0.981250       0.125000       0.000000
      1.137500      -0.000000       0.000000
      1.300000       0.000000       0.000000
      1.308333       0.125000       0.000000
      1.144792       0.125000       0.000000
      0.981250       0.125000       0.000000
      1.144792       0.125000       0.000000
      1.152083       0.250000       0.000000
      0.987500       0.250000       0.000000
      1.144792       0.125000       0.000000
      1.308333       0.125000       0.000000
      1.316667       0.250000       0.000000
      1.152083       0.250000       0.000000
      1.300000       0.000000       0.000000
      1.462500       0.000000       0.000000
      1.471875       0.125000       0.000000
      1.308333       0.125000       0.000000
      1.462500       0.000000       0.000000
      1.625000       0.000000       0.000000
      1.635417       0.125000       0.000000
      1.471875       0.125000       0.000000
      1.308333       0.125000       0.000000
      1.471875       0.125000       0.000000
      1.481250       0.250000       0.000000
      1.316667       0.250000       0.000000
      1.471875       0.125000       0.000000
      1.635417       0.125000       0.000000
      1.645833       0.250000       0.000000
      1.481250       0.250000       0.000000
      1.625000       0.000000       0.000000
      1.787500      -0.000000       0.000000
      1.798958       0.125000       0.000000
      1.635417       0.125000       0.000000
      1.787500      -0.000000       0.000000
      1.950000       0.000000       0.000000
      1.962500       0.125000       0.000000
      1.798958       0.125000       0.000000
      1.635417       0.125000       0.000000
      1.798958       0.125000       0.000000
      1.810417       0.250000       0.000000
      1.645833       0.250000       0.000000
      1.798958       0.125000       0.000000
      1.962500       0.125000       0.000000
      1.975000       0.250000       0.000000
      1.810417       0.250000       0.000000
      1.950000       0.000000       0.000000
      2.112500      -0.000000       0.000000
      2.126042       0.125000       0.000000
      1.962500       0.125000       0.000000
      2.112500      -0.000000       0.000000
      2.275000       0.000000       0.000000
      2.289583       0.125000       0.000000
      2.126042       0.125000       0.000000
      1.962500       0.125000       0.000000
      2.126042       0.125000       0.000000
      2.139583       0.250000       0.000000
      1.975000       0.250000       0.000000
      2.126042       0.125000       0.000000
      2.289583       0.125000       0.000000
      2.304167       0.250000       0.000000
      2.139583       0.250000       0.000000
      2.275000       0.000000       0.000000
      2.437500       0.000000       0.000000
      2.453125       0.125000       0.000000
      2.289583       0.125000       0.000000
      2.437500       0.000000       0.000000
      2.600000       0.000000       0.000000
      2.616667       0.125000       0.000000
      2.453125       0.125000       0.000000
      2.289583       0.125000       0.000000
      2.453125       0.125000       0.000000
      2.468750       0.250000       0.000000
      2.304167       0.250000       0.000000
      2.453125       0.125000       0.000000
      2.616667       0.125000       0.000000
      2.633333       0.250000       0.000000
      2.468750       0.250000       0.000000
      2.600000       0.000000       0.000000
      2.762500       0.000000       0.000000
      2.780208       0.125000       0.000000
      2.616667       0.125000       0.000000
      2.762500       0.000000       0.000000
      2.925000       0.000000       0.000000
      2.943750       0.125000       0.000000
      2.780208       0.125000       0.000000
      2.616667       0.125000       0.000000
      2.780208       0.125000       0.000000
      2.797917       0.250000       0.000000
      2.633333       0.250000       0.000000
      2.780208       0.125000       0.000000
      2.943750       0.125000       0.000000
      2.962500       0.250000       0.000000
      2.797917       0.250000       0.000000
      2.925000       0.000000       0.000000
      3.087500       0.000000       0.000000
      3.107292       0.125000       0.000000
      2.943750       0.125000       0.000000
      3.087500       0.000000       0.000000
      3.250000       0.000000       0.000000
      3.270833       0.125000       0.000000
      3.107292       0.125000       0.000000
      2.943750       0.125000       0.000000
      3.107292       0.125000       0.000000
      3.127083       0.250000       0.000000
      2.962500       0.250000       0.000000
      3.107292       0.125000       0.000000
      3.270833       0.125000       0.000000
      3.291667       0.250000       0.000000
      3.127083       0.250000       0.000000
      3.250000       0.000000       0.000000
      3.412500       0.000000       0.000000
      3.434375       0.125000       0.000000
      3.270833       0.125000       0.000000
      3.412500       0.000000       0.000000
      3.575000       0.000000       0.000000
      3.597917       0.125000       0.000000
      3.434375       0.125000       0.000000
      3.270833       0.125000       0.000000
      3.434375       0.125000       0.000000
      3.456250       0.250000       0.000000
      3.291667       0.250000       0.000000
      3.434375       0.125000       0.000000
      3.597917       0.125000       0.000000
      3.620833       0.250000       0.000000
      3.456250       0.250000       0.000000
      3.575000       0.000000       0.000000
      3.737500      -0.000000       0.000000
      3.761458       0.125000       0.000000
      3.597917       0.125000       0.000000
      3.737500      -0.000000       0.000000
      3.900000       0.000000       0.000000
      3.925000       0.125000       0.000000
      3.761458       0.125000       0.000000
      3.597917       0.125000       0.000000
      3.761458       0.125000       0.000000
      3.785417       0.250000       0.000000
      3.620833       0.250000       0.000000
      3.761458       0.125000       0.000000
      3.925000       0.125000       0.000000
      3.950000       0.250000       0.000000
      3.785417       0.250000       0.000000
      0.000000       0.250000       0.000000
      0.164583       0.250000       0.000000
      0.165625       0.375000       0.000000
     -0.000000       0.375000       0.000000
      0.164583       0.250000       0.000000
      0.329167       0.250000       0.000000
      0.331250       0.375000       0.000000
      0.165625       0.375000       0.000000
     -0.000000       0.375000       0.000000
      0.165625       0.375000       0.000000
      0.166667       0.500000       0.000000
      0.000000       0.500000       0.000000
      0.165625       0.375000       0.000000
      0.331250       0.375000       0.000000
      0.333333       0.500000       0.000000
      0.166667       0.500000       0.000000
      0.329167       0.250000       0.000000
      0.493750       0.250000       0.000000
      0.496875       0.375000       0.000000
      0.331250       0.375000       0.000000
      0.493750       0.250000       0.000000
      0.658333       0.250000       0.000000
      0.662500       0.375000       0.000000
      0.496875       0.375000       0.000000
      0.331250       0.375000       0.000000
      0.496875       0.375000       0.000000
      0.500000       0.500000       0.000000
      0.333333       0.500000       0.000000
[...]
POINT_DATA  3780
VECTORS U float 
      0.000000       0.000000       0.000000
      0.000077      -0.001550       0.000000
      0.001171      -0.001567       0.000000
      0.001164      -0.000125       0.000000
      0.000077      -0.001550       0.000000
      0.000100      -0.002954       0.000000
      0.001173      -0.002976       0.000000
      0.001171      -0.001567       0.000000
      0.001164      -0.000125       0.000000
      0.001171      -0.001567       0.000000
      0.002244      -0.001579       0.000000
      0.002237      -0.000161       0.000000
      0.001171      -0.001567       0.000000
      0.001173      -0.002976       0.000000
      0.002243      -0.002994       0.000000
      0.002244      -0.001579       0.000000
      0.000100      -0.002954       0.000000
      0.000113      -0.004341       0.000000
      0.001178      -0.004370       0.000000
      0.001173      -0.002976       0.000000
      0.000113      -0.004341       0.000000
      0.000123      -0.005722       0.000000
      0.001185      -0.005760       0.000000
      0.001178      -0.004370       0.000000
      0.001173      -0.002976       0.000000
      0.001178      -0.004370       0.000000
      0.002244      -0.004398       0.000000
      0.002243      -0.002994       0.000000
      0.001178      -0.004370       0.000000
      0.001185      -0.005760       0.000000
      0.002246      -0.005796       0.000000
      0.002244      -0.004398       0.000000
      0.000123      -0.005722       0.000000
      0.000132      -0.007100       0.000000
      0.001191      -0.007146       0.000000
      0.001185      -0.005760       0.000000
      0.000132      -0.007100       0.000000
      0.000140      -0.008475       0.000000
      0.001198      -0.008531       0.000000
      0.001191      -0.007146       0.000000
      0.001185      -0.005760       0.000000
      0.001191      -0.007146       0.000000
      0.002250      -0.007192       0.000000
      0.002246      -0.005796       0.000000
      0.001191      -0.007146       0.000000
      0.001198      -0.008531       0.000000
      0.002255      -0.008585       0.000000
      0.002250      -0.007192       0.000000
      0.000140      -0.008475       0.000000
      0.000148      -0.009850       0.000000
      0.001204      -0.009914       0.000000
      0.001198      -0.008531       0.000000
      0.000148      -0.009850       0.000000
      0.000156      -0.011223       0.000000
      0.001212      -0.011296       0.000000
      0.001204      -0.009914       0.000000
      0.001198      -0.008531       0.000000
      0.001204      -0.009914       0.000000
      0.002260      -0.009978       0.000000
      0.002255      -0.008585       0.000000
      0.001204      -0.009914       0.000000
      0.001212      -0.011296       0.000000
      0.002266      -0.011368       0.000000
      0.002260      -0.009978       0.000000
      0.000156      -0.011223       0.000000
      0.000165      -0.012594       0.000000
      0.001219      -0.012676       0.000000
      0.001212      -0.011296       0.000000
      0.000165      -0.012594       0.000000
      0.000174      -0.013964       0.000000
      0.001228      -0.014055       0.000000
      0.001219      -0.012676       0.000000
      0.001212      -0.011296       0.000000
      0.001219      -0.012676       0.000000
      0.002273      -0.012758       0.000000
      0.002266      -0.011368       0.000000
      0.001219      -0.012676       0.000000
      0.001228      -0.014055       0.000000
      0.002280      -0.014145       0.000000
      0.002273      -0.012758       0.000000
      0.000174      -0.013964       0.000000
      0.000185      -0.015333       0.000000
      0.001237      -0.015432       0.000000
      0.001228      -0.014055       0.000000
      0.000185      -0.015333       0.000000
      0.000196      -0.016699       0.000000
      0.001247      -0.016808       0.000000
      0.001237      -0.015432       0.000000
      0.001228      -0.014055       0.000000
      0.001237      -0.015432       0.000000
      0.002288      -0.015532       0.000000
      0.002280      -0.014145       0.000000
      0.001237      -0.015432       0.000000
      0.001247      -0.016808       0.000000
      0.002296      -0.016916       0.000000
      0.002288      -0.015532       0.000000
      0.000196      -0.016699       0.000000
      0.000208      -0.018064       0.000000
      0.001258      -0.018182       0.000000
      0.001247      -0.016808       0.000000
      0.000208      -0.018064       0.000000
      0.000221      -0.019426       0.000000
      0.001269      -0.019553       0.000000
      0.001258      -0.018182       0.000000
      0.001247      -0.016808       0.000000
      0.001258      -0.018182       0.000000
      0.002305      -0.018299       0.000000
      0.002296      -0.016916       0.000000
      0.001258      -0.018182       0.000000
      0.001269      -0.019553       0.000000
      0.002315      -0.019679       0.000000
      0.002305      -0.018299       0.000000
      0.000221      -0.019426       0.000000
      0.000235      -0.020786       0.000000
      0.001281      -0.020921       0.000000
      0.001269      -0.019553       0.000000
      0.000235      -0.020786       0.000000
      0.000250      -0.022144       0.000000
      0.001294      -0.022287       0.000000
      0.001281      -0.020921       0.000000
      0.001269      -0.019553       0.000000
      0.001281      -0.020921       0.000000
      0.002326      -0.021056       0.000000
      0.002315      -0.019679       0.000000
      0.001281      -0.020921       0.000000
      0.001294      -0.022287       0.000000
      0.002337      -0.022430       0.000000
      0.002326      -0.021056       0.000000
      0.000250      -0.022144       0.000000
      0.000265      -0.023498       0.000000
      0.001307      -0.023650       0.000000
      0.001294      -0.022287       0.000000
      0.000265      -0.023498       0.000000
      0.000281      -0.024849       0.000000
      0.001321      -0.025009       0.000000
      0.001307      -0.023650       0.000000
      0.001294      -0.022287       0.000000
      0.001307      -0.023650       0.000000
      0.002348      -0.023801       0.000000
      0.002337      -0.022430       0.000000
      0.001307      -0.023650       0.000000
      0.001321      -0.025009       0.000000
      0.002360      -0.025169       0.000000
      0.002348      -0.023801       0.000000
      0.000281      -0.024849       0.000000
      0.000296      -0.026196       0.000000
      0.001334      -0.026364       0.000000
      0.001321      -0.025009       0.000000
      0.000296      -0.026196       0.000000
      0.000310      -0.027540       0.000000
      0.001346      -0.027716       0.000000
      0.001334      -0.026364       0.000000
      0.001321      -0.025009       0.000000
      0.001334      -0.026364       0.000000
      0.002372      -0.026533       0.000000
      0.002360      -0.025169       0.000000
      0.001334      -0.026364       0.000000
      0.001346      -0.027716       0.000000
      0.002384      -0.027892       0.000000
      0.002372      -0.026533       0.000000
      0.000310      -0.027540       0.000000
      0.000320      -0.028882       0.000000
      0.001356      -0.029066       0.000000
      0.001346      -0.027716       0.000000
      0.000320      -0.028882       0.000000
      0.000327      -0.030224       0.000000
      0.001364      -0.030414       0.000000
      0.001356      -0.029066       0.000000
      0.001346      -0.027716       0.000000
      0.001356      -0.029066       0.000000
      0.002395      -0.029250       0.000000
      0.002384      -0.027892       0.000000
      0.001356      -0.029066       0.000000
      0.001364      -0.030414       0.000000
      0.002405      -0.030606       0.000000
      0.002395      -0.029250       0.000000
      0.000327      -0.030224       0.000000
      0.000329      -0.031568       0.000000
      0.001368      -0.031767       0.000000
      0.001364      -0.030414       0.000000
      0.000329      -0.031568       0.000000
      0.000329      -0.032917       0.000000
      0.001368      -0.033126       0.000000
      0.001368      -0.031767       0.000000
      0.001364      -0.030414       0.000000
      0.001368      -0.031767       0.000000
      0.002411      -0.031965       0.000000
      0.002405      -0.030606       0.000000
      0.001368      -0.031767       0.000000
      0.001368      -0.033126       0.000000
      0.002412      -0.033334       0.000000
      0.002411      -0.031965       0.000000
      0.002237      -0.000161       0.000000
      0.002244      -0.001579       0.000000
      0.003306      -0.001595       0.000000
      0.003300      -0.000181       0.000000
      0.002244      -0.001579       0.000000
      0.002243      -0.002994       0.000000
      0.003306      -0.003012       0.000000
      0.003306      -0.001595       0.000000
      0.003300      -0.000181       0.000000
      0.003306      -0.001595       0.000000
      0.004364      -0.001611       0.000000
      0.004358      -0.000195       0.000000
      0.003306      -0.001595       0.000000
      0.003306      -0.003012       0.000000
      0.004365      -0.003032       0.000000
      0.004364      -0.001611       0.000000
      0.002243      -0.002994       0.000000
      0.002244      -0.004398       0.000000
      0.003306      -0.004425       0.000000
      0.003306      -0.003012       0.000000
      0.002244      -0.004398       0.000000
      0.002246      -0.005796       0.000000
      0.003306      -0.005832       0.000000
      0.003306      -0.004425       0.000000
      0.003306      -0.003012       0.000000
      0.003306      -0.004425       0.000000
      0.004365      -0.004451       0.000000
      0.004365      -0.003032       0.000000
      0.003306      -0.004425       0.000000
      0.003306      -0.005832       0.000000
      0.004364      -0.005868       0.000000
      0.004365      -0.004451       0.000000
      0.002246      -0.005796       0.000000
      0.002250      -0.007192       0.000000
      0.003308      -0.007237       0.000000
      0.003306      -0.005832       0.000000
      0.002250      -0.007192       0.000000
      0.002255      -0.008585       0.000000
      0.003311      -0.008639       0.000000
      0.003308      -0.007237       0.000000
      0.003306      -0.005832       0.000000
      0.003308      -0.007237       0.000000
      0.004365      -0.007281       0.000000
      0.004364      -0.005868       0.000000
      0.003308      -0.007237       0.000000
      0.003311      -0.008639       0.000000
      0.004367      -0.008693       0.000000
      0.004365      -0.007281       0.000000
      0.002255      -0.008585       0.000000
      0.002260      -0.009978       0.000000
      0.003315      -0.010041       0.000000
      0.003311      -0.008639       0.000000
      0.002260      -0.009978       0.000000
      0.002266      -0.011368       0.000000
      0.003320      -0.011440       0.000000
      0.003315      -0.010041       0.000000
      0.003311      -0.008639       0.000000
      0.003315      -0.010041       0.000000
      0.004369      -0.010103       0.000000
      0.004367      -0.008693       0.000000
      0.003315      -0.010041       0.000000
      0.003320      -0.011440       0.000000
      0.004373      -0.011512       0.000000
      0.004369      -0.010103       0.000000
      0.002266      -0.011368       0.000000
      0.002273      -0.012758       0.000000
      0.003325      -0.012839       0.000000
      0.003320      -0.011440       0.000000
      0.002273      -0.012758       0.000000
      0.002280      -0.014145       0.000000
      0.003331      -0.014235       0.000000
      0.003325      -0.012839       0.000000
      0.003320      -0.011440       0.000000
      0.003325      -0.012839       0.000000
      0.004377      -0.012919       0.000000
      0.004373      -0.011512       0.000000
      0.003325      -0.012839       0.000000
      0.003331      -0.014235       0.000000
      0.004381      -0.014325       0.000000
      0.004377      -0.012919       0.000000
      0.002280      -0.014145       0.000000
      0.002288      -0.015532       0.000000
      0.003337      -0.015631       0.000000
      0.003331      -0.014235       0.000000
      0.002288      -0.015532       0.000000
      0.002296      -0.016916       0.000000
      0.003344      -0.017024       0.000000
      0.003337      -0.015631       0.000000
      0.003331      -0.014235       0.000000
      0.003337      -0.015631       0.000000
      0.004386      -0.015729       0.000000
      0.004381      -0.014325       0.000000
      0.003337      -0.015631       0.000000
      0.003344      -0.017024       0.000000
      0.004392      -0.017131       0.000000
      0.004386      -0.015729       0.000000
      0.002296      -0.016916       0.000000
      0.002305      -0.018299       0.000000
      0.003352      -0.018415       0.000000
      0.003344      -0.017024       0.000000
      0.002305      -0.018299       0.000000
      0.002315      -0.019679       0.000000
      0.003360      -0.019804       0.000000
      0.003352      -0.018415       0.000000
      0.003344      -0.017024       0.000000
      0.003352      -0.018415       0.000000
      0.004398      -0.018531       0.000000
      0.004392      -0.017131       0.000000
      0.003352      -0.018415       0.000000
      0.003360      -0.019804       0.000000
      0.004405      -0.019929       0.000000
      0.004398      -0.018531       0.000000
      0.002315      -0.019679       0.000000
      0.002326      -0.021056       0.000000
      0.003369      -0.021190       0.000000
      0.003360      -0.019804       0.000000
      0.002326      -0.021056       0.000000
      0.002337      -0.022430       0.000000
      0.003379      -0.022573       0.000000
      0.003369      -0.021190       0.000000
      0.003360      -0.019804       0.000000
      0.003369      -0.021190       0.000000
      0.004412      -0.021324       0.000000
      0.004405      -0.019929       0.000000
      0.003369      -0.021190       0.000000
      0.003379      -0.022573       0.000000
      0.004420      -0.022716       0.000000
      0.004412      -0.021324       0.000000
      0.002337      -0.022430       0.000000
      0.002348      -0.023801       0.000000
      0.003389      -0.023953       0.000000
      0.003379      -0.022573       0.000000
      0.002348      -0.023801       0.000000
      0.002360      -0.025169       0.000000
      0.003400      -0.025329       0.000000
      0.003389      -0.023953       0.000000
      0.003379      -0.022573       0.000000
      0.003389      -0.023953       0.000000
      0.004429      -0.024104       0.000000
      0.004420      -0.022716       0.000000
      0.003389      -0.023953       0.000000
      0.003400      -0.025329       0.000000
      0.004439      -0.025489       0.000000
      0.004429      -0.024104       0.000000
      0.002360      -0.025169       0.000000
      0.002372      -0.026533       0.000000
      0.003411      -0.026701       0.000000
      0.003400      -0.025329       0.000000
      0.002372      -0.026533       0.000000
      0.002384      -0.027892       0.000000
      0.003424      -0.028069       0.000000
      0.003411      -0.026701       0.000000
      0.003400      -0.025329       0.000000
      0.003411      -0.026701       0.000000
      0.004450      -0.026870       0.000000
      0.004439      -0.025489       0.000000
      0.003411      -0.026701       0.000000
      0.003424      -0.028069       0.000000
      0.004463      -0.028248       0.000000
      0.004450      -0.026870       0.000000
      0.002384      -0.027892       0.000000
      0.002395      -0.029250       0.000000
      0.003437      -0.029435       0.000000
      0.003424      -0.028069       0.000000
      0.002395      -0.029250       0.000000
      0.002405      -0.030606       0.000000
      0.003450      -0.030798       0.000000
      0.003437      -0.029435       0.000000
      0.003424      -0.028069       0.000000
      0.003437      -0.029435       0.000000
      0.004478      -0.029621       0.000000
      0.004463      -0.028248       0.000000
      0.003437      -0.029435       0.000000
      0.003450      -0.030798       0.000000
      0.004494      -0.030992       0.000000
      0.004478      -0.029621       0.000000
      0.002405      -0.030606       0.000000
      0.002409      -0.031284       0.000000
      0.002932      -0.031382       0.000000
      0.002927      -0.030702       0.000000
      0.002409      -0.031284       0.000000
      0.002411      -0.031965       0.000000
      0.002935      -0.032063       0.000000
      0.002932      -0.031382       0.000000
      0.002927      -0.030702       0.000000
      0.002932      -0.031382       0.000000
      0.003456      -0.031480       0.000000
      0.003450      -0.030798       0.000000
      0.002932      -0.031382       0.000000
      0.002935      -0.032063       0.000000
      0.003461      -0.032162       0.000000
      0.003456      -0.031480       0.000000
      0.002411      -0.031965       0.000000
      0.002412      -0.032648       0.000000
      0.002936      -0.032748       0.000000
      0.002935      -0.032063       0.000000
      0.002412      -0.032648       0.000000
      0.002412      -0.033334       0.000000
      0.002936      -0.033438       0.000000
      0.002936      -0.032748       0.000000
      0.002935      -0.032063       0.000000
      0.002936      -0.032748       0.000000
      0.003463      -0.032848       0.000000
      0.003461      -0.032162       0.000000
      0.002936      -0.032748       0.000000
      0.002936      -0.033438       0.000000
      0.003463      -0.033541       0.000000
      0.003463      -0.032848       0.000000
      0.003450      -0.030798       0.000000
      0.003456      -0.031480       0.000000
      0.003980      -0.031578       0.000000
      0.003972      -0.030895       0.000000
      0.003456      -0.031480       0.000000
      0.003461      -0.032162       0.000000
      0.003988      -0.032261       0.000000
      0.003980      -0.031578       0.000000
      0.003972      -0.030895       0.000000
      0.003980      -0.031578       0.000000
      0.004504      -0.031677       0.000000
      0.004494      -0.030992       0.000000
      0.003980      -0.031578       0.000000
      0.003988      -0.032261       0.000000
      0.004515      -0.032362       0.000000
      0.004504      -0.031677       0.000000
      0.003461      -0.032162       0.000000
      0.003463      -0.032504       0.000000
      0.003727      -0.032554       0.000000
      0.003724      -0.032212       0.000000
      0.003463      -0.032504       0.000000
      0.003463      -0.032848       0.000000
      0.003728      -0.032897       0.000000
      0.003727      -0.032554       0.000000
      0.003724      -0.032212       0.000000
      0.003727      -0.032554       0.000000
      0.003991      -0.032604       0.000000
      0.003988      -0.032261       0.000000
      0.003727      -0.032554       0.000000
      0.003728      -0.032897       0.000000
      0.003994      -0.032947       0.000000
      0.003991      -0.032604       0.000000
      0.003463      -0.032848       0.000000
      0.003464      -0.033193       0.000000
      0.003729      -0.033243       0.000000
      0.003728      -0.032897       0.000000
      0.003464      -0.033193       0.000000
      0.003463      -0.033541       0.000000
      0.003728      -0.033592       0.000000
      0.003729      -0.033243       0.000000
      0.003728      -0.032897       0.000000
      0.003729      -0.033243       0.000000
      0.003995      -0.033293       0.000000