# vtk DataFile Version 2.0
time_10.vtk
ASCII
DATASET UNSTRUCTURED_GRID
POINTS  3780 float
      0.000000       0.000000       0.000000
      0.162500       0.000000       0.000000
      0.163542       0.125000       0.000000
     -0.000000       0.125000       0.000000
      0.162500       0.000000       0.000000
      0.325000       0.000000       0.000000
      0.327083       0.125000       0.000000
      0.163542       0.125000       0.000000
     -0.000000       0.125000       0.000000
      0.163542       0.125000       0.000000
      0.164583       0.250000       0.000000
      0.000000       0.250000       0.000000
      0.163542       0.125000       0.000000
      0.327083       0.125000       0.000000
      0.329167       0.250000       0.000000
      0.164583       0.250000       0.000000
      0.325000       0.000000       0.000000
      0.487500       0.000000       0.000000
      0.490625       0.125000       0.000000
      0.327083       0.125000       0.000000
      0.487500       0.000000       0.000000
      0.650000       0.000000       0.000000
      0.654167       0.125000       0.000000
      0.490625       0.125000       0.000000
      0.327083       0.125000       0.000000
      0.490625       0.125000       0.000000
      0.493750       0.250000       0.000000
      0.329167       0.250000       0.000000
      0.490625       0.125000       0.000000
      0.654167       0.125000       0.000000
      0.658333       0.250000       0.000000
      0.493750       0.250000       0.000000
      0.650000       0.000000       0.000000
      0.812500       0.000000       0.000000
      0.817708       0.125000       0.000000
      0.654167       0.125000       0.000000
      0.812500       0.000000       0.000000
      0.975000       0.000000       0.000000
      0.981250       0.125000       0.000000
      0.817708       0.125000       0.000000
      0.654167       0.125000       0.000000
      0.817708       0.125000       0.000000
      0.822917       0.250000       0.000000
      0.658333       0.250000       0.000000
      0.817708       0.125000       0.000000
      0.981250       0.125000       0.000000
      0.987500       0.250000       0.000000
      0.822917       0.250000       0.000000
      0.975000       0.000000       0.000000
      1.137500      -0.000000       0.000000
      1.144792       0.125000       0.000000
      0.981250       0.125000       0.000000
      1.137500      -0.000000       0.000000
      1.300000       0.000000       0.000000
      1.308333       0.125000       0.000000
      1.144792       0.125000       0.000000
      0.981250       0.125000       0.000000
      1.144792       0.125000       0.000000
      1.152083       0.250000       0.000000
      0.987500       0.250000       0.000000
      1.144792       0.125000       0.000000
      1.308333       0.125000       0.000000
      1.316667       0.250000       0.000000
      1.152083       0.250000       0.000000
      1.300000       0.000000       0.000000
      1.462500       0.000000       0.000000
      1.471875       0.125000       0.000000
      1.308333       0.125000       0.000000
      1.462500       0.000000       0.000000
      1.625000       0.000000       0.000000
      1.635417       0.125000       0.000000
      1.471875       0.125000       0.000000
      1.308333       0.125000       0.000000
      1.471875       0.125000       0.000000
      1.481250       0.250000       0.000000
      1.316667       0.250000       0.000000
      1.471875       0.125000       0.000000
      1.635417       0.125000       0.000000
      1.645833       0.250000       0.000000
      1.481250       0.250000       0.000000
      1.625000       0.000000       0.000000
      1.787500      -0.000000       0.000000
      1.798958       0.125000       0.000000
      1.635417       0.125000       0.000000
      1.787500      -0.000000       0.000000
      1.950000       0.000000       0.000000
      1.962500       0.125000       0.000000
      1.798958       0.125000       0.000000
      1.635417       0.125000       0.000000
      1.798958       0.125000       0.000000
      1.810417       0.250000       0.000000
      1.645833       0.250000       0.000000
      1.798958       0.125000       0.000000
      1.962500       0.125000       0.000000
      1.975000       0.250000       0.000000
      1.810417       0.250000       0.000000
      1.950000       0.000000       0.000000
      2.112500      -0.000000       0.000000
      2.126042       0.125000       0.000000
      1.962500       0.125000       0.000000
      2.112500      -0.000000       0.000000
      2.275000       0.000000       0.000000
      2.289583       0.125000       0.000000
      2.126042       0.125000       0.000000
      1.962500       0.125000       0.000000
      2.126042       0.125000       0.000000
      2.139583       0.250000       0.000000
      1.975000       0.250000       0.000000
      2.126042       0.125000       0.000000
      2.289583       0.125000       0.000000
      2.304167       0.250000       0.000000
      2.139583       0.250000       0.000000
      2.275000       0.000000       0.000000
      2.437500       0.000000       0.000000
      2.453125       0.125000       0.000000
      2.289583       0.125000       0.000000
      2.437500       0.000000       0.000000
      2.600000       0.000000       0.000000
      2.616667       0.125000       0.000000
      2.453125       0.125000       0.000000
      2.289583       0.125000       0.000000
      2.453125       0.125000       0.000000
      2.468750       0.250000       0.000000
      2.304167       0.250000       0.000000
      2.453125       0.125000       0.000000
      2.616667       0.125000       0.000000
      2.633333       0.250000       0.000000
      2.468750       0.250000       0.000000
      2.600000       0.000000       0.000000
      2.762500       0.000000       0.000000
      2.780208       0.125000       0.000000
      2.616667       0.125000       0.000000
      2.762500       0.000000       0.000000
      2.925000       0.000000       0.000000
      2.943750       0.125000       0.000000
      2.780208       0.125000       0.000000
      2.616667       0.125000       0.000000
      2.780208       0.125000       0.000000
      2.797917       0.250000       0.000000
      2.633333       0.250000       0.000000
      2.780208       0.125000       0.000000
      2.943750       0.125000       0.000000
      2.962500       0.250000       0.000000
      2.797917       0.250000       0.000000
      2.925000       0.000000       0.000000
      3.087500       0.000000       0.000000
      3.107292       0.125000       0.000000
      2.943750       0.125000       0.000000
      3.087500       0.000000       0.000000
      3.250000       0.000000       0.000000
      3.270833       0.125000       0.000000
      3.107292       0.125000       0.000000
      2.943750       0.125000       0.000000
      3.107292       0.125000       0.000000
      3.127083       0.250000       0.000000
      2.962500       0.250000       0.000000
      3.107292       0.125000       0.000000
      3.270833       0.125000       0.000000
      3.291667       0.250000       0.000000
      3.127083       0.250000       0.000000
      3.250000       0.000000       0.000000
      3.412500       0.000000       0.000000
      3.434375       0.125000       0.000000
      3.270833       0.125000       0.000000
      3.412500       0.000000       0.000000
      3.575000       0.000000       0.000000
      3.597917       0.125000       0.000000
      3.434375       0.125000       0.000000
      3.270833       0.125000       0.000000
      3.434375       0.125000       0.000000
      3.456250       0.250000       0.000000
      3.291667       0.250000       0.000000
      3.434375       0.125000       0.000000
      3.597917       0.125000       0.000000
      3.620833       0.250000       0.000000
      3.456250       0.250000       0.000000
      3.575000       0.000000       0.000000
      3.737500      -0.000000       0.000000
      3.761458       0.125000       0.000000
      3.597917       0.125000       0.000000
      3.737500      -0.000000       0.000000
      3.900000       0.000000       0.000000
      3.925000       0.125000       0.000000
      3.761458       0.125000       0.000000
      3.597917       0.125000       0.000000
      3.761458       0.125000       0.000000
      3.785417       0.250000       0.000000
      3.620833       0.250000       0.000000
      3.761458       0.125000       0.000000
      3.925000       0.125000       0.000000
      3.950000       0.250000       0.000000
      3.785417       0.250000       0.000000
      0.000000       0.250000       0.000000
      0.164583       0.250000       0.000000
      0.165625       0.375000       0.000000
     -0.000000       0.375000       0.000000
      0.164583       0.250000       0.000000
      0.329167       0.250000       0.000000
      0.331250       0.375000       0.000000
      0.165625       0.375000       0.000000
     -0.000000       0.375000       0.000000
      0.165625       0.375000       0.000000
      0.166667       0.500000       0.000000
      0.000000       0.500000       0.000000
      0.165625       0.375000       0.000000
      0.331250       0.375000       0.000000
      0.333333       0.500000       0.000000
      0.166667       0.500000       0.000000
      0.329167       0.250000       0.000000
      0.493750       0.250000       0.000000
      0.496875       0.375000       0.000000
      0.331250       0.375000       0.000000
      0.493750       0.250000       0.000000
      0.658333       0.250000       0.000000
      0.662500       0.375000       0.000000
      0.496875       0.375000       0.000000
      0.331250       0.375000       0.000000
      0.496875       0.375000       0.000000
      0.500000       0.500000       0.000000
      0.333333       0.500000       0.000000
[...]
POINT_DATA  3780
VECTORS U float 
      0.000000       0.000000       0.000000
      0.000077      -0.001548       0.000000
      0.001169      -0.001565       0.000000
      0.001162      -0.000125       0.000000
      0.000077      -0.001548       0.000000
      0.000100      -0.002950       0.000000
      0.001171      -0.002972       0.000000
      0.001169      -0.001565       0.000000
      0.001162      -0.000125       0.000000
      0.001169      -0.001565       0.000000
      0.002241      -0.001577       0.000000
      0.002234      -0.000160       0.000000
      0.001169      -0.001565       0.000000
      0.001171      -0.002972       0.000000
      0.002240      -0.002990       0.000000
      0.002241      -0.001577       0.000000
      0.000100      -0.002950       0.000000
      0.000113      -0.004335       0.000000
      0.001177      -0.004364       0.000000
      0.001171      -0.002972       0.000000
      0.000113      -0.004335       0.000000
      0.000123      -0.005714       0.000000
      0.001183      -0.005752       0.000000
      0.001177      -0.004364       0.000000
      0.001171      -0.002972       0.000000
      0.001177      -0.004364       0.000000
      0.002240      -0.004392       0.000000
      0.002240      -0.002990       0.000000
      0.001177      -0.004364       0.000000
      0.001183      -0.005752       0.000000
      0.002243      -0.005788       0.000000
      0.002240      -0.004392       0.000000
      0.000123      -0.005714       0.000000
      0.000132      -0.007090       0.000000
      0.001189      -0.007136       0.000000
      0.001183      -0.005752       0.000000
      0.000132      -0.007090       0.000000
      0.000140      -0.008463       0.000000
      0.001196      -0.008519       0.000000
      0.001189      -0.007136       0.000000
      0.001183      -0.005752       0.000000
      0.001189      -0.007136       0.000000
      0.002247      -0.007182       0.000000
      0.002243      -0.005788       0.000000
      0.001189      -0.007136       0.000000
      0.001196      -0.008519       0.000000
      0.002252      -0.008573       0.000000
      0.002247      -0.007182       0.000000
      0.000140      -0.008463       0.000000
      0.000148      -0.009836       0.000000
      0.001203      -0.009900       0.000000
      0.001196      -0.008519       0.000000
      0.000148      -0.009836       0.000000
      0.000156      -0.011207       0.000000
      0.001210      -0.011280       0.000000
      0.001203      -0.009900       0.000000
      0.001196      -0.008519       0.000000
      0.001203      -0.009900       0.000000
      0.002257      -0.009963       0.000000
      0.002252      -0.008573       0.000000
      0.001203      -0.009900       0.000000
      0.001210      -0.011280       0.000000
      0.002263      -0.011352       0.000000
      0.002257      -0.009963       0.000000
      0.000156      -0.011207       0.000000
      0.000165      -0.012576       0.000000
      0.001218      -0.012658       0.000000
      0.001210      -0.011280       0.000000
      0.000165      -0.012576       0.000000
      0.000174      -0.013944       0.000000
      0.001226      -0.014035       0.000000
      0.001218      -0.012658       0.000000
      0.001210      -0.011280       0.000000
      0.001218      -0.012658       0.000000
      0.002270      -0.012739       0.000000
      0.002263      -0.011352       0.000000
      0.001218      -0.012658       0.000000
      0.001226      -0.014035       0.000000
      0.002277      -0.014125       0.000000
      0.002270      -0.012739       0.000000
      0.000174      -0.013944       0.000000
      0.000185      -0.015311       0.000000
      0.001235      -0.015410       0.000000
      0.001226      -0.014035       0.000000
      0.000185      -0.015311       0.000000
      0.000196      -0.016675       0.000000
      0.001245      -0.016784       0.000000
      0.001235      -0.015410       0.000000
      0.001226      -0.014035       0.000000
      0.001235      -0.015410       0.000000
      0.002285      -0.015509       0.000000
      0.002277      -0.014125       0.000000
      0.001235      -0.015410       0.000000
      0.001245      -0.016784       0.000000
      0.002293      -0.016892       0.000000
      0.002285      -0.015509       0.000000
      0.000196      -0.016675       0.000000
      0.000208      -0.018038       0.000000
      0.001256      -0.018155       0.000000
      0.001245      -0.016784       0.000000
      0.000208      -0.018038       0.000000
      0.000221      -0.019398       0.000000
      0.001267      -0.019525       0.000000
      0.001256      -0.018155       0.000000
      0.001245      -0.016784       0.000000
      0.001256      -0.018155       0.000000
      0.002302      -0.018272       0.000000
      0.002293      -0.016892       0.000000
      0.001256      -0.018155       0.000000
      0.001267      -0.019525       0.000000
      0.002312      -0.019650       0.000000
      0.002302      -0.018272       0.000000
      0.000221      -0.019398       0.000000
      0.000235      -0.020756       0.000000
      0.001280      -0.020891       0.000000
      0.001267      -0.019525       0.000000
      0.000235      -0.020756       0.000000
      0.000250      -0.022112       0.000000
      0.001292      -0.022255       0.000000
      0.001280      -0.020891       0.000000
      0.001267      -0.019525       0.000000
      0.001280      -0.020891       0.000000
      0.002323      -0.021026       0.000000
      0.002312      -0.019650       0.000000
      0.001280      -0.020891       0.000000
      0.001292      -0.022255       0.000000
      0.002334      -0.022398       0.000000
      0.002323      -0.021026       0.000000
      0.000250      -0.022112       0.000000
      0.000265      -0.023464       0.000000
      0.001306      -0.023616       0.000000
      0.001292      -0.022255       0.000000
      0.000265      -0.023464       0.000000
      0.000281      -0.024813       0.000000
      0.001319      -0.024973       0.000000
      0.001306      -0.023616       0.000000
      0.001292      -0.022255       0.000000
      0.001306      -0.023616       0.000000
      0.002345      -0.023767       0.000000
      0.002334      -0.022398       0.000000
      0.001306      -0.023616       0.000000
      0.001319      -0.024973       0.000000
      0.002357      -0.025133       0.000000
      0.002345      -0.023767       0.000000
      0.000281      -0.024813       0.000000
      0.000296      -0.026158       0.000000
      0.001332      -0.026326       0.000000
      0.001319      -0.024973       0.000000
      0.000296      -0.026158       0.000000
      0.000309      -0.027500       0.000000
      0.001344      -0.027676       0.000000
      0.001332      -0.026326       0.000000
      0.001319      -0.024973       0.000000
      0.001332      -0.026326       0.000000
      0.002369      -0.026494       0.000000
      0.002357      -0.025133       0.000000
      0.001332      -0.026326       0.000000
      0.001344      -0.027676       0.000000
      0.002381      -0.027852       0.000000
      0.002369      -0.026494       0.000000
      0.000309      -0.027500       0.000000
      0.000320      -0.028840       0.000000
      0.001354      -0.029024       0.000000
      0.001344      -0.027676       0.000000
      0.000320      -0.028840       0.000000
      0.000327      -0.030180       0.000000
      0.001362      -0.030370       0.000000
      0.001354      -0.029024       0.000000
      0.001344      -0.027676       0.000000
      0.001354      -0.029024       0.000000
      0.002392      -0.029207       0.000000
      0.002381      -0.027852       0.000000
      0.001354      -0.029024       0.000000
      0.001362      -0.030370       0.000000
      0.002402      -0.030561       0.000000
      0.002392      -0.029207       0.000000
      0.000327      -0.030180       0.000000
      0.000329      -0.031522       0.000000
      0.001366      -0.031721       0.000000
      0.001362      -0.030370       0.000000
      0.000329      -0.031522       0.000000
      0.000329      -0.032870       0.000000
      0.001367      -0.033078       0.000000
      0.001366      -0.031721       0.000000
      0.001362      -0.030370       0.000000
      0.001366      -0.031721       0.000000
      0.002408      -0.031918       0.000000
      0.002402      -0.030561       0.000000
      0.001366      -0.031721       0.000000
      0.001367      -0.033078       0.000000
      0.002409      -0.033286       0.000000
      0.002408      -0.031918       0.000000
      0.002234      -0.000160       0.000000
      0.002241      -0.001577       0.000000
      0.003301      -0.001593       0.000000
      0.003295      -0.000181       0.000000
      0.002241      -0.001577       0.000000
      0.002240      -0.002990       0.000000
      0.003302      -0.003008       0.000000
      0.003301      -0.001593       0.000000
      0.003295      -0.000181       0.000000
      0.003301      -0.001593       0.000000
      0.004358      -0.001609       0.000000
      0.004352      -0.000195       0.000000
      0.003301      -0.001593       0.000000
      0.003302      -0.003008       0.000000
      0.004359      -0.003028       0.000000
      0.004358      -0.001609       0.000000
      0.002240      -0.002990       0.000000
      0.002240      -0.004392       0.000000
      0.003301      -0.004418       0.000000
      0.003302      -0.003008       0.000000
      0.002240      -0.004392       0.000000
      0.002243      -0.005788       0.000000
      0.003302      -0.005824       0.000000
      0.003301      -0.004418       0.000000
      0.003302      -0.003008       0.000000
      0.003301      -0.004418       0.000000
      0.004358      -0.004445       0.000000
      0.004359      -0.003028       0.000000
      0.003301      -0.004418       0.000000
      0.003302      -0.005824       0.000000
      0.004358      -0.005859       0.000000
      0.004358      -0.004445       0.000000
      0.002243      -0.005788       0.000000
      0.002247      -0.007182       0.000000
      0.003304      -0.007227       0.000000
      0.003302      -0.005824       0.000000
      0.002247      -0.007182       0.000000
      0.002252      -0.008573       0.000000
      0.003307      -0.008627       0.000000
      0.003304      -0.007227       0.000000
      0.003302      -0.005824       0.000000
      0.003304      -0.007227       0.000000
      0.004359      -0.007271       0.000000
      0.004358      -0.005859       0.000000
      0.003304      -0.007227       0.000000
      0.003307      -0.008627       0.000000
      0.004361      -0.008681       0.000000
      0.004359      -0.007271       0.000000
      0.002252      -0.008573       0.000000
      0.002257      -0.009963       0.000000
      0.003311      -0.010026       0.000000
      0.003307      -0.008627       0.000000
      0.002257      -0.009963       0.000000
      0.002263      -0.011352       0.000000
      0.003315      -0.011424       0.000000
      0.003311      -0.010026       0.000000
      0.003307      -0.008627       0.000000
      0.003311      -0.010026       0.000000
      0.004363      -0.010089       0.000000
      0.004361      -0.008681       0.000000
      0.003311      -0.010026       0.000000
      0.003315      -0.011424       0.000000
      0.004366      -0.011495       0.000000
      0.004363      -0.010089       0.000000
      0.002263      -0.011352       0.000000
      0.002270      -0.012739       0.000000
      0.003320      -0.012820       0.000000
      0.003315      -0.011424       0.000000
      0.002270      -0.012739       0.000000
      0.002277      -0.014125       0.000000
      0.003326      -0.014215       0.000000
      0.003320      -0.012820       0.000000
      0.003315      -0.011424       0.000000
      0.003320      -0.012820       0.000000
      0.004370      -0.012901       0.000000
      0.004366      -0.011495       0.000000
      0.003320      -0.012820       0.000000
      0.003326      -0.014215       0.000000
      0.004375      -0.014304       0.000000
      0.004370      -0.012901       0.000000
      0.002277      -0.014125       0.000000
      0.002285      -0.015509       0.000000
      0.003333      -0.015608       0.000000
      0.003326      -0.014215       0.000000
      0.002285      -0.015509       0.000000
      0.002293      -0.016892       0.000000
      0.003340      -0.016999       0.000000
      0.003333      -0.015608       0.000000
      0.003326      -0.014215       0.000000
      0.003333      -0.015608       0.000000
      0.004380      -0.015706       0.000000
      0.004375      -0.014304       0.000000
      0.003333      -0.015608       0.000000
      0.003340      -0.016999       0.000000
      0.004386      -0.017106       0.000000
      0.004380      -0.015706       0.000000
      0.002293      -0.016892       0.000000
      0.002302      -0.018272       0.000000
      0.003347      -0.018389       0.000000
      0.003340      -0.016999       0.000000
      0.002302      -0.018272       0.000000
      0.002312      -0.019650       0.000000
      0.003356      -0.019775       0.000000
      0.003347      -0.018389       0.000000
      0.003340      -0.016999       0.000000
      0.003347      -0.018389       0.000000
      0.004392      -0.018504       0.000000
      0.004386      -0.017106       0.000000
      0.003347      -0.018389       0.000000
      0.003356      -0.019775       0.000000
      0.004398      -0.019900       0.000000
      0.004392      -0.018504       0.000000
      0.002312      -0.019650       0.000000
      0.002323      -0.021026       0.000000
      0.003365      -0.021159       0.000000
      0.003356      -0.019775       0.000000
      0.002323      -0.021026       0.000000
      0.002334      -0.022398       0.000000
      0.003374      -0.022541       0.000000
      0.003365      -0.021159       0.000000
      0.003356      -0.019775       0.000000
      0.003365      -0.021159       0.000000
      0.004406      -0.021293       0.000000
      0.004398      -0.019900       0.000000
      0.003365      -0.021159       0.000000
      0.003374      -0.022541       0.000000
      0.004414      -0.022683       0.000000
      0.004406      -0.021293       0.000000
      0.002334      -0.022398       0.000000
      0.002345      -0.023767       0.000000
      0.003384      -0.023918       0.000000
      0.003374      -0.022541       0.000000
      0.002345      -0.023767       0.000000
      0.002357      -0.025133       0.000000
      0.003395      -0.025292       0.000000
      0.003384      -0.023918       0.000000
      0.003374      -0.022541       0.000000
      0.003384      -0.023918       0.000000
      0.004423      -0.024069       0.000000
      0.004414      -0.022683       0.000000
      0.003384      -0.023918       0.000000
      0.003395      -0.025292       0.000000
      0.004433      -0.025452       0.000000
      0.004423      -0.024069       0.000000
      0.002357      -0.025133       0.000000
      0.002369      -0.026494       0.000000
      0.003407      -0.026663       0.000000
      0.003395      -0.025292       0.000000
      0.002369      -0.026494       0.000000
      0.002381      -0.027852       0.000000
      0.003419      -0.028029       0.000000
      0.003407      -0.026663       0.000000
      0.003395      -0.025292       0.000000
      0.003407      -0.026663       0.000000
      0.004444      -0.026832       0.000000
      0.004433      -0.025452       0.000000
      0.003407      -0.026663       0.000000
      0.003419      -0.028029       0.000000
      0.004457      -0.028207       0.000000
      0.004444      -0.026832       0.000000
      0.002381      -0.027852       0.000000
      0.002392      -0.029207       0.000000
      0.003432      -0.029392       0.000000
      0.003419      -0.028029       0.000000
      0.002392      -0.029207       0.000000
      0.002402      -0.030561       0.000000
      0.003445      -0.030753       0.000000
      0.003432      -0.029392       0.000000
      0.003419      -0.028029       0.000000
      0.003432      -0.029392       0.000000
      0.004471      -0.029578       0.000000
      0.004457      -0.028207       0.000000
      0.003432      -0.029392       0.000000
      0.003445      -0.030753       0.000000
      0.004488      -0.030947       0.000000
      0.004471      -0.029578       0.000000
      0.002402      -0.030561       0.000000
      0.002405      -0.031239       0.000000
      0.002928      -0.031336       0.000000
      0.002923      -0.030657       0.000000
      0.002405      -0.031239       0.000000
      0.002408      -0.031918       0.000000
      0.002931      -0.032017       0.000000
      0.002928      -0.031336       0.000000
      0.002923      -0.030657       0.000000
      0.002928      -0.031336       0.000000
      0.003451      -0.031434       0.000000
      0.003445      -0.030753       0.000000
      0.002928      -0.031336       0.000000
      0.002931      -0.032017       0.000000
      0.003456      -0.032116       0.000000
      0.003451      -0.031434       0.000000
      0.002408      -0.031918       0.000000
      0.002409      -0.032600       0.000000
      0.002932      -0.032701       0.000000
      0.002931      -0.032017       0.000000
      0.002409      -0.032600       0.000000
      0.002409      -0.033286       0.000000
      0.002932      -0.033390       0.000000
      0.002932      -0.032701       0.000000
      0.002931      -0.032017       0.000000
      0.002932      -0.032701       0.000000
      0.003459      -0.032800       0.000000
      0.003456      -0.032116       0.000000
      0.002932      -0.032701       0.000000
      0.002932      -0.033390       0.000000
      0.003458      -0.033493       0.000000
      0.003459      -0.032800       0.000000
      0.003445      -0.030753       0.000000
      0.003451      -0.031434       0.000000
      0.003975      -0.031532       0.000000
      0.003967      -0.030850       0.000000
      0.003451      -0.031434       0.000000
      0.003456      -0.032116       0.000000
      0.003982      -0.032215       0.000000
      0.003975      -0.031532       0.000000
      0.003967      -0.030850       0.000000
      0.003975      -0.031532       0.000000
      0.004498      -0.031631       0.000000
      0.004488      -0.030947       0.000000
      0.003975      -0.031532       0.000000
      0.003982      -0.032215       0.000000
      0.004508      -0.032315       0.000000
      0.004498      -0.031631       0.000000
      0.003456      -0.032116       0.000000
      0.003458      -0.032457       0.000000
      0.003722      -0.032507       0.000000
      0.003719      -0.032165       0.000000
      0.003458      -0.032457       0.000000
      0.003459      -0.032800       0.000000
      0.003723      -0.032850       0.000000
      0.003722      -0.032507       0.000000
      0.003719      -0.032165       0.000000
      0.003722      -0.032507       0.000000
      0.003986      -0.032557       0.000000
      0.003982      -0.032215       0.000000
      0.003722      -0.032507       0.000000
      0.003723      -0.032850       0.000000
      0.003989      -0.032899       0.000000
      0.003986      -0.032557       0.000000
      0.003459      -0.032800       0.000000
      0.003459      -0.033145       0.000000
      0.003724      -0.033195       0.000000
      0.003723      -0.032850       0.000000
      0.003459      -0.033145       0.000000
      0.003458      -0.033493       0.000000
      0.003723      -0.033544       0.000000
      0.003724      -0.033195       0.000000
      0.003723      -0.032850       0.000000
      0.003724      -0.033195       0.000000
      0.003990      -0.033244       0.000000