# vtk DataFile Version 2.0
time_10.vtk
ASCII
DATASET UNSTRUCTURED_GRID
POINTS  3648 float
      0.000000       0.000000       0.000000
      0.162500       0.000000       0.000000
      0.163542       0.125000       0.000000
     -0.000000       0.125000       0.000000
      0.162500       0.000000       0.000000
      0.325000       0.000000       0.000000
      0.327083       0.125000       0.000000
      0.163542       0.125000       0.000000
     -0.000000       0.125000       0.000000
      0.163542       0.125000       0.000000
      0.164583       0.250000       0.000000
      0.000000       0.250000       0.000000
      0.163542       0.125000       0.000000
      0.327083       0.125000       0.000000
      0.329167       0.250000       0.000000
      0.164583       0.250000       0.000000
      0.325000       0.000000       0.000000
      0.487500       0.000000       0.000000
      0.490625       0.125000       0.000000
      0.327083       0.125000       0.000000
      0.487500       0.000000       0.000000
      0.650000       0.000000       0.000000
      0.654167       0.125000       0.000000
      0.490625       0.125000       0.000000
      0.327083       0.125000       0.000000
      0.490625       0.125000       0.000000
      0.493750       0.250000       0.000000
      0.329167       0.250000       0.000000
      0.490625       0.125000       0.000000
      0.654167       0.125000       0.000000
      0.658333       0.250000       0.000000
      0.493750       0.250000       0.000000
      0.650000       0.000000       0.000000
      0.812500       0.000000       0.000000
      0.817708       0.125000       0.000000
      0.654167       0.125000       0.000000
      0.812500       0.000000       0.000000
      0.975000       0.000000       0.000000
      0.981250       0.125000       0.000000
      0.817708       0.125000       0.000000
      0.654167       0.125000       0.000000
      0.817708       0.125000       0.000000
      0.822917       0.250000       0.000000
      0.658333       0.250000       0.000000
      0.817708       0.125000       0.000000
      0.981250       0.125000       0.000000
      0.987500       0.250000       0.000000
      0.822917       0.250000       0.000000
      0.975000       0.000000       0.000000
      1.137500      -0.000000       0.000000
      1.144792       0.125000       0.000000
      0.981250       0.125000       0.000000
      1.137500      -0.000000       0.000000
      1.300000       0.000000       0.000000
      1.308333       0.125000       0.000000
      1.144792       0.125000       0.000000
      0.981250       0.125000       0.000000
      1.144792       0.125000       0.000000
      1.152083       0.250000       0.000000
      0.987500       0.250000       0.000000
      1.144792       0.125000       0.000000
      1.308333       0.125000       0.000000
      1.316667       0.250000       0.000000
      1.152083       0.250000       0.000000
      1.300000       0.000000       0.000000
      1.462500       0.000000       0.000000
      1.471875       0.125000       0.000000
      1.308333       0.125000       0.000000
      1.462500       0.000000       0.000000
      1.625000       0.000000       0.000000
      1.635417       0.125000       0.000000
      1.471875       0.125000       0.000000
      1.308333       0.125000       0.000000
      1.471875       0.125000       0.000000
      1.481250       0.250000       0.000000
      1.316667       0.250000       0.000000
      1.471875       0.125000       0.000000
      1.635417       0.125000       0.000000
      1.645833       0.250000       0.000000
      1.481250       0.250000       0.000000
      1.625000       0.000000       0.000000
      1.787500      -0.000000       0.000000
      1.798958       0.125000       0.000000
      1.635417       0.125000       0.000000
      1.787500      -0.000000       0.000000
      1.950000       0.000000       0.000000
      1.962500       0.125000       0.000000
      1.798958       0.125000       0.000000
      1.635417       0.125000       0.000000
      1.798958       0.125000       0.000000
      1.810417       0.250000       0.000000
      1.645833       0.250000       0.000000
      1.798958       0.125000       0.000000
      1.962500       0.125000       0.000000
      1.975000       0.250000       0.000000
      1.810417       0.250000       0.000000
      1.950000       0.000000       0.000000
      2.112500      -0.000000       0.000000
      2.126042       0.125000       0.000000
      1.962500       0.125000       0.000000
      2.112500      -0.000000       0.000000
      2.275000       0.000000       0.000000
      2.289583       0.125000       0.000000
      2.126042       0.125000       0.000000
      1.962500       0.125000       0.000000
      2.126042       0.125000       0.000000
      2.139583       0.250000       0.000000
      1.975000       0.250000       0.000000
      2.126042       0.125000       0.000000
      2.289583       0.125000       0.000000
      2.304167       0.250000       0.000000
      2.139583       0.250000       0.000000
      2.275000       0.000000       0.000000
      2.437500       0.000000       0.000000
      2.453125       0.125000       0.000000
      2.289583       0.125000       0.000000
      2.437500       0.000000       0.000000
      2.600000       0.000000       0.000000
      2.616667       0.125000       0.000000
      2.453125       0.125000       0.000000
      2.289583       0.125000       0.000000
      2.453125       0.125000       0.000000
      2.468750       0.250000       0.000000
      2.304167       0.250000       0.000000
      2.453125       0.125000       0.000000
      2.616667       0.125000       0.000000
      2.633333       0.250000       0.000000
      2.468750       0.250000       0.000000
      2.600000       0.000000       0.000000
      2.762500       0.000000       0.000000
      2.780208       0.125000       0.000000
      2.616667       0.125000       0.000000
      2.762500       0.000000       0.000000
      2.925000       0.000000       0.000000
      2.943750       0.125000       0.000000
      2.780208       0.125000       0.000000
      2.616667       0.125000       0.000000
      2.780208       0.125000       0.000000
      2.797917       0.250000       0.000000
      2.633333       0.250000       0.000000
      2.780208       0.125000       0.000000
      2.943750       0.125000       0.000000
      2.962500       0.250000       0.000000
      2.797917       0.250000       0.000000
      2.925000       0.000000       0.000000
      3.087500       0.000000       0.000000
      3.107292       0.125000       0.000000
      2.943750       0.125000       0.000000
      3.087500       0.000000       0.000000
      3.250000       0.000000       0.000000
      3.270833       0.125000       0.000000
      3.107292       0.125000       0.000000
      2.943750       0.125000       0.000000
      3.107292       0.125000       0.000000
      3.127083       0.250000       0.000000
      2.962500       0.250000       0.000000
      3.107292       0.125000       0.000000
      3.270833       0.125000       0.000000
      3.291667       0.250000       0.000000
      3.127083       0.250000       0.000000
      3.250000       0.000000       0.000000
      3.412500       0.000000       0.000000
      3.434375       0.125000       0.000000
      3.270833       0.125000       0.000000
      3.412500       0.000000       0.000000
      3.575000       0.000000       0.000000
      3.597917       0.125000       0.000000
      3.434375       0.125000       0.000000
      3.270833       0.125000       0.000000
      3.434375       0.125000       0.000000
      3.456250       0.250000       0.000000
      3.291667       0.250000       0.000000
      3.434375       0.125000       0.000000
      3.597917       0.125000       0.000000
      3.620833       0.250000       0.000000
      3.456250       0.250000       0.000000
      3.575000       0.000000       0.000000
      3.737500      -0.000000       0.000000
      3.761458       0.125000       0.000000
      3.597917       0.125000       0.000000
      3.737500      -0.000000       0.000000
      3.900000       0.000000       0.000000
      3.925000       0.125000       0.000000
      3.761458       0.125000       0.000000
      3.597917       0.125000       0.000000
      3.761458       0.125000       0.000000
      3.785417       0.250000       0.000000
      3.620833       0.250000       0.000000
      3.761458       0.125000       0.000000
      3.925000       0.125000       0.000000
      3.950000       0.250000       0.000000
      3.785417       0.250000       0.000000
      0.000000       0.250000       0.000000
      0.164583       0.250000       0.000000
      0.165625       0.375000       0.000000
     -0.000000       0.375000       0.000000
      0.164583       0.250000       0.000000
      0.329167       0.250000       0.000000
      0.331250       0.375000       0.000000
      0.165625       0.375000       0.000000
     -0.000000       0.375000       0.000000
      0.165625       0.375000       0.000000
      0.166667       0.500000       0.000000
      0.000000       0.500000       0.000000
      0.165625       0.375000       0.000000
      0.331250       0.375000       0.000000
      0.333333       0.500000       0.000000
      0.166667       0.500000       0.000000
      0.329167       0.250000       0.000000
      0.493750       0.250000       0.000000
      0.496875       0.375000       0.000000
      0.331250       0.375000       0.000000
      0.493750       0.250000       0.000000
      0.658333       0.250000       0.000000
      0.662500       0.375000       0.000000
      0.496875       0.375000       0.000000
      0.331250       0.375000       0.000000
      0.496875       0.375000       0.000000
      0.500000       0.500000       0.000000
      0.333333       0.500000       0.000000
[...]
POINT_DATA  3648
VECTORS U float 
      0.000000       0.000000       0.000000
      0.000519      -0.001598       0.000000
      0.001082      -0.001656       0.000000
      0.001034      -0.000844       0.000000
      0.000519      -0.001598       0.000000
      0.000668      -0.002213       0.000000
      0.001095      -0.002246       0.000000
      0.001082      -0.001656       0.000000
      0.001034      -0.000844       0.000000
      0.001082      -0.001656       0.000000
      0.001512      -0.001678       0.000000
      0.001462      -0.001078       0.000000
      0.001082      -0.001656       0.000000
      0.001095      -0.002246       0.000000
      0.001503      -0.002254       0.000000
      0.001512      -0.001678       0.000000
      0.000668      -0.002213       0.000000
      0.000756      -0.002716       0.000000
      0.001133      -0.002744       0.000000
      0.001095      -0.002246       0.000000
      0.000756      -0.002716       0.000000
      0.000822      -0.003178       0.000000
      0.001174      -0.003206       0.000000
      0.001133      -0.002744       0.000000
      0.001095      -0.002246       0.000000
      0.001133      -0.002744       0.000000
      0.001508      -0.002759       0.000000
      0.001503      -0.002254       0.000000
      0.001133      -0.002744       0.000000
      0.001174      -0.003206       0.000000
      0.001526      -0.003227       0.000000
      0.001508      -0.002759       0.000000
      0.000822      -0.003178       0.000000
      0.000878      -0.003620       0.000000
      0.001216      -0.003650       0.000000
      0.001174      -0.003206       0.000000
      0.000878      -0.003620       0.000000
      0.000932      -0.004050       0.000000
      0.001259      -0.004082       0.000000
      0.001216      -0.003650       0.000000
      0.001174      -0.003206       0.000000
      0.001216      -0.003650       0.000000
      0.001551      -0.003675       0.000000
      0.001526      -0.003227       0.000000
      0.001216      -0.003650       0.000000
      0.001259      -0.004082       0.000000
      0.001583      -0.004110       0.000000
      0.001551      -0.003675       0.000000
      0.000932      -0.004050       0.000000
      0.000985      -0.004468       0.000000
      0.001304      -0.004503       0.000000
      0.001259      -0.004082       0.000000
      0.000985      -0.004468       0.000000
      0.001040      -0.004878       0.000000
      0.001351      -0.004916       0.000000
      0.001304      -0.004503       0.000000
      0.001259      -0.004082       0.000000
      0.001304      -0.004503       0.000000
      0.001618      -0.004535       0.000000
      0.001583      -0.004110       0.000000
      0.001304      -0.004503       0.000000
      0.001351      -0.004916       0.000000
      0.001657      -0.004951       0.000000
      0.001618      -0.004535       0.000000
      0.001040      -0.004878       0.000000
      0.001098      -0.005278       0.000000
      0.001403      -0.005319       0.000000
      0.001351      -0.004916       0.000000
      0.001098      -0.005278       0.000000
      0.001161      -0.005668       0.000000
      0.001458      -0.005713       0.000000
      0.001403      -0.005319       0.000000
      0.001351      -0.004916       0.000000
      0.001403      -0.005319       0.000000
      0.001700      -0.005358       0.000000
      0.001657      -0.004951       0.000000
      0.001403      -0.005319       0.000000
      0.001458      -0.005713       0.000000
      0.001747      -0.005755       0.000000
      0.001700      -0.005358       0.000000
      0.001161      -0.005668       0.000000
      0.001229      -0.006047       0.000000
      0.001518      -0.006096       0.000000
      0.001458      -0.005713       0.000000
      0.001229      -0.006047       0.000000
      0.001302      -0.006415       0.000000
      0.001582      -0.006466       0.000000
      0.001518      -0.006096       0.000000
      0.001458      -0.005713       0.000000
      0.001518      -0.006096       0.000000
      0.001798      -0.006141       0.000000
      0.001747      -0.005755       0.000000
      0.001518      -0.006096       0.000000
      0.001582      -0.006466       0.000000
      0.001854      -0.006515       0.000000
      0.001798      -0.006141       0.000000
      0.001302      -0.006415       0.000000
      0.001381      -0.006770       0.000000
      0.001651      -0.006824       0.000000
      0.001582      -0.006466       0.000000
      0.001381      -0.006770       0.000000
      0.001464      -0.007111       0.000000
      0.001724      -0.007167       0.000000
      0.001651      -0.006824       0.000000
      0.001582      -0.006466       0.000000
      0.001651      -0.006824       0.000000
      0.001913      -0.006875       0.000000
      0.001854      -0.006515       0.000000
      0.001651      -0.006824       0.000000
      0.001724      -0.007167       0.000000
      0.001977      -0.007220       0.000000
      0.001913      -0.006875       0.000000
      0.001464      -0.007111       0.000000
      0.001552      -0.007436       0.000000
      0.001801      -0.007494       0.000000
      0.001724      -0.007167       0.000000
      0.001552      -0.007436       0.000000
      0.001644      -0.007744       0.000000
      0.001881      -0.007803       0.000000
      0.001801      -0.007494       0.000000
      0.001724      -0.007167       0.000000
      0.001801      -0.007494       0.000000
      0.002044      -0.007549       0.000000
      0.001977      -0.007220       0.000000
      0.001801      -0.007494       0.000000
      0.001881      -0.007803       0.000000
      0.002114      -0.007859       0.000000
      0.002044      -0.007549       0.000000
      0.001644      -0.007744       0.000000
      0.001737      -0.008034       0.000000
      0.001963      -0.008094       0.000000
      0.001881      -0.007803       0.000000
      0.001737      -0.008034       0.000000
      0.001829      -0.008307       0.000000
      0.002044      -0.008365       0.000000
      0.001963      -0.008094       0.000000
      0.001881      -0.007803       0.000000
      0.001963      -0.008094       0.000000
      0.002187      -0.008151       0.000000
      0.002114      -0.007859       0.000000
      0.001963      -0.008094       0.000000
      0.002044      -0.008365       0.000000
      0.002262      -0.008422       0.000000
      0.002187      -0.008151       0.000000
      0.001829      -0.008307       0.000000
      0.001917      -0.008561       0.000000
      0.002122      -0.008617       0.000000
      0.002044      -0.008365       0.000000
      0.001917      -0.008561       0.000000
      0.001993      -0.008802       0.000000
      0.002194      -0.008854       0.000000
      0.002122      -0.008617       0.000000
      0.002044      -0.008365       0.000000
      0.002122      -0.008617       0.000000
      0.002337      -0.008673       0.000000
      0.002262      -0.008422       0.000000
      0.002122      -0.008617       0.000000
      0.002194      -0.008854       0.000000
      0.002412      -0.008908       0.000000
      0.002337      -0.008673       0.000000
      0.001993      -0.008802       0.000000
      0.002050      -0.009035       0.000000
      0.002253      -0.009082       0.000000
      0.002194      -0.008854       0.000000
      0.002050      -0.009035       0.000000
      0.002081      -0.009275       0.000000
      0.002296      -0.009318       0.000000
      0.002253      -0.009082       0.000000
      0.002194      -0.008854       0.000000
      0.002253      -0.009082       0.000000
      0.002483      -0.009133       0.000000
      0.002412      -0.008908       0.000000
      0.002253      -0.009082       0.000000
      0.002296      -0.009318       0.000000
      0.002544      -0.009363       0.000000
      0.002483      -0.009133       0.000000
      0.002081      -0.009275       0.000000
      0.002083      -0.009544       0.000000
      0.002317      -0.009586       0.000000
      0.002296      -0.009318       0.000000
      0.002083      -0.009544       0.000000
      0.002078      -0.009850       0.000000
      0.002319      -0.009902       0.000000
      0.002317      -0.009586       0.000000
      0.002296      -0.009318       0.000000
      0.002317      -0.009586       0.000000
      0.002580      -0.009625       0.000000
      0.002544      -0.009363       0.000000
      0.002317      -0.009586       0.000000
      0.002319      -0.009902       0.000000
      0.002585      -0.009963       0.000000
      0.002580      -0.009625       0.000000
      0.001462      -0.001078       0.000000
      0.001512      -0.001678       0.000000
      0.001866      -0.001727       0.000000
      0.001823      -0.001214       0.000000
      0.001512      -0.001678       0.000000
      0.001503      -0.002254       0.000000
      0.001867      -0.002265       0.000000
      0.001866      -0.001727       0.000000
      0.001823      -0.001214       0.000000
      0.001866      -0.001727       0.000000
      0.002191      -0.001780       0.000000
      0.002155      -0.001309       0.000000
      0.001866      -0.001727       0.000000
      0.001867      -0.002265       0.000000
      0.002200      -0.002284       0.000000
      0.002191      -0.001780       0.000000
      0.001503      -0.002254       0.000000
      0.001508      -0.002759       0.000000
      0.001863      -0.002768       0.000000
      0.001867      -0.002265       0.000000
      0.001508      -0.002759       0.000000
      0.001526      -0.003227       0.000000
      0.001867      -0.003241       0.000000
      0.001863      -0.002768       0.000000
      0.001867      -0.002265       0.000000
      0.001863      -0.002768       0.000000
      0.002196      -0.002779       0.000000
      0.002200      -0.002284       0.000000
      0.001863      -0.002768       0.000000
      0.001867      -0.003241       0.000000
      0.002195      -0.003253       0.000000
      0.002196      -0.002779       0.000000
      0.001526      -0.003227       0.000000
      0.001551      -0.003675       0.000000
      0.001880      -0.003694       0.000000
      0.001867      -0.003241       0.000000
      0.001551      -0.003675       0.000000
      0.001583      -0.004110       0.000000
      0.001901      -0.004134       0.000000
      0.001880      -0.003694       0.000000
      0.001867      -0.003241       0.000000
      0.001880      -0.003694       0.000000
      0.002200      -0.003710       0.000000
      0.002195      -0.003253       0.000000
      0.001880      -0.003694       0.000000
      0.001901      -0.004134       0.000000
      0.002211      -0.004154       0.000000
      0.002200      -0.003710       0.000000
      0.001583      -0.004110       0.000000
      0.001618      -0.004535       0.000000
      0.001926      -0.004563       0.000000
      0.001901      -0.004134       0.000000
      0.001618      -0.004535       0.000000
      0.001657      -0.004951       0.000000
      0.001956      -0.004983       0.000000
      0.001926      -0.004563       0.000000
      0.001901      -0.004134       0.000000
      0.001926      -0.004563       0.000000
      0.002228      -0.004588       0.000000
      0.002211      -0.004154       0.000000
      0.001926      -0.004563       0.000000
      0.001956      -0.004983       0.000000
      0.002250      -0.005012       0.000000
      0.002228      -0.004588       0.000000
      0.001657      -0.004951       0.000000
      0.001700      -0.005358       0.000000
      0.001991      -0.005394       0.000000
      0.001956      -0.004983       0.000000
      0.001700      -0.005358       0.000000
      0.001747      -0.005755       0.000000
      0.002030      -0.005794       0.000000
      0.001991      -0.005394       0.000000
      0.001956      -0.004983       0.000000
      0.001991      -0.005394       0.000000
      0.002276      -0.005426       0.000000
      0.002250      -0.005012       0.000000
      0.001991      -0.005394       0.000000
      0.002030      -0.005794       0.000000
      0.002306      -0.005830       0.000000
      0.002276      -0.005426       0.000000
      0.001747      -0.005755       0.000000
      0.001798      -0.006141       0.000000
      0.002072      -0.006183       0.000000
      0.002030      -0.005794       0.000000
      0.001798      -0.006141       0.000000
      0.001854      -0.006515       0.000000
      0.002118      -0.006560       0.000000
      0.002072      -0.006183       0.000000
      0.002030      -0.005794       0.000000
      0.002072      -0.006183       0.000000
      0.002340      -0.006223       0.000000
      0.002306      -0.005830       0.000000
      0.002072      -0.006183       0.000000
      0.002118      -0.006560       0.000000
      0.002377      -0.006602       0.000000
      0.002340      -0.006223       0.000000
      0.001854      -0.006515       0.000000
      0.001913      -0.006875       0.000000
      0.002169      -0.006923       0.000000
      0.002118      -0.006560       0.000000
      0.001913      -0.006875       0.000000
      0.001977      -0.007220       0.000000
      0.002223      -0.007271       0.000000
      0.002169      -0.006923       0.000000
      0.002118      -0.006560       0.000000
      0.002169      -0.006923       0.000000
      0.002418      -0.006968       0.000000
      0.002377      -0.006602       0.000000
      0.002169      -0.006923       0.000000
      0.002223      -0.007271       0.000000
      0.002463      -0.007319       0.000000
      0.002418      -0.006968       0.000000
      0.001977      -0.007220       0.000000
      0.002044      -0.007549       0.000000
      0.002281      -0.007602       0.000000
      0.002223      -0.007271       0.000000
      0.002044      -0.007549       0.000000
      0.002114      -0.007859       0.000000
      0.002343      -0.007914       0.000000
      0.002281      -0.007602       0.000000
      0.002223      -0.007271       0.000000
      0.002281      -0.007602       0.000000
      0.002512      -0.007652       0.000000
      0.002463      -0.007319       0.000000
      0.002281      -0.007602       0.000000
      0.002343      -0.007914       0.000000
      0.002566      -0.007968       0.000000
      0.002512      -0.007652       0.000000
      0.002114      -0.007859       0.000000
      0.002187      -0.008151       0.000000
      0.002409      -0.008207       0.000000
      0.002343      -0.007914       0.000000
      0.002187      -0.008151       0.000000
      0.002262      -0.008422       0.000000
      0.002479      -0.008480       0.000000
      0.002409      -0.008207       0.000000
      0.002343      -0.007914       0.000000
      0.002409      -0.008207       0.000000
      0.002626      -0.008264       0.000000
      0.002566      -0.007968       0.000000
      0.002409      -0.008207       0.000000
      0.002479      -0.008480       0.000000
      0.002693      -0.008540       0.000000
      0.002626      -0.008264       0.000000
      0.002262      -0.008422       0.000000
      0.002337      -0.008673       0.000000
      0.002555      -0.008733       0.000000
      0.002479      -0.008480       0.000000
      0.002337      -0.008673       0.000000
      0.002412      -0.008908       0.000000
      0.002637      -0.008969       0.000000
      0.002555      -0.008733       0.000000
      0.002479      -0.008480       0.000000
      0.002555      -0.008733       0.000000
      0.002769      -0.008797       0.000000
      0.002693      -0.008540       0.000000
      0.002555      -0.008733       0.000000
      0.002637      -0.008969       0.000000
      0.002856      -0.009038       0.000000
      0.002769      -0.008797       0.000000
      0.002412      -0.008908       0.000000
      0.002483      -0.009133       0.000000
      0.002724      -0.009194       0.000000
      0.002637      -0.008969       0.000000
      0.002483      -0.009133       0.000000
      0.002544      -0.009363       0.000000
      0.002814      -0.009417       0.000000
      0.002724      -0.009194       0.000000
      0.002637      -0.008969       0.000000
      0.002724      -0.009194       0.000000
      0.002960      -0.009266       0.000000
      0.002856      -0.009038       0.000000
      0.002724      -0.009194       0.000000
      0.002814      -0.009417       0.000000
      0.003085      -0.009488       0.000000
      0.002960      -0.009266       0.000000
      0.002544      -0.009363       0.000000
      0.002566      -0.009488       0.000000
      0.002708      -0.009509       0.000000
      0.002677      -0.009388       0.000000
      0.002566      -0.009488       0.000000
      0.002580      -0.009625       0.000000
      0.002729      -0.009643       0.000000
      0.002708      -0.009509       0.000000
      0.002677      -0.009388       0.000000
      0.002708      -0.009509       0.000000
      0.002857      -0.009533       0.000000
      0.002814      -0.009417       0.000000
      0.002708      -0.009509       0.000000
      0.002729      -0.009643       0.000000
      0.002892      -0.009661       0.000000
      0.002857      -0.009533       0.000000
      0.002580      -0.009625       0.000000
      0.002585      -0.009783       0.000000
      0.002737      -0.009801       0.000000
      0.002729      -0.009643       0.000000
      0.002585      -0.009783       0.000000
      0.002585      -0.009963       0.000000
      0.002737      -0.009995       0.000000
      0.002737      -0.009801       0.000000
      0.002729      -0.009643       0.000000
      0.002737      -0.009801       0.000000
      0.002911      -0.009815       0.000000
      0.002892      -0.009661       0.000000
      0.002737      -0.009801       0.000000
      0.002737      -0.009995       0.000000
      0.002910      -0.010029       0.000000
      0.002911      -0.009815       0.000000
      0.002814      -0.009417       0.000000
      0.002857      -0.009533       0.000000
      0.003011      -0.009563       0.000000
      0.002952      -0.009450       0.000000
      0.002857      -0.009533       0.000000
      0.002892      -0.009661       0.000000
      0.003069      -0.009684       0.000000
      0.003011      -0.009563       0.000000
      0.002952      -0.009450       0.000000
      0.003011      -0.009563       0.000000
      0.003160      -0.009602       0.000000
      0.003085      -0.009488       0.000000
      0.003011      -0.009563       0.000000
      0.003069      -0.009684       0.000000
      0.003247      -0.009721       0.000000
      0.003160      -0.009602       0.000000
      0.002892      -0.009661       0.000000
      0.002905      -0.009733       0.000000
      0.002998      -0.009741       0.000000
      0.002980      -0.009671       0.000000
      0.002905      -0.009733       0.000000
      0.002911      -0.009815       0.000000
      0.003010      -0.009821       0.000000
      0.002998      -0.009741       0.000000
      0.002980      -0.009671       0.000000
      0.002998      -0.009741       0.000000
      0.003097      -0.009751       0.000000
      0.003069      -0.009684       0.000000
      0.002998      -0.009741       0.000000
      0.003010      -0.009821       0.000000
      0.003119      -0.009827       0.000000
      0.003097      -0.009751       0.000000
      0.002911      -0.009815       0.000000
      0.002912      -0.009913       0.000000
      0.003013      -0.009920       0.000000
      0.003010      -0.009821       0.000000
      0.002912      -0.009913       0.000000
      0.002910      -0.010029       0.000000
      0.003011      -0.010047       0.000000
      0.003013      -0.009920       0.000000
      0.003010      -0.009821       0.000000
      0.003013      -0.009920       0.000000
      0.003130      -0.009924       0.000000