# vtk DataFile Version 2.0
time_10.vtk
ASCII
DATASET UNSTRUCTURED_GRID
POINTS  3780 float
      0.000000       0.000000       0.000000
      0.162500       0.000000       0.000000
      0.163542       0.125000       0.000000
     -0.000000       0.125000       0.000000
      0.162500       0.000000       0.000000
      0.325000       0.000000       0.000000
      0.327083       0.125000       0.000000
      0.163542       0.125000       0.000000
     -0.000000       0.125000       0.000000
      0.163542       0.125000       0.000000
      0.164583       0.250000       0.000000
      0.000000       0.250000       0.000000
      0.163542       0.125000       0.000000
      0.327083       0.125000       0.000000
      0.329167       0.250000       0.000000
      0.164583       0.250000       0.000000
      0.325000       0.000000       0.000000
      0.487500       0.000000       0.000000
      0.490625       0.125000       0.000000
      0.327083       0.125000       0.000000
      0.487500       0.000000       0.000000
      0.650000       0.000000       0.000000
      0.654167       0.125000       0.000000
      0.490625       0.125000       0.000000
      0.327083       0.125000       0.000000
      0.490625       0.125000       0.000000
      0.493750       0.250000       0.000000
      0.329167       0.250000       0.000000
      0.490625       0.125000       0.000000
      0.654167       0.125000       0.000000
      0.658333       0.250000       0.000000
      0.493750       0.250000       0.000000
      0.650000       0.000000       0.000000
      0.812500       0.000000       0.000000
      0.817708       0.125000       0.000000
      0.654167       0.125000       0.000000
      0.812500       0.000000       0.000000
      0.975000       0.000000       0.000000
      0.981250       0.125000       0.000000
      0.817708       0.125000       0.000000
      0.654167       0.125000       0.000000
      0.817708       0.125000       0.000000
      0.822917       0.250000       0.000000
      0.658333       0.250000       0.000000
      0.817708       0.125000       0.000000
      0.981250       0.125000       0.000000
      0.987500       0.250000       0.000000
      0.822917       0.250000       0.000000
      0.975000       0.000000       0.000000
      1.137500      -0.000000       0.000000
      1.144792       0.125000       0.000000
      0.981250       0.125000       0.000000
      1.137500      -0.000000       0.000000
      1.300000       0.000000       0.000000
      1.308333       0.125000       0.000000
      1.144792       0.125000       0.000000
      0.981250       0.125000       0.000000
      1.144792       0.125000       0.000000
      1.152083       0.250000       0.000000
      0.987500       0.250000       0.000000
      1.144792       0.125000       0.000000
      1.308333       0.125000       0.000000
      1.316667       0.250000       0.000000
      1.152083       0.250000       0.000000
      1.300000       0.000000       0.000000
      1.462500       0.000000       0.000000
      1.471875       0.125000       0.000000
      1.308333       0.125000       0.000000
      1.462500       0.000000       0.000000
      1.625000       0.000000       0.000000
      1.635417       0.125000       0.000000
      1.471875       0.125000       0.000000
      1.308333       0.125000       0.000000
      1.471875       0.125000       0.000000
      1.481250       0.250000       0.000000
      1.316667       0.250000       0.000000
      1.471875       0.125000       0.000000
      1.635417       0.125000       0.000000
      1.645833       0.250000       0.000000
      1.481250       0.250000       0.000000
      1.625000       0.000000       0.000000
      1.787500      -0.000000       0.000000
      1.798958       0.125000       0.000000
      1.635417       0.125000       0.000000
      1.787500      -0.000000       0.000000
      1.950000       0.000000       0.000000
      1.962500       0.125000       0.000000
      1.798958       0.125000       0.000000
      1.635417       0.125000       0.000000
      1.798958       0.125000       0.000000
      1.810417       0.250000       0.000000
      1.645833       0.250000       0.000000
      1.798958       0.125000       0.000000
      1.962500       0.125000       0.000000
      1.975000       0.250000       0.000000
      1.810417       0.250000       0.000000
      1.950000       0.000000       0.000000
      2.112500      -0.000000       0.000000
      2.126042       0.125000       0.000000
      1.962500       0.125000       0.000000
      2.112500      -0.000000       0.000000
      2.275000       0.000000       0.000000
      2.289583       0.125000       0.000000
      2.126042       0.125000       0.000000
      1.962500       0.125000       0.000000
      2.126042       0.125000       0.000000
      2.139583       0.250000       0.000000
      1.975000       0.250000       0.000000
      2.126042       0.125000       0.000000
      2.289583       0.125000       0.000000
      2.304167       0.250000       0.000000
      2.139583       0.250000       0.000000
      2.275000       0.000000       0.000000
      2.437500       0.000000       0.000000
      2.453125       0.125000       0.000000
      2.289583       0.125000       0.000000
      2.437500       0.000000       0.000000
      2.600000       0.000000       0.000000
      2.616667       0.125000       0.000000
      2.453125       0.125000       0.000000
      2.289583       0.125000       0.000000
      2.453125       0.125000       0.000000
      2.468750       0.250000       0.000000
      2.304167       0.250000       0.000000
      2.453125       0.125000       0.000000
      2.616667       0.125000       0.000000
      2.633333       0.250000       0.000000
      2.468750       0.250000       0.000000
      2.600000       0.000000       0.000000
      2.762500       0.000000       0.000000
      2.780208       0.125000       0.000000
      2.616667       0.125000       0.000000
      2.762500       0.000000       0.000000
      2.925000       0.000000       0.000000
      2.943750       0.125000       0.000000
      2.780208       0.125000       0.000000
      2.616667       0.125000       0.000000
      2.780208       0.125000       0.000000
      2.797917       0.250000       0.000000
      2.633333       0.250000       0.000000
      2.780208       0.125000       0.000000
      2.943750       0.125000       0.000000
      2.962500       0.250000       0.000000
      2.797917       0.250000       0.000000
      2.925000       0.000000       0.000000
      3.087500       0.000000       0.000000
      3.107292       0.125000       0.000000
      2.943750       0.125000       0.000000
      3.087500       0.000000       0.000000
      3.250000       0.000000       0.000000
      3.270833       0.125000       0.000000
      3.107292       0.125000       0.000000
      2.943750       0.125000       0.000000
      3.107292       0.125000       0.000000
      3.127083       0.250000       0.000000
      2.962500       0.250000       0.000000
      3.107292       0.125000       0.000000
      3.270833       0.125000       0.000000
      3.291667       0.250000       0.000000
      3.127083       0.250000       0.000000
      3.250000       0.000000       0.000000
      3.412500       0.000000       0.000000
      3.434375       0.125000       0.000000
      3.270833       0.125000       0.000000
      3.412500       0.000000       0.000000
      3.575000       0.000000       0.000000
      3.597917       0.125000       0.000000
      3.434375       0.125000       0.000000
      3.270833       0.125000       0.000000
      3.434375       0.125000       0.000000
      3.456250       0.250000       0.000000
      3.291667       0.250000       0.000000
      3.434375       0.125000       0.000000
      3.597917       0.125000       0.000000
      3.620833       0.250000       0.000000
      3.456250       0.250000       0.000000
      3.575000       0.000000       0.000000
      3.737500      -0.000000       0.000000
      3.761458       0.125000       0.000000
      3.597917       0.125000       0.000000
      3.737500      -0.000000       0.000000
      3.900000       0.000000       0.000000
      3.925000       0.125000       0.000000
      3.761458       0.125000       0.000000
      3.597917       0.125000       0.000000
      3.761458       0.125000       0.000000
      3.785417       0.250000       0.000000
      3.620833       0.250000       0.000000
      3.761458       0.125000       0.000000
      3.925000       0.125000       0.000000
      3.950000       0.250000       0.000000
      3.785417       0.250000       0.000000
      0.000000       0.250000       0.000000
      0.164583       0.250000       0.000000
      0.165625       0.375000       0.000000
     -0.000000       0.375000       0.000000
      0.164583       0.250000       0.000000
      0.329167       0.250000       0.000000
      0.331250       0.375000       0.000000
      0.165625       0.375000       0.000000
     -0.000000       0.375000       0.000000
      0.165625       0.375000       0.000000
      0.166667       0.500000       0.000000
      0.000000       0.500000       0.000000
      0.165625       0.375000       0.000000
      0.331250       0.375000       0.000000
      0.333333       0.500000       0.000000
      0.166667       0.500000       0.000000
      0.329167       0.250000       0.000000
      0.493750       0.250000       0.000000
      0.496875       0.375000       0.000000
      0.331250       0.375000       0.000000
      0.493750       0.250000       0.000000
      0.658333       0.250000       0.000000
      0.662500       0.375000       0.000000
      0.496875       0.375000       0.000000
      0.331250       0.375000       0.000000
      0.496875       0.375000       0.000000
      0.500000       0.500000       0.000000
      0.333333       0.500000       0.000000
[...]
POINT_DATA  3780
VECTORS U float 
      0.000000       0.000000       0.000000
      0.000602      -0.002749       0.000000
      0.001950      -0.002823       0.000000
      0.001894      -0.000968       0.000000
      0.000602      -0.002749       0.000000
      0.000779      -0.004363       0.000000
      0.001966      -0.004413       0.000000
      0.001950      -0.002823       0.000000
      0.001894      -0.000968       0.000000
      0.001950      -0.002823       0.000000
      0.003140      -0.002855       0.000000
      0.003081      -0.001249       0.000000
      0.001950      -0.002823       0.000000
      0.001966      -0.004413       0.000000
      0.003130      -0.004434       0.000000
      0.003140      -0.002855       0.000000
      0.000779      -0.004363       0.000000
      0.000884      -0.005842       0.000000
      0.002010      -0.005893       0.000000
      0.001966      -0.004413       0.000000
      0.000884      -0.005842       0.000000
      0.000962      -0.007275       0.000000
      0.002059      -0.007331       0.000000
      0.002010      -0.005893       0.000000
      0.001966      -0.004413       0.000000
      0.002010      -0.005893       0.000000
      0.003135      -0.005928       0.000000
      0.003130      -0.004434       0.000000
      0.002010      -0.005893       0.000000
      0.002059      -0.007331       0.000000
      0.003156      -0.007377       0.000000
      0.003135      -0.005928       0.000000
      0.000962      -0.007275       0.000000
      0.001029      -0.008683       0.000000
      0.002109      -0.008746       0.000000
      0.002059      -0.007331       0.000000
      0.001029      -0.008683       0.000000
      0.001093      -0.010075       0.000000
      0.002160      -0.010147       0.000000
      0.002109      -0.008746       0.000000
      0.002059      -0.007331       0.000000
      0.002109      -0.008746       0.000000
      0.003187      -0.008803       0.000000
      0.003156      -0.007377       0.000000
      0.002109      -0.008746       0.000000
      0.002160      -0.010147       0.000000
      0.003224      -0.010214       0.000000
      0.003187      -0.008803       0.000000
      0.001093      -0.010075       0.000000
      0.001156      -0.011455       0.000000
      0.002214      -0.011536       0.000000
      0.002160      -0.010147       0.000000
      0.001156      -0.011455       0.000000
      0.001222      -0.012824       0.000000
      0.002270      -0.012914       0.000000
      0.002214      -0.011536       0.000000
      0.002160      -0.010147       0.000000
      0.002214      -0.011536       0.000000
      0.003266      -0.011613       0.000000
      0.003224      -0.010214       0.000000
      0.002214      -0.011536       0.000000
      0.002270      -0.012914       0.000000
      0.003312      -0.013001       0.000000
      0.003266      -0.011613       0.000000
      0.001222      -0.012824       0.000000
      0.001291      -0.014181       0.000000
      0.002331      -0.014282       0.000000
      0.002270      -0.012914       0.000000
      0.001291      -0.014181       0.000000
      0.001366      -0.015528       0.000000
      0.002397      -0.015638       0.000000
      0.002331      -0.014282       0.000000
      0.002270      -0.012914       0.000000
      0.002331      -0.014282       0.000000
      0.003364      -0.014379       0.000000
      0.003312      -0.013001       0.000000
      0.002331      -0.014282       0.000000
      0.002397      -0.015638       0.000000
      0.003420      -0.015744       0.000000
      0.003364      -0.014379       0.000000
      0.001366      -0.015528       0.000000
      0.001447      -0.016861       0.000000
      0.002469      -0.016981       0.000000
      0.002397      -0.015638       0.000000
      0.001447      -0.016861       0.000000
      0.001534      -0.018180       0.000000
      0.002545      -0.018309       0.000000
      0.002469      -0.016981       0.000000
      0.002397      -0.015638       0.000000
      0.002469      -0.016981       0.000000
      0.003481      -0.017097       0.000000
      0.003420      -0.015744       0.000000
      0.002469      -0.016981       0.000000
      0.002545      -0.018309       0.000000
      0.003547      -0.018435       0.000000
      0.003481      -0.017097       0.000000
      0.001534      -0.018180       0.000000
      0.001628      -0.019484       0.000000
      0.002627      -0.019622       0.000000
      0.002545      -0.018309       0.000000
      0.001628      -0.019484       0.000000
      0.001728      -0.020771       0.000000
      0.002715      -0.020918       0.000000
      0.002627      -0.019622       0.000000
      0.002545      -0.018309       0.000000
      0.002627      -0.019622       0.000000
      0.003618      -0.019756       0.000000
      0.003547      -0.018435       0.000000
      0.002627      -0.019622       0.000000
      0.002715      -0.020918       0.000000
      0.003693      -0.021060       0.000000
      0.003618      -0.019756       0.000000
      0.001728      -0.020771       0.000000
      0.001833      -0.022040       0.000000
      0.002807      -0.022194       0.000000
      0.002715      -0.020918       0.000000
      0.001833      -0.022040       0.000000
      0.001942      -0.023288       0.000000
      0.002903      -0.023449       0.000000
      0.002807      -0.022194       0.000000
      0.002715      -0.020918       0.000000
      0.002807      -0.022194       0.000000
      0.003774      -0.022344       0.000000
      0.003693      -0.021060       0.000000
      0.002807      -0.022194       0.000000
      0.002903      -0.023449       0.000000
      0.003858      -0.023607       0.000000
      0.003774      -0.022344       0.000000
      0.001942      -0.023288       0.000000
      0.002054      -0.024515       0.000000
      0.003000      -0.024682       0.000000
      0.002903      -0.023449       0.000000
      0.002054      -0.024515       0.000000
      0.002165      -0.025720       0.000000
      0.003098      -0.025891       0.000000
      0.003000      -0.024682       0.000000
      0.002903      -0.023449       0.000000
      0.003000      -0.024682       0.000000
      0.003945      -0.024846       0.000000
      0.003858      -0.023607       0.000000
      0.003000      -0.024682       0.000000
      0.003098      -0.025891       0.000000
      0.004034      -0.026061       0.000000
      0.003945      -0.024846       0.000000
      0.002165      -0.025720       0.000000
      0.002270      -0.026903       0.000000
      0.003192      -0.027077       0.000000
      0.003098      -0.025891       0.000000
      0.002270      -0.026903       0.000000
      0.002362      -0.028068       0.000000
      0.003278      -0.028243       0.000000
      0.003192      -0.027077       0.000000
      0.003098      -0.025891       0.000000
      0.003192      -0.027077       0.000000
      0.004124      -0.027251       0.000000
      0.004034      -0.026061       0.000000
      0.003192      -0.027077       0.000000
      0.003278      -0.028243       0.000000
      0.004213      -0.028421       0.000000
      0.004124      -0.027251       0.000000
      0.002362      -0.028068       0.000000
      0.002432      -0.029225       0.000000
      0.003350      -0.029399       0.000000
      0.003278      -0.028243       0.000000
      0.002432      -0.029225       0.000000
      0.002470      -0.030388       0.000000
      0.003401      -0.030563       0.000000
      0.003350      -0.029399       0.000000
      0.003278      -0.028243       0.000000
      0.003350      -0.029399       0.000000
      0.004298      -0.029579       0.000000
      0.004213      -0.028421       0.000000
      0.003350      -0.029399       0.000000
      0.003401      -0.030563       0.000000
      0.004371      -0.030741       0.000000
      0.004298      -0.029579       0.000000
      0.002470      -0.030388       0.000000
      0.002474      -0.031585       0.000000
      0.003426      -0.031765       0.000000
      0.003401      -0.030563       0.000000
      0.002474      -0.031585       0.000000
      0.002468      -0.032826       0.000000
      0.003430      -0.033022       0.000000
      0.003426      -0.031765       0.000000
      0.003401      -0.030563       0.000000
      0.003426      -0.031765       0.000000
      0.004415      -0.031940       0.000000
      0.004371      -0.030741       0.000000
      0.003426      -0.031765       0.000000
      0.003430      -0.033022       0.000000
      0.004420      -0.033229       0.000000
      0.004415      -0.031940       0.000000
      0.003081      -0.001249       0.000000
      0.003140      -0.002855       0.000000
      0.004239      -0.002920       0.000000
      0.004188      -0.001410       0.000000
      0.003140      -0.002855       0.000000
      0.003130      -0.004434       0.000000
      0.004241      -0.004459       0.000000
      0.004239      -0.002920       0.000000
      0.004188      -0.001410       0.000000
      0.004239      -0.002920       0.000000
      0.005304      -0.002988       0.000000
      0.005262      -0.001524       0.000000
      0.004239      -0.002920       0.000000
      0.004241      -0.004459       0.000000
      0.005315      -0.004493       0.000000
      0.005304      -0.002988       0.000000
      0.003130      -0.004434       0.000000
      0.003135      -0.005928       0.000000
      0.004236      -0.005956       0.000000
      0.004241      -0.004459       0.000000
      0.003135      -0.005928       0.000000
      0.003156      -0.007377       0.000000
      0.004241      -0.007417       0.000000
      0.004236      -0.005956       0.000000
      0.004241      -0.004459       0.000000
      0.004236      -0.005956       0.000000
      0.005311      -0.005985       0.000000
      0.005315      -0.004493       0.000000
      0.004236      -0.005956       0.000000
      0.004241      -0.007417       0.000000
      0.005309      -0.007454       0.000000
      0.005311      -0.005985       0.000000
      0.003156      -0.007377       0.000000
      0.003187      -0.008803       0.000000
      0.004257      -0.008855       0.000000
      0.004241      -0.007417       0.000000
      0.003187      -0.008803       0.000000
      0.003224      -0.010214       0.000000
      0.004281      -0.010277       0.000000
      0.004257      -0.008855       0.000000
      0.004241      -0.007417       0.000000
      0.004257      -0.008855       0.000000
      0.005315      -0.008902       0.000000
      0.005309      -0.007454       0.000000
      0.004257      -0.008855       0.000000
      0.004281      -0.010277       0.000000
      0.005328      -0.010335       0.000000
      0.005315      -0.008902       0.000000
      0.003224      -0.010214       0.000000
      0.003266      -0.011613       0.000000
      0.004311      -0.011686       0.000000
      0.004281      -0.010277       0.000000
      0.003266      -0.011613       0.000000
      0.003312      -0.013001       0.000000
      0.004347      -0.013085       0.000000
      0.004311      -0.011686       0.000000
      0.004281      -0.010277       0.000000
      0.004311      -0.011686       0.000000
      0.005349      -0.011755       0.000000
      0.005328      -0.010335       0.000000
      0.004311      -0.011686       0.000000
      0.004347      -0.013085       0.000000
      0.005374      -0.013164       0.000000
      0.005349      -0.011755       0.000000
      0.003312      -0.013001       0.000000
      0.003364      -0.014379       0.000000
      0.004388      -0.014472       0.000000
      0.004347      -0.013085       0.000000
      0.003364      -0.014379       0.000000
      0.003420      -0.015744       0.000000
      0.004434      -0.015847       0.000000
      0.004388      -0.014472       0.000000
      0.004347      -0.013085       0.000000
      0.004388      -0.014472       0.000000
      0.005405      -0.014562       0.000000
      0.005374      -0.013164       0.000000
      0.004388      -0.014472       0.000000
      0.004434      -0.015847       0.000000
      0.005441      -0.015947       0.000000
      0.005405      -0.014562       0.000000
      0.003420      -0.015744       0.000000
      0.003481      -0.017097       0.000000
      0.004485      -0.017209       0.000000
      0.004434      -0.015847       0.000000
      0.003481      -0.017097       0.000000
      0.003547      -0.018435       0.000000
      0.004540      -0.018556       0.000000
      0.004485      -0.017209       0.000000
      0.004434      -0.015847       0.000000
      0.004485      -0.017209       0.000000
      0.005481      -0.017318       0.000000
      0.005441      -0.015947       0.000000
      0.004485      -0.017209       0.000000
      0.004540      -0.018556       0.000000
      0.005526      -0.018674       0.000000
      0.005481      -0.017318       0.000000
      0.003547      -0.018435       0.000000
      0.003618      -0.019756       0.000000
      0.004600      -0.019887       0.000000
      0.004540      -0.018556       0.000000
      0.003618      -0.019756       0.000000
      0.003693      -0.021060       0.000000
      0.004664      -0.021199       0.000000
      0.004600      -0.019887       0.000000
      0.004540      -0.018556       0.000000
      0.004600      -0.019887       0.000000
      0.005575      -0.020014       0.000000
      0.005526      -0.018674       0.000000
      0.004600      -0.019887       0.000000
      0.004664      -0.021199       0.000000
      0.005628      -0.021336       0.000000
      0.005575      -0.020014       0.000000
      0.003693      -0.021060       0.000000
      0.003774      -0.022344       0.000000
      0.004733      -0.022492       0.000000
      0.004664      -0.021199       0.000000
      0.003774      -0.022344       0.000000
      0.003858      -0.023607       0.000000
      0.004807      -0.023762       0.000000
      0.004733      -0.022492       0.000000
      0.004664      -0.021199       0.000000
      0.004733      -0.022492       0.000000
      0.005686      -0.022637       0.000000
      0.005628      -0.021336       0.000000
      0.004733      -0.022492       0.000000
      0.004807      -0.023762       0.000000
      0.005751      -0.023916       0.000000
      0.005686      -0.022637       0.000000
      0.003858      -0.023607       0.000000
      0.003945      -0.024846       0.000000
      0.004886      -0.025009       0.000000
      0.004807      -0.023762       0.000000
      0.003945      -0.024846       0.000000
      0.004034      -0.026061       0.000000
      0.004970      -0.026231       0.000000
      0.004886      -0.025009       0.000000
      0.004807      -0.023762       0.000000
      0.004886      -0.025009       0.000000
      0.005822      -0.025172       0.000000
      0.005751      -0.023916       0.000000
      0.004886      -0.025009       0.000000
      0.004970      -0.026231       0.000000
      0.005901      -0.026405       0.000000
      0.005822      -0.025172       0.000000
      0.004034      -0.026061       0.000000
      0.004124      -0.027251       0.000000
      0.005060      -0.027430       0.000000
      0.004970      -0.026231       0.000000
      0.004124      -0.027251       0.000000
      0.004213      -0.028421       0.000000
      0.005157      -0.028607       0.000000
      0.005060      -0.027430       0.000000
      0.004970      -0.026231       0.000000
      0.005060      -0.027430       0.000000
      0.005991      -0.027613       0.000000
      0.005901      -0.026405       0.000000
      0.005060      -0.027430       0.000000
      0.005157      -0.028607       0.000000
      0.006095      -0.028801       0.000000
      0.005991      -0.027613       0.000000
      0.004213      -0.028421       0.000000
      0.004298      -0.029579       0.000000
      0.005261      -0.029769       0.000000
      0.005157      -0.028607       0.000000
      0.004298      -0.029579       0.000000
      0.004371      -0.030741       0.000000
      0.005368      -0.030928       0.000000
      0.005261      -0.029769       0.000000
      0.005157      -0.028607       0.000000
      0.005261      -0.029769       0.000000
      0.006218      -0.029973       0.000000
      0.006095      -0.028801       0.000000
      0.005261      -0.029769       0.000000
      0.005368      -0.030928       0.000000
      0.006366      -0.031137       0.000000
      0.006218      -0.029973       0.000000
      0.004371      -0.030741       0.000000
      0.004398      -0.031333       0.000000
      0.004904      -0.031422       0.000000
      0.004867      -0.030833       0.000000
      0.004398      -0.031333       0.000000
      0.004415      -0.031940       0.000000
      0.004929      -0.032026       0.000000
      0.004904      -0.031422       0.000000
      0.004867      -0.030833       0.000000
      0.004904      -0.031422       0.000000
      0.005419      -0.031514       0.000000
      0.005368      -0.030928       0.000000
      0.004904      -0.031422       0.000000
      0.004929      -0.032026       0.000000
      0.005460      -0.032112       0.000000
      0.005419      -0.031514       0.000000
      0.004415      -0.031940       0.000000
      0.004420      -0.032571       0.000000
      0.004939      -0.032658       0.000000
      0.004929      -0.032026       0.000000
      0.004420      -0.032571       0.000000
      0.004420      -0.033229       0.000000
      0.004938      -0.033334       0.000000
      0.004939      -0.032658       0.000000
      0.004929      -0.032026       0.000000
      0.004939      -0.032658       0.000000
      0.005483      -0.032741       0.000000
      0.005460      -0.032112       0.000000
      0.004939      -0.032658       0.000000
      0.004938      -0.033334       0.000000
      0.005481      -0.033441       0.000000
      0.005483      -0.032741       0.000000
      0.005368      -0.030928       0.000000
      0.005419      -0.031514       0.000000
      0.005939      -0.031613       0.000000
      0.005870      -0.031030       0.000000
      0.005419      -0.031514       0.000000
      0.005460      -0.032112       0.000000
      0.006008      -0.032204       0.000000
      0.005939      -0.031613       0.000000
      0.005870      -0.031030       0.000000
      0.005939      -0.031613       0.000000
      0.006453      -0.031721       0.000000
      0.006366      -0.031137       0.000000
      0.005939      -0.031613       0.000000
      0.006008      -0.032204       0.000000
      0.006556      -0.032311       0.000000
      0.006453      -0.031721       0.000000
      0.005460      -0.032112       0.000000
      0.005475      -0.032421       0.000000
      0.005754      -0.032463       0.000000
      0.005733      -0.032157       0.000000
      0.005475      -0.032421       0.000000
      0.005483      -0.032741       0.000000
      0.005768      -0.032781       0.000000
      0.005754      -0.032463       0.000000
      0.005733      -0.032157       0.000000
      0.005754      -0.032463       0.000000
      0.006040      -0.032507       0.000000
      0.006008      -0.032204       0.000000
      0.005754      -0.032463       0.000000
      0.005768      -0.032781       0.000000
      0.006066      -0.032821       0.000000
      0.006040      -0.032507       0.000000
      0.005483      -0.032741       0.000000
      0.005484      -0.033080       0.000000
      0.005772      -0.033121       0.000000
      0.005768      -0.032781       0.000000
      0.005484      -0.033080       0.000000
      0.005481      -0.033441       0.000000
      0.005769      -0.033494       0.000000
      0.005772      -0.033121       0.000000
      0.005768      -0.032781       0.000000
      0.005772      -0.033121       0.000000
      0.006079      -0.033159       0.000000