# vtk DataFile Version 2.0
time_10.vtk
ASCII
DATASET UNSTRUCTURED_GRID
POINTS  3780 float
      0.000000       0.000000       0.000000
      0.162500       0.000000       0.000000
      0.163542       0.125000       0.000000
     -0.000000       0.125000       0.000000
      0.162500       0.000000       0.000000
      0.325000       0.000000       0.000000
      0.327083       0.125000       0.000000
      0.163542       0.125000       0.000000
     -0.000000       0.125000       0.000000
      0.163542       0.125000       0.000000
      0.164583       0.250000       0.000000
      0.000000       0.250000       0.000000
      0.163542       0.125000       0.000000
      0.327083       0.125000       0.000000
      0.329167       0.250000       0.000000
      0.164583       0.250000       0.000000
      0.325000       0.000000       0.000000
      0.487500       0.000000       0.000000
      0.490625       0.125000       0.000000
      0.327083       0.125000       0.000000
      0.487500       0.000000       0.000000
      0.650000       0.000000       0.000000
      0.654167       0.125000       0.000000
      0.490625       0.125000       0.000000
      0.327083       0.125000       0.000000
      0.490625       0.125000       0.000000
      0.493750       0.250000       0.000000
      0.329167       0.250000       0.000000
      0.490625       0.125000       0.000000
      0.654167       0.125000       0.000000
      0.658333       0.250000       0.000000
      0.493750       0.250000       0.000000
      0.650000       0.000000       0.000000
      0.812500       0.000000       0.000000
      0.817708       0.125000       0.000000
      0.654167       0.125000       0.000000
      0.812500       0.000000       0.000000
      0.975000       0.000000       0.000000
      0.981250       0.125000       0.000000
      0.817708       0.125000       0.000000
      0.654167       0.125000       0.000000
      0.817708       0.125000       0.000000
      0.822917       0.250000       0.000000
      0.658333       0.250000       0.000000
      0.817708       0.125000       0.000000
      0.981250       0.125000       0.000000
      0.987500       0.250000       0.000000
      0.822917       0.250000       0.000000
      0.975000       0.000000       0.000000
      1.137500      -0.000000       0.000000
      1.144792       0.125000       0.000000
      0.981250       0.125000       0.000000
      1.137500      -0.000000       0.000000
      1.300000       0.000000       0.000000
      1.308333       0.125000       0.000000
      1.144792       0.125000       0.000000
      0.981250       0.125000       0.000000
      1.144792       0.125000       0.000000
      1.152083       0.250000       0.000000
      0.987500       0.250000       0.000000
      1.144792       0.125000       0.000000
      1.308333       0.125000       0.000000
      1.316667       0.250000       0.000000
      1.152083       0.250000       0.000000
      1.300000       0.000000       0.000000
      1.462500       0.000000       0.000000
      1.471875       0.125000       0.000000
      1.308333       0.125000       0.000000
      1.462500       0.000000       0.000000
      1.625000       0.000000       0.000000
      1.635417       0.125000       0.000000
      1.471875       0.125000       0.000000
      1.308333       0.125000       0.000000
      1.471875       0.125000       0.000000
      1.481250       0.250000       0.000000
      1.316667       0.250000       0.000000
      1.471875       0.125000       0.000000
      1.635417       0.125000       0.000000
      1.645833       0.250000       0.000000
      1.481250       0.250000       0.000000
      1.625000       0.000000       0.000000
      1.787500      -0.000000       0.000000
      1.798958       0.125000       0.000000
      1.635417       0.125000       0.000000
      1.787500      -0.000000       0.000000
      1.950000       0.000000       0.000000
      1.962500       0.125000       0.000000
      1.798958       0.125000       0.000000
      1.635417       0.125000       0.000000
      1.798958       0.125000       0.000000
      1.810417       0.250000       0.000000
      1.645833       0.250000       0.000000
      1.798958       0.125000       0.000000
      1.962500       0.125000       0.000000
      1.975000       0.250000       0.000000
      1.810417       0.250000       0.000000
      1.950000       0.000000       0.000000
      2.112500      -0.000000       0.000000
      2.126042       0.125000       0.000000
      1.962500       0.125000       0.000000
      2.112500      -0.000000       0.000000
      2.275000       0.000000       0.000000
      2.289583       0.125000       0.000000
      2.126042       0.125000       0.000000
      1.962500       0.125000       0.000000
      2.126042       0.125000       0.000000
      2.139583       0.250000       0.000000
      1.975000       0.250000       0.000000
      2.126042       0.125000       0.000000
      2.289583       0.125000       0.000000
      2.304167       0.250000       0.000000
      2.139583       0.250000       0.000000
      2.275000       0.000000       0.000000
      2.437500       0.000000       0.000000
      2.453125       0.125000       0.000000
      2.289583       0.125000       0.000000
      2.437500       0.000000       0.000000
      2.600000       0.000000       0.000000
      2.616667       0.125000       0.000000
      2.453125       0.125000       0.000000
      2.289583       0.125000       0.000000
      2.453125       0.125000       0.000000
      2.468750       0.250000       0.000000
      2.304167       0.250000       0.000000
      2.453125       0.125000       0.000000
      2.616667       0.125000       0.000000
      2.633333       0.250000       0.000000
      2.468750       0.250000       0.000000
      2.600000       0.000000       0.000000
      2.762500       0.000000       0.000000
      2.780208       0.125000       0.000000
      2.616667       0.125000       0.000000
      2.762500       0.000000       0.000000
      2.925000       0.000000       0.000000
      2.943750       0.125000       0.000000
      2.780208       0.125000       0.000000
      2.616667       0.125000       0.000000
      2.780208       0.125000       0.000000
      2.797917       0.250000       0.000000
      2.633333       0.250000       0.000000
      2.780208       0.125000       0.000000
      2.943750       0.125000       0.000000
      2.962500       0.250000       0.000000
      2.797917       0.250000       0.000000
      2.925000       0.000000       0.000000
      3.087500       0.000000       0.000000
      3.107292       0.125000       0.000000
      2.943750       0.125000       0.000000
      3.087500       0.000000       0.000000
      3.250000       0.000000       0.000000
      3.270833       0.125000       0.000000
      3.107292       0.125000       0.000000
      2.943750       0.125000       0.000000
      3.107292       0.125000       0.000000
      3.127083       0.250000       0.000000
      2.962500       0.250000       0.000000
      3.107292       0.125000       0.000000
      3.270833       0.125000       0.000000
      3.291667       0.250000       0.000000
      3.127083       0.250000       0.000000
      3.250000       0.000000       0.000000
      3.412500       0.000000       0.000000
      3.434375       0.125000       0.000000
      3.270833       0.125000       0.000000
      3.412500       0.000000       0.000000
      3.575000       0.000000       0.000000
      3.597917       0.125000       0.000000
      3.434375       0.125000       0.000000
      3.270833       0.125000       0.000000
      3.434375       0.125000       0.000000
      3.456250       0.250000       0.000000
      3.291667       0.250000       0.000000
      3.434375       0.125000       0.000000
      3.597917       0.125000       0.000000
      3.620833       0.250000       0.000000
      3.456250       0.250000       0.000000
      3.575000       0.000000       0.000000
      3.737500      -0.000000       0.000000
      3.761458       0.125000       0.000000
      3.597917       0.125000       0.000000
      3.737500      -0.000000       0.000000
      3.900000       0.000000       0.000000
      3.925000       0.125000       0.000000
      3.761458       0.125000       0.000000
      3.597917       0.125000       0.000000
      3.761458       0.125000       0.000000
      3.785417       0.250000       0.000000
      3.620833       0.250000       0.000000
      3.761458       0.125000       0.000000
      3.925000       0.125000       0.000000
      3.950000       0.250000       0.000000
      3.785417       0.250000       0.000000
      0.000000       0.250000       0.000000
      0.164583       0.250000       0.000000
      0.165625       0.375000       0.000000
     -0.000000       0.375000       0.000000
      0.164583       0.250000       0.000000
      0.329167       0.250000       0.000000
      0.331250       0.375000       0.000000
      0.165625       0.375000       0.000000
     -0.000000       0.375000       0.000000
      0.165625       0.375000       0.000000
      0.166667       0.500000       0.000000
      0.000000       0.500000       0.000000
      0.165625       0.375000       0.000000
      0.331250       0.375000       0.000000
      0.333333       0.500000       0.000000
      0.166667       0.500000       0.000000
      0.329167       0.250000       0.000000
      0.493750       0.250000       0.000000
      0.496875       0.375000       0.000000
      0.331250       0.375000       0.000000
      0.493750       0.250000       0.000000
      0.658333       0.250000       0.000000
      0.662500       0.375000       0.000000
      0.496875       0.375000       0.000000
      0.331250       0.375000       0.000000
      0.496875       0.375000       0.000000
      0.500000       0.500000       0.000000
      0.333333       0.500000       0.000000
[...]
POINT_DATA  3780
VECTORS U float 
      0.000000       0.000000       0.000000
      0.000077      -0.001552       0.000000
      0.001172      -0.001569       0.000000
      0.001165      -0.000125       0.000000
      0.000077      -0.001552       0.000000
      0.000100      -0.002958       0.000000
      0.001174      -0.002980       0.000000
      0.001172      -0.001569       0.000000
      0.001165      -0.000125       0.000000
      0.001172      -0.001569       0.000000
      0.002247      -0.001581       0.000000
      0.002240      -0.000161       0.000000
      0.001172      -0.001569       0.000000
      0.001174      -0.002980       0.000000
      0.002246      -0.002998       0.000000
      0.002247      -0.001581       0.000000
      0.000100      -0.002958       0.000000
      0.000113      -0.004347       0.000000
      0.001180      -0.004376       0.000000
      0.001174      -0.002980       0.000000
      0.000113      -0.004347       0.000000
      0.000123      -0.005730       0.000000
      0.001186      -0.005768       0.000000
      0.001180      -0.004376       0.000000
      0.001174      -0.002980       0.000000
      0.001180      -0.004376       0.000000
      0.002247      -0.004404       0.000000
      0.002246      -0.002998       0.000000
      0.001180      -0.004376       0.000000
      0.001186      -0.005768       0.000000
      0.002249      -0.005805       0.000000
      0.002247      -0.004404       0.000000
      0.000123      -0.005730       0.000000
      0.000132      -0.007110       0.000000
      0.001193      -0.007156       0.000000
      0.001186      -0.005768       0.000000
      0.000132      -0.007110       0.000000
      0.000140      -0.008488       0.000000
      0.001199      -0.008543       0.000000
      0.001193      -0.007156       0.000000
      0.001186      -0.005768       0.000000
      0.001193      -0.007156       0.000000
      0.002253      -0.007202       0.000000
      0.002249      -0.005805       0.000000
      0.001193      -0.007156       0.000000
      0.001199      -0.008543       0.000000
      0.002258      -0.008598       0.000000
      0.002253      -0.007202       0.000000
      0.000140      -0.008488       0.000000
      0.000148      -0.009864       0.000000
      0.001206      -0.009928       0.000000
      0.001199      -0.008543       0.000000
      0.000148      -0.009864       0.000000
      0.000156      -0.011239       0.000000
      0.001213      -0.011312       0.000000
      0.001206      -0.009928       0.000000
      0.001199      -0.008543       0.000000
      0.001206      -0.009928       0.000000
      0.002263      -0.009992       0.000000
      0.002258      -0.008598       0.000000
      0.001206      -0.009928       0.000000
      0.001213      -0.011312       0.000000
      0.002269      -0.011384       0.000000
      0.002263      -0.009992       0.000000
      0.000156      -0.011239       0.000000
      0.000165      -0.012612       0.000000
      0.001221      -0.012694       0.000000
      0.001213      -0.011312       0.000000
      0.000165      -0.012612       0.000000
      0.000175      -0.013984       0.000000
      0.001229      -0.014075       0.000000
      0.001221      -0.012694       0.000000
      0.001213      -0.011312       0.000000
      0.001221      -0.012694       0.000000
      0.002276      -0.012776       0.000000
      0.002269      -0.011384       0.000000
      0.001221      -0.012694       0.000000
      0.001229      -0.014075       0.000000
      0.002283      -0.014166       0.000000
      0.002276      -0.012776       0.000000
      0.000175      -0.013984       0.000000
      0.000185      -0.015355       0.000000
      0.001239      -0.015455       0.000000
      0.001229      -0.014075       0.000000
      0.000185      -0.015355       0.000000
      0.000196      -0.016723       0.000000
      0.001248      -0.016832       0.000000
      0.001239      -0.015455       0.000000
      0.001229      -0.014075       0.000000
      0.001239      -0.015455       0.000000
      0.002291      -0.015554       0.000000
      0.002283      -0.014166       0.000000
      0.001239      -0.015455       0.000000
      0.001248      -0.016832       0.000000
      0.002299      -0.016940       0.000000
      0.002291      -0.015554       0.000000
      0.000196      -0.016723       0.000000
      0.000208      -0.018090       0.000000
      0.001259      -0.018208       0.000000
      0.001248      -0.016832       0.000000
      0.000208      -0.018090       0.000000
      0.000222      -0.019454       0.000000
      0.001271      -0.019581       0.000000
      0.001259      -0.018208       0.000000
      0.001248      -0.016832       0.000000
      0.001259      -0.018208       0.000000
      0.002309      -0.018325       0.000000
      0.002299      -0.016940       0.000000
      0.001259      -0.018208       0.000000
      0.001271      -0.019581       0.000000
      0.002318      -0.019707       0.000000
      0.002309      -0.018325       0.000000
      0.000222      -0.019454       0.000000
      0.000236      -0.020816       0.000000
      0.001283      -0.020952       0.000000
      0.001271      -0.019581       0.000000
      0.000236      -0.020816       0.000000
      0.000250      -0.022175       0.000000
      0.001296      -0.022319       0.000000
      0.001283      -0.020952       0.000000
      0.001271      -0.019581       0.000000
      0.001283      -0.020952       0.000000
      0.002329      -0.021086       0.000000
      0.002318      -0.019707       0.000000
      0.001283      -0.020952       0.000000
      0.001296      -0.022319       0.000000
      0.002340      -0.022463       0.000000
      0.002329      -0.021086       0.000000
      0.000250      -0.022175       0.000000
      0.000266      -0.023532       0.000000
      0.001309      -0.023684       0.000000
      0.001296      -0.022319       0.000000
      0.000266      -0.023532       0.000000
      0.000281      -0.024884       0.000000
      0.001322      -0.025045       0.000000
      0.001309      -0.023684       0.000000
      0.001296      -0.022319       0.000000
      0.001309      -0.023684       0.000000
      0.002352      -0.023836       0.000000
      0.002340      -0.022463       0.000000
      0.001309      -0.023684       0.000000
      0.001322      -0.025045       0.000000
      0.002363      -0.025205       0.000000
      0.002352      -0.023836       0.000000
      0.000281      -0.024884       0.000000
      0.000296      -0.026234       0.000000
      0.001335      -0.026402       0.000000
      0.001322      -0.025045       0.000000
      0.000296      -0.026234       0.000000
      0.000310      -0.027580       0.000000
      0.001347      -0.027756       0.000000
      0.001335      -0.026402       0.000000
      0.001322      -0.025045       0.000000
      0.001335      -0.026402       0.000000
      0.002375      -0.026571       0.000000
      0.002363      -0.025205       0.000000
      0.001335      -0.026402       0.000000
      0.001347      -0.027756       0.000000
      0.002387      -0.027933       0.000000
      0.002375      -0.026571       0.000000
      0.000310      -0.027580       0.000000
      0.000321      -0.028924       0.000000
      0.001358      -0.029108       0.000000
      0.001347      -0.027756       0.000000
      0.000321      -0.028924       0.000000
      0.000327      -0.030267       0.000000
      0.001365      -0.030458       0.000000
      0.001358      -0.029108       0.000000
      0.001347      -0.027756       0.000000
      0.001358      -0.029108       0.000000
      0.002399      -0.029292       0.000000
      0.002387      -0.027933       0.000000
      0.001358      -0.029108       0.000000
      0.001365      -0.030458       0.000000
      0.002408      -0.030650       0.000000
      0.002399      -0.029292       0.000000
      0.000327      -0.030267       0.000000
      0.000329      -0.031614       0.000000
      0.001369      -0.031813       0.000000
      0.001365      -0.030458       0.000000
      0.000329      -0.031614       0.000000
      0.000329      -0.032965       0.000000
      0.001370      -0.033174       0.000000
      0.001369      -0.031813       0.000000
      0.001365      -0.030458       0.000000
      0.001369      -0.031813       0.000000
      0.002414      -0.032011       0.000000
      0.002408      -0.030650       0.000000
      0.001369      -0.031813       0.000000
      0.001370      -0.033174       0.000000
      0.002415      -0.033382       0.000000
      0.002414      -0.032011       0.000000
      0.002240      -0.000161       0.000000
      0.002247      -0.001581       0.000000
      0.003311      -0.001597       0.000000
      0.003304      -0.000181       0.000000
      0.002247      -0.001581       0.000000
      0.002246      -0.002998       0.000000
      0.003311      -0.003016       0.000000
      0.003311      -0.001597       0.000000
      0.003304      -0.000181       0.000000
      0.003311      -0.001597       0.000000
      0.004370      -0.001613       0.000000
      0.004365      -0.000196       0.000000
      0.003311      -0.001597       0.000000
      0.003311      -0.003016       0.000000
      0.004371      -0.003036       0.000000
      0.004370      -0.001613       0.000000
      0.002246      -0.002998       0.000000
      0.002247      -0.004404       0.000000
      0.003310      -0.004431       0.000000
      0.003311      -0.003016       0.000000
      0.002247      -0.004404       0.000000
      0.002249      -0.005805       0.000000
      0.003311      -0.005840       0.000000
      0.003310      -0.004431       0.000000
      0.003311      -0.003016       0.000000
      0.003310      -0.004431       0.000000
      0.004371      -0.004458       0.000000
      0.004371      -0.003036       0.000000
      0.003310      -0.004431       0.000000
      0.003311      -0.005840       0.000000
      0.004371      -0.005876       0.000000
      0.004371      -0.004458       0.000000
      0.002249      -0.005805       0.000000
      0.002253      -0.007202       0.000000
      0.003313      -0.007247       0.000000
      0.003311      -0.005840       0.000000
      0.002253      -0.007202       0.000000
      0.002258      -0.008598       0.000000
      0.003316      -0.008652       0.000000
      0.003313      -0.007247       0.000000
      0.003311      -0.005840       0.000000
      0.003313      -0.007247       0.000000
      0.004371      -0.007292       0.000000
      0.004371      -0.005876       0.000000
      0.003313      -0.007247       0.000000
      0.003316      -0.008652       0.000000
      0.004373      -0.008705       0.000000
      0.004371      -0.007292       0.000000
      0.002258      -0.008598       0.000000
      0.002263      -0.009992       0.000000
      0.003320      -0.010055       0.000000
      0.003316      -0.008652       0.000000
      0.002263      -0.009992       0.000000
      0.002269      -0.011384       0.000000
      0.003325      -0.011457       0.000000
      0.003320      -0.010055       0.000000
      0.003316      -0.008652       0.000000
      0.003320      -0.010055       0.000000
      0.004376      -0.010118       0.000000
      0.004373      -0.008705       0.000000
      0.003320      -0.010055       0.000000
      0.003325      -0.011457       0.000000
      0.004379      -0.011528       0.000000
      0.004376      -0.010118       0.000000
      0.002269      -0.011384       0.000000
      0.002276      -0.012776       0.000000
      0.003330      -0.012857       0.000000
      0.003325      -0.011457       0.000000
      0.002276      -0.012776       0.000000
      0.002283      -0.014166       0.000000
      0.003336      -0.014256       0.000000
      0.003330      -0.012857       0.000000
      0.003325      -0.011457       0.000000
      0.003330      -0.012857       0.000000
      0.004383      -0.012938       0.000000
      0.004379      -0.011528       0.000000
      0.003330      -0.012857       0.000000
      0.003336      -0.014256       0.000000
      0.004387      -0.014345       0.000000
      0.004383      -0.012938       0.000000
      0.002283      -0.014166       0.000000
      0.002291      -0.015554       0.000000
      0.003342      -0.015653       0.000000
      0.003336      -0.014256       0.000000
      0.002291      -0.015554       0.000000
      0.002299      -0.016940       0.000000
      0.003349      -0.017048       0.000000
      0.003342      -0.015653       0.000000
      0.003336      -0.014256       0.000000
      0.003342      -0.015653       0.000000
      0.004392      -0.015751       0.000000
      0.004387      -0.014345       0.000000
      0.003342      -0.015653       0.000000
      0.003349      -0.017048       0.000000
      0.004398      -0.017156       0.000000
      0.004392      -0.015751       0.000000
      0.002299      -0.016940       0.000000
      0.002309      -0.018325       0.000000
      0.003357      -0.018442       0.000000
      0.003349      -0.017048       0.000000
      0.002309      -0.018325       0.000000
      0.002318      -0.019707       0.000000
      0.003365      -0.019832       0.000000
      0.003357      -0.018442       0.000000
      0.003349      -0.017048       0.000000
      0.003357      -0.018442       0.000000
      0.004404      -0.018558       0.000000
      0.004398      -0.017156       0.000000
      0.003357      -0.018442       0.000000
      0.003365      -0.019832       0.000000
      0.004411      -0.019957       0.000000
      0.004404      -0.018558       0.000000
      0.002318      -0.019707       0.000000
      0.002329      -0.021086       0.000000
      0.003374      -0.021220       0.000000
      0.003365      -0.019832       0.000000
      0.002329      -0.021086       0.000000
      0.002340      -0.022463       0.000000
      0.003384      -0.022606       0.000000
      0.003374      -0.021220       0.000000
      0.003365      -0.019832       0.000000
      0.003374      -0.021220       0.000000
      0.004418      -0.021354       0.000000
      0.004411      -0.019957       0.000000
      0.003374      -0.021220       0.000000
      0.003384      -0.022606       0.000000
      0.004426      -0.022748       0.000000
      0.004418      -0.021354       0.000000
      0.002340      -0.022463       0.000000
      0.002352      -0.023836       0.000000
      0.003394      -0.023987       0.000000
      0.003384      -0.022606       0.000000
      0.002352      -0.023836       0.000000
      0.002363      -0.025205       0.000000
      0.003405      -0.025365       0.000000
      0.003394      -0.023987       0.000000
      0.003384      -0.022606       0.000000
      0.003394      -0.023987       0.000000
      0.004435      -0.024139       0.000000
      0.004426      -0.022748       0.000000
      0.003394      -0.023987       0.000000
      0.003405      -0.025365       0.000000
      0.004445      -0.025526       0.000000
      0.004435      -0.024139       0.000000
      0.002363      -0.025205       0.000000
      0.002375      -0.026571       0.000000
      0.003416      -0.026740       0.000000
      0.003405      -0.025365       0.000000
      0.002375      -0.026571       0.000000
      0.002387      -0.027933       0.000000
      0.003428      -0.028110       0.000000
      0.003416      -0.026740       0.000000
      0.003405      -0.025365       0.000000
      0.003416      -0.026740       0.000000
      0.004456      -0.026909       0.000000
      0.004445      -0.025526       0.000000
      0.003416      -0.026740       0.000000
      0.003428      -0.028110       0.000000
      0.004469      -0.028288       0.000000
      0.004456      -0.026909       0.000000
      0.002387      -0.027933       0.000000
      0.002399      -0.029292       0.000000
      0.003441      -0.029477       0.000000
      0.003428      -0.028110       0.000000
      0.002399      -0.029292       0.000000
      0.002408      -0.030650       0.000000
      0.003454      -0.030842       0.000000
      0.003441      -0.029477       0.000000
      0.003428      -0.028110       0.000000
      0.003441      -0.029477       0.000000
      0.004484      -0.029664       0.000000
      0.004469      -0.028288       0.000000
      0.003441      -0.029477       0.000000
      0.003454      -0.030842       0.000000
      0.004501      -0.031037       0.000000
      0.004484      -0.029664       0.000000
      0.002408      -0.030650       0.000000
      0.002412      -0.031330       0.000000
      0.002936      -0.031427       0.000000
      0.002931      -0.030746       0.000000
      0.002412      -0.031330       0.000000
      0.002414      -0.032011       0.000000
      0.002939      -0.032110       0.000000
      0.002936      -0.031427       0.000000
      0.002931      -0.030746       0.000000
      0.002936      -0.031427       0.000000
      0.003461      -0.031525       0.000000
      0.003454      -0.030842       0.000000
      0.002936      -0.031427       0.000000
      0.002939      -0.032110       0.000000
      0.003466      -0.032209       0.000000
      0.003461      -0.031525       0.000000
      0.002414      -0.032011       0.000000
      0.002415      -0.032695       0.000000
      0.002940      -0.032795       0.000000
      0.002939      -0.032110       0.000000
      0.002415      -0.032695       0.000000
      0.002415      -0.033382       0.000000
      0.002940      -0.033486       0.000000
      0.002940      -0.032795       0.000000
      0.002939      -0.032110       0.000000
      0.002940      -0.032795       0.000000
      0.003468      -0.032895       0.000000
      0.003466      -0.032209       0.000000
      0.002940      -0.032795       0.000000
      0.002940      -0.033486       0.000000
      0.003468      -0.033590       0.000000
      0.003468      -0.032895       0.000000
      0.003454      -0.030842       0.000000
      0.003461      -0.031525       0.000000
      0.003986      -0.031624       0.000000
      0.003978      -0.030939       0.000000
      0.003461      -0.031525       0.000000
      0.003466      -0.032209       0.000000
      0.003993      -0.032308       0.000000
      0.003986      -0.031624       0.000000
      0.003978      -0.030939       0.000000
      0.003986      -0.031624       0.000000
      0.004510      -0.031723       0.000000
      0.004501      -0.031037       0.000000
      0.003986      -0.031624       0.000000
      0.003993      -0.032308       0.000000
      0.004521      -0.032409       0.000000
      0.004510      -0.031723       0.000000
      0.003466      -0.032209       0.000000
      0.003467      -0.032551       0.000000
      0.003732      -0.032601       0.000000
      0.003729      -0.032258       0.000000
      0.003467      -0.032551       0.000000
      0.003468      -0.032895       0.000000
      0.003733      -0.032945       0.000000
      0.003732      -0.032601       0.000000
      0.003729      -0.032258       0.000000
      0.003732      -0.032601       0.000000
      0.003997      -0.032651       0.000000
      0.003993      -0.032308       0.000000
      0.003732      -0.032601       0.000000
      0.003733      -0.032945       0.000000
      0.004000      -0.032995       0.000000
      0.003997      -0.032651       0.000000
      0.003468      -0.032895       0.000000
      0.003468      -0.033241       0.000000
      0.003734      -0.033291       0.000000
      0.003733      -0.032945       0.000000
      0.003468      -0.033241       0.000000
      0.003468      -0.033590       0.000000
      0.003733      -0.033641       0.000000
      0.003734      -0.033291       0.000000
      0.003733      -0.032945       0.000000
      0.003734      -0.033291       0.000000
      0.004001      -0.033341       0.000000