# vtk DataFile Version 2.0
time_10.vtk
ASCII
DATASET UNSTRUCTURED_GRID
POINTS  3780 float
      0.000000       0.000000       0.000000
      0.162500       0.000000       0.000000
      0.163542       0.125000       0.000000
     -0.000000       0.125000       0.000000
      0.162500       0.000000       0.000000
      0.325000       0.000000       0.000000
      0.327083       0.125000       0.000000
      0.163542       0.125000       0.000000
     -0.000000       0.125000       0.000000
      0.163542       0.125000       0.000000
      0.164583       0.250000       0.000000
      0.000000       0.250000       0.000000
      0.163542       0.125000       0.000000
      0.327083       0.125000       0.000000
      0.329167       0.250000       0.000000
      0.164583       0.250000       0.000000
      0.325000       0.000000       0.000000
      0.487500       0.000000       0.000000
      0.490625       0.125000       0.000000
      0.327083       0.125000       0.000000
      0.487500       0.000000       0.000000
      0.650000       0.000000       0.000000
      0.654167       0.125000       0.000000
      0.490625       0.125000       0.000000
      0.327083       0.125000       0.000000
      0.490625       0.125000       0.000000
      0.493750       0.250000       0.000000
      0.329167       0.250000       0.000000
      0.490625       0.125000       0.000000
      0.654167       0.125000       0.000000
      0.658333       0.250000       0.000000
      0.493750       0.250000       0.000000
      0.650000       0.000000       0.000000
      0.812500       0.000000       0.000000
      0.817708       0.125000       0.000000
      0.654167       0.125000       0.000000
      0.812500       0.000000       0.000000
      0.975000       0.000000       0.000000
      0.981250       0.125000       0.000000
      0.817708       0.125000       0.000000
      0.654167       0.125000       0.000000
      0.817708       0.125000       0.000000
      0.822917       0.250000       0.000000
      0.658333       0.250000       0.000000
      0.817708       0.125000       0.000000
      0.981250       0.125000       0.000000
      0.987500       0.250000       0.000000
      0.822917       0.250000       0.000000
      0.975000       0.000000       0.000000
      1.137500      -0.000000       0.000000
      1.144792       0.125000       0.000000
      0.981250       0.125000       0.000000
      1.137500      -0.000000       0.000000
      1.300000       0.000000       0.000000
      1.308333       0.125000       0.000000
      1.144792       0.125000       0.000000
      0.981250       0.125000       0.000000
      1.144792       0.125000       0.000000
      1.152083       0.250000       0.000000
      0.987500       0.250000       0.000000
      1.144792       0.125000       0.000000
      1.308333       0.125000       0.000000
      1.316667       0.250000       0.000000
      1.152083       0.250000       0.000000
      1.300000       0.000000       0.000000
      1.462500       0.000000       0.000000
      1.471875       0.125000       0.000000
      1.308333       0.125000       0.000000
      1.462500       0.000000       0.000000
      1.625000       0.000000       0.000000
      1.635417       0.125000       0.000000
      1.471875       0.125000       0.000000
      1.308333       0.125000       0.000000
      1.471875       0.125000       0.000000
      1.481250       0.250000       0.000000
      1.316667       0.250000       0.000000
      1.471875       0.125000       0.000000
      1.635417       0.125000       0.000000
      1.645833       0.250000       0.000000
      1.481250       0.250000       0.000000
      1.625000       0.000000       0.000000
      1.787500      -0.000000       0.000000
      1.798958       0.125000       0.000000
      1.635417       0.125000       0.000000
      1.787500      -0.000000       0.000000
      1.950000       0.000000       0.000000
      1.962500       0.125000       0.000000
      1.798958       0.125000       0.000000
      1.635417       0.125000       0.000000
      1.798958       0.125000       0.000000
      1.810417       0.250000       0.000000
      1.645833       0.250000       0.000000
      1.798958       0.125000       0.000000
      1.962500       0.125000       0.000000
      1.975000       0.250000       0.000000
      1.810417       0.250000       0.000000
      1.950000       0.000000       0.000000
      2.112500      -0.000000       0.000000
      2.126042       0.125000       0.000000
      1.962500       0.125000       0.000000
      2.112500      -0.000000       0.000000
      2.275000       0.000000       0.000000
      2.289583       0.125000       0.000000
      2.126042       0.125000       0.000000
      1.962500       0.125000       0.000000
      2.126042       0.125000       0.000000
      2.139583       0.250000       0.000000
      1.975000       0.250000       0.000000
      2.126042       0.125000       0.000000
      2.289583       0.125000       0.000000
      2.304167       0.250000       0.000000
      2.139583       0.250000       0.000000
      2.275000       0.000000       0.000000
      2.437500       0.000000       0.000000
      2.453125       0.125000       0.000000
      2.289583       0.125000       0.000000
      2.437500       0.000000       0.000000
      2.600000       0.000000       0.000000
      2.616667       0.125000       0.000000
      2.453125       0.125000       0.000000
      2.289583       0.125000       0.000000
      2.453125       0.125000       0.000000
      2.468750       0.250000       0.000000
      2.304167       0.250000       0.000000
      2.453125       0.125000       0.000000
      2.616667       0.125000       0.000000
      2.633333       0.250000       0.000000
      2.468750       0.250000       0.000000
      2.600000       0.000000       0.000000
      2.762500       0.000000       0.000000
      2.780208       0.125000       0.000000
      2.616667       0.125000       0.000000
      2.762500       0.000000       0.000000
      2.925000       0.000000       0.000000
      2.943750       0.125000       0.000000
      2.780208       0.125000       0.000000
      2.616667       0.125000       0.000000
      2.780208       0.125000       0.000000
      2.797917       0.250000       0.000000
      2.633333       0.250000       0.000000
      2.780208       0.125000       0.000000
      2.943750       0.125000       0.000000
      2.962500       0.250000       0.000000
      2.797917       0.250000       0.000000
      2.925000       0.000000       0.000000
      3.087500       0.000000       0.000000
      3.107292       0.125000       0.000000
      2.943750       0.125000       0.000000
      3.087500       0.000000       0.000000
      3.250000       0.000000       0.000000
      3.270833       0.125000       0.000000
      3.107292       0.125000       0.000000
      2.943750       0.125000       0.000000
      3.107292       0.125000       0.000000
      3.127083       0.250000       0.000000
      2.962500       0.250000       0.000000
      3.107292       0.125000       0.000000
      3.270833       0.125000       0.000000
      3.291667       0.250000       0.000000
      3.127083       0.250000       0.000000
      3.250000       0.000000       0.000000
      3.412500       0.000000       0.000000
      3.434375       0.125000       0.000000
      3.270833       0.125000       0.000000
      3.412500       0.000000       0.000000
      3.575000       0.000000       0.000000
      3.597917       0.125000       0.000000
      3.434375       0.125000       0.000000
      3.270833       0.125000       0.000000
      3.434375       0.125000       0.000000
      3.456250       0.250000       0.000000
      3.291667       0.250000       0.000000
      3.434375       0.125000       0.000000
      3.597917       0.125000       0.000000
      3.620833       0.250000       0.000000
      3.456250       0.250000       0.000000
      3.575000       0.000000       0.000000
      3.737500      -0.000000       0.000000
      3.761458       0.125000       0.000000
      3.597917       0.125000       0.000000
      3.737500      -0.000000       0.000000
      3.900000       0.000000       0.000000
      3.925000       0.125000       0.000000
      3.761458       0.125000       0.000000
      3.597917       0.125000       0.000000
      3.761458       0.125000       0.000000
      3.785417       0.250000       0.000000
      3.620833       0.250000       0.000000
      3.761458       0.125000       0.000000
      3.925000       0.125000       0.000000
      3.950000       0.250000       0.000000
      3.785417       0.250000       0.000000
      0.000000       0.250000       0.000000
      0.164583       0.250000       0.000000
      0.165625       0.375000       0.000000
     -0.000000       0.375000       0.000000
      0.164583       0.250000       0.000000
      0.329167       0.250000       0.000000
      0.331250       0.375000       0.000000
      0.165625       0.375000       0.000000
     -0.000000       0.375000       0.000000
      0.165625       0.375000       0.000000
      0.166667       0.500000       0.000000
      0.000000       0.500000       0.000000
      0.165625       0.375000       0.000000
      0.331250       0.375000       0.000000
      0.333333       0.500000       0.000000
      0.166667       0.500000       0.000000
      0.329167       0.250000       0.000000
      0.493750       0.250000       0.000000
      0.496875       0.375000       0.000000
      0.331250       0.375000       0.000000
      0.493750       0.250000       0.000000
      0.658333       0.250000       0.000000
      0.662500       0.375000       0.000000
      0.496875       0.375000       0.000000
      0.331250       0.375000       0.000000
      0.496875       0.375000       0.000000
      0.500000       0.500000       0.000000
      0.333333       0.500000       0.000000
[...]
POINT_DATA  3780
VECTORS U float 
      0.000000       0.000000       0.000000
      0.000078      -0.001554       0.000000
      0.001174      -0.001571       0.000000
      0.001167      -0.000125       0.000000
      0.000078      -0.001554       0.000000
      0.000100      -0.002962       0.000000
      0.001176      -0.002984       0.000000
      0.001174      -0.001571       0.000000
      0.001167      -0.000125       0.000000
      0.001174      -0.001571       0.000000
      0.002250      -0.001583       0.000000
      0.002243      -0.000161       0.000000
      0.001174      -0.001571       0.000000
      0.001176      -0.002984       0.000000
      0.002249      -0.003002       0.000000
      0.002250      -0.001583       0.000000
      0.000100      -0.002962       0.000000
      0.000113      -0.004353       0.000000
      0.001182      -0.004383       0.000000
      0.001176      -0.002984       0.000000
      0.000113      -0.004353       0.000000
      0.000123      -0.005738       0.000000
      0.001188      -0.005776       0.000000
      0.001182      -0.004383       0.000000
      0.001176      -0.002984       0.000000
      0.001182      -0.004383       0.000000
      0.002250      -0.004410       0.000000
      0.002249      -0.003002       0.000000
      0.001182      -0.004383       0.000000
      0.001188      -0.005776       0.000000
      0.002253      -0.005813       0.000000
      0.002250      -0.004410       0.000000
      0.000123      -0.005738       0.000000
      0.000132      -0.007120       0.000000
      0.001194      -0.007166       0.000000
      0.001188      -0.005776       0.000000
      0.000132      -0.007120       0.000000
      0.000140      -0.008500       0.000000
      0.001201      -0.008555       0.000000
      0.001194      -0.007166       0.000000
      0.001188      -0.005776       0.000000
      0.001194      -0.007166       0.000000
      0.002256      -0.007212       0.000000
      0.002253      -0.005813       0.000000
      0.001194      -0.007166       0.000000
      0.001201      -0.008555       0.000000
      0.002261      -0.008610       0.000000
      0.002256      -0.007212       0.000000
      0.000140      -0.008500       0.000000
      0.000148      -0.009878       0.000000
      0.001208      -0.009942       0.000000
      0.001201      -0.008555       0.000000
      0.000148      -0.009878       0.000000
      0.000156      -0.011255       0.000000
      0.001215      -0.011328       0.000000
      0.001208      -0.009942       0.000000
      0.001201      -0.008555       0.000000
      0.001208      -0.009942       0.000000
      0.002267      -0.010006       0.000000
      0.002261      -0.008610       0.000000
      0.001208      -0.009942       0.000000
      0.001215      -0.011328       0.000000
      0.002272      -0.011401       0.000000
      0.002267      -0.010006       0.000000
      0.000156      -0.011255       0.000000
      0.000165      -0.012630       0.000000
      0.001223      -0.012712       0.000000
      0.001215      -0.011328       0.000000
      0.000165      -0.012630       0.000000
      0.000175      -0.014004       0.000000
      0.001231      -0.014095       0.000000
      0.001223      -0.012712       0.000000
      0.001215      -0.011328       0.000000
      0.001223      -0.012712       0.000000
      0.002279      -0.012794       0.000000
      0.002272      -0.011401       0.000000
      0.001223      -0.012712       0.000000
      0.001231      -0.014095       0.000000
      0.002286      -0.014186       0.000000
      0.002279      -0.012794       0.000000
      0.000175      -0.014004       0.000000
      0.000185      -0.015377       0.000000
      0.001240      -0.015477       0.000000
      0.001231      -0.014095       0.000000
      0.000185      -0.015377       0.000000
      0.000196      -0.016747       0.000000
      0.001250      -0.016856       0.000000
      0.001240      -0.015477       0.000000
      0.001231      -0.014095       0.000000
      0.001240      -0.015477       0.000000
      0.002294      -0.015576       0.000000
      0.002286      -0.014186       0.000000
      0.001240      -0.015477       0.000000
      0.001250      -0.016856       0.000000
      0.002303      -0.016965       0.000000
      0.002294      -0.015576       0.000000
      0.000196      -0.016747       0.000000
      0.000209      -0.018116       0.000000
      0.001261      -0.018234       0.000000
      0.001250      -0.016856       0.000000
      0.000209      -0.018116       0.000000
      0.000222      -0.019482       0.000000
      0.001272      -0.019609       0.000000
      0.001261      -0.018234       0.000000
      0.001250      -0.016856       0.000000
      0.001261      -0.018234       0.000000
      0.002312      -0.018351       0.000000
      0.002303      -0.016965       0.000000
      0.001261      -0.018234       0.000000
      0.001272      -0.019609       0.000000
      0.002322      -0.019735       0.000000
      0.002312      -0.018351       0.000000
      0.000222      -0.019482       0.000000
      0.000236      -0.020846       0.000000
      0.001284      -0.020982       0.000000
      0.001272      -0.019609       0.000000
      0.000236      -0.020846       0.000000
      0.000250      -0.022207       0.000000
      0.001297      -0.022351       0.000000
      0.001284      -0.020982       0.000000
      0.001272      -0.019609       0.000000
      0.001284      -0.020982       0.000000
      0.002332      -0.021117       0.000000
      0.002322      -0.019735       0.000000
      0.001284      -0.020982       0.000000
      0.001297      -0.022351       0.000000
      0.002343      -0.022495       0.000000
      0.002332      -0.021117       0.000000
      0.000250      -0.022207       0.000000
      0.000266      -0.023565       0.000000
      0.001311      -0.023718       0.000000
      0.001297      -0.022351       0.000000
      0.000266      -0.023565       0.000000
      0.000281      -0.024920       0.000000
      0.001324      -0.025081       0.000000
      0.001311      -0.023718       0.000000
      0.001297      -0.022351       0.000000
      0.001311      -0.023718       0.000000
      0.002355      -0.023870       0.000000
      0.002343      -0.022495       0.000000
      0.001311      -0.023718       0.000000
      0.001324      -0.025081       0.000000
      0.002367      -0.025241       0.000000
      0.002355      -0.023870       0.000000
      0.000281      -0.024920       0.000000
      0.000296      -0.026272       0.000000
      0.001337      -0.026440       0.000000
      0.001324      -0.025081       0.000000
      0.000296      -0.026272       0.000000
      0.000310      -0.027620       0.000000
      0.001349      -0.027796       0.000000
      0.001337      -0.026440       0.000000
      0.001324      -0.025081       0.000000
      0.001337      -0.026440       0.000000
      0.002379      -0.026609       0.000000
      0.002367      -0.025241       0.000000
      0.001337      -0.026440       0.000000
      0.001349      -0.027796       0.000000
      0.002391      -0.027973       0.000000
      0.002379      -0.026609       0.000000
      0.000310      -0.027620       0.000000
      0.000321      -0.028966       0.000000
      0.001359      -0.029150       0.000000
      0.001349      -0.027796       0.000000
      0.000321      -0.028966       0.000000
      0.000328      -0.030311       0.000000
      0.001367      -0.030502       0.000000
      0.001359      -0.029150       0.000000
      0.001349      -0.027796       0.000000
      0.001359      -0.029150       0.000000
      0.002402      -0.029334       0.000000
      0.002391      -0.027973       0.000000
      0.001359      -0.029150       0.000000
      0.001367      -0.030502       0.000000
      0.002411      -0.030694       0.000000
      0.002402      -0.029334       0.000000
      0.000328      -0.030311       0.000000
      0.000330      -0.031659       0.000000
      0.001371      -0.031859       0.000000
      0.001367      -0.030502       0.000000
      0.000330      -0.031659       0.000000
      0.000329      -0.033013       0.000000
      0.001372      -0.033221       0.000000
      0.001371      -0.031859       0.000000
      0.001367      -0.030502       0.000000
      0.001371      -0.031859       0.000000
      0.002418      -0.032057       0.000000
      0.002411      -0.030694       0.000000
      0.001371      -0.031859       0.000000
      0.001372      -0.033221       0.000000
      0.002418      -0.033431       0.000000
      0.002418      -0.032057       0.000000
      0.002243      -0.000161       0.000000
      0.002250      -0.001583       0.000000
      0.003315      -0.001599       0.000000
      0.003309      -0.000181       0.000000
      0.002250      -0.001583       0.000000
      0.002249      -0.003002       0.000000
      0.003316      -0.003021       0.000000
      0.003315      -0.001599       0.000000
      0.003309      -0.000181       0.000000
      0.003315      -0.001599       0.000000
      0.004376      -0.001615       0.000000
      0.004371      -0.000196       0.000000
      0.003315      -0.001599       0.000000
      0.003316      -0.003021       0.000000
      0.004377      -0.003040       0.000000
      0.004376      -0.001615       0.000000
      0.002249      -0.003002       0.000000
      0.002250      -0.004410       0.000000
      0.003315      -0.004437       0.000000
      0.003316      -0.003021       0.000000
      0.002250      -0.004410       0.000000
      0.002253      -0.005813       0.000000
      0.003316      -0.005849       0.000000
      0.003315      -0.004437       0.000000
      0.003316      -0.003021       0.000000
      0.003315      -0.004437       0.000000
      0.004377      -0.004464       0.000000
      0.004377      -0.003040       0.000000
      0.003315      -0.004437       0.000000
      0.003316      -0.005849       0.000000
      0.004377      -0.005884       0.000000
      0.004377      -0.004464       0.000000
      0.002253      -0.005813       0.000000
      0.002256      -0.007212       0.000000
      0.003318      -0.007257       0.000000
      0.003316      -0.005849       0.000000
      0.002256      -0.007212       0.000000
      0.002261      -0.008610       0.000000
      0.003321      -0.008664       0.000000
      0.003318      -0.007257       0.000000
      0.003316      -0.005849       0.000000
      0.003318      -0.007257       0.000000
      0.004377      -0.007302       0.000000
      0.004377      -0.005884       0.000000
      0.003318      -0.007257       0.000000
      0.003321      -0.008664       0.000000
      0.004379      -0.008718       0.000000
      0.004377      -0.007302       0.000000
      0.002261      -0.008610       0.000000
      0.002267      -0.010006       0.000000
      0.003325      -0.010069       0.000000
      0.003321      -0.008664       0.000000
      0.002267      -0.010006       0.000000
      0.002272      -0.011401       0.000000
      0.003329      -0.011473       0.000000
      0.003325      -0.010069       0.000000
      0.003321      -0.008664       0.000000
      0.003325      -0.010069       0.000000
      0.004382      -0.010132       0.000000
      0.004379      -0.008718       0.000000
      0.003325      -0.010069       0.000000
      0.003329      -0.011473       0.000000
      0.004385      -0.011545       0.000000
      0.004382      -0.010132       0.000000
      0.002272      -0.011401       0.000000
      0.002279      -0.012794       0.000000
      0.003334      -0.012875       0.000000
      0.003329      -0.011473       0.000000
      0.002279      -0.012794       0.000000
      0.002286      -0.014186       0.000000
      0.003340      -0.014276       0.000000
      0.003334      -0.012875       0.000000
      0.003329      -0.011473       0.000000
      0.003334      -0.012875       0.000000
      0.004389      -0.012956       0.000000
      0.004385      -0.011545       0.000000
      0.003334      -0.012875       0.000000
      0.003340      -0.014276       0.000000
      0.004393      -0.014366       0.000000
      0.004389      -0.012956       0.000000
      0.002286      -0.014186       0.000000
      0.002294      -0.015576       0.000000
      0.003347      -0.015675       0.000000
      0.003340      -0.014276       0.000000
      0.002294      -0.015576       0.000000
      0.002303      -0.016965       0.000000
      0.003354      -0.017073       0.000000
      0.003347      -0.015675       0.000000
      0.003340      -0.014276       0.000000
      0.003347      -0.015675       0.000000
      0.004399      -0.015774       0.000000
      0.004393      -0.014366       0.000000
      0.003347      -0.015675       0.000000
      0.003354      -0.017073       0.000000
      0.004404      -0.017180       0.000000
      0.004399      -0.015774       0.000000
      0.002303      -0.016965       0.000000
      0.002312      -0.018351       0.000000
      0.003361      -0.018468       0.000000
      0.003354      -0.017073       0.000000
      0.002312      -0.018351       0.000000
      0.002322      -0.019735       0.000000
      0.003370      -0.019861       0.000000
      0.003361      -0.018468       0.000000
      0.003354      -0.017073       0.000000
      0.003361      -0.018468       0.000000
      0.004410      -0.018584       0.000000
      0.004404      -0.017180       0.000000
      0.003361      -0.018468       0.000000
      0.003370      -0.019861       0.000000
      0.004417      -0.019986       0.000000
      0.004410      -0.018584       0.000000
      0.002322      -0.019735       0.000000
      0.002332      -0.021117       0.000000
      0.003379      -0.021251       0.000000
      0.003370      -0.019861       0.000000
      0.002332      -0.021117       0.000000
      0.002343      -0.022495       0.000000
      0.003388      -0.022638       0.000000
      0.003379      -0.021251       0.000000
      0.003370      -0.019861       0.000000
      0.003379      -0.021251       0.000000
      0.004424      -0.021385       0.000000
      0.004417      -0.019986       0.000000
      0.003379      -0.021251       0.000000
      0.003388      -0.022638       0.000000
      0.004432      -0.022781       0.000000
      0.004424      -0.021385       0.000000
      0.002343      -0.022495       0.000000
      0.002355      -0.023870       0.000000
      0.003398      -0.024022       0.000000
      0.003388      -0.022638       0.000000
      0.002355      -0.023870       0.000000
      0.002367      -0.025241       0.000000
      0.003409      -0.025402       0.000000
      0.003398      -0.024022       0.000000
      0.003388      -0.022638       0.000000
      0.003398      -0.024022       0.000000
      0.004441      -0.024174       0.000000
      0.004432      -0.022781       0.000000
      0.003398      -0.024022       0.000000
      0.003409      -0.025402       0.000000
      0.004451      -0.025563       0.000000
      0.004441      -0.024174       0.000000
      0.002367      -0.025241       0.000000
      0.002379      -0.026609       0.000000
      0.003421      -0.026778       0.000000
      0.003409      -0.025402       0.000000
      0.002379      -0.026609       0.000000
      0.002391      -0.027973       0.000000
      0.003433      -0.028151       0.000000
      0.003421      -0.026778       0.000000
      0.003409      -0.025402       0.000000
      0.003421      -0.026778       0.000000
      0.004463      -0.026948       0.000000
      0.004451      -0.025563       0.000000
      0.003421      -0.026778       0.000000
      0.003433      -0.028151       0.000000
      0.004475      -0.028329       0.000000
      0.004463      -0.026948       0.000000
      0.002391      -0.027973       0.000000
      0.002402      -0.029334       0.000000
      0.003446      -0.029520       0.000000
      0.003433      -0.028151       0.000000
      0.002402      -0.029334       0.000000
      0.002411      -0.030694       0.000000
      0.003459      -0.030887       0.000000
      0.003446      -0.029520       0.000000
      0.003433      -0.028151       0.000000
      0.003446      -0.029520       0.000000
      0.004490      -0.029707       0.000000
      0.004475      -0.028329       0.000000
      0.003446      -0.029520       0.000000
      0.003459      -0.030887       0.000000
      0.004507      -0.031082       0.000000
      0.004490      -0.029707       0.000000
      0.002411      -0.030694       0.000000
      0.002415      -0.031375       0.000000
      0.002940      -0.031473       0.000000
      0.002935      -0.030790       0.000000
      0.002415      -0.031375       0.000000
      0.002418      -0.032057       0.000000
      0.002943      -0.032156       0.000000
      0.002940      -0.031473       0.000000
      0.002935      -0.030790       0.000000
      0.002940      -0.031473       0.000000
      0.003465      -0.031571       0.000000
      0.003459      -0.030887       0.000000
      0.002940      -0.031473       0.000000
      0.002943      -0.032156       0.000000
      0.003470      -0.032255       0.000000
      0.003465      -0.031571       0.000000
      0.002418      -0.032057       0.000000
      0.002418      -0.032742       0.000000
      0.002944      -0.032843       0.000000
      0.002943      -0.032156       0.000000
      0.002418      -0.032742       0.000000
      0.002418      -0.033431       0.000000
      0.002944      -0.033535       0.000000
      0.002944      -0.032843       0.000000
      0.002943      -0.032156       0.000000
      0.002944      -0.032843       0.000000
      0.003473      -0.032943       0.000000
      0.003470      -0.032255       0.000000
      0.002944      -0.032843       0.000000
      0.002944      -0.033535       0.000000
      0.003472      -0.033638       0.000000
      0.003473      -0.032943       0.000000
      0.003459      -0.030887       0.000000
      0.003465      -0.031571       0.000000
      0.003991      -0.031669       0.000000
      0.003983      -0.030984       0.000000
      0.003465      -0.031571       0.000000
      0.003470      -0.032255       0.000000
      0.003999      -0.032355       0.000000
      0.003991      -0.031669       0.000000
      0.003983      -0.030984       0.000000
      0.003991      -0.031669       0.000000
      0.004516      -0.031769       0.000000
      0.004507      -0.031082       0.000000
      0.003991      -0.031669       0.000000
      0.003999      -0.032355       0.000000
      0.004527      -0.032456       0.000000
      0.004516      -0.031769       0.000000
      0.003470      -0.032255       0.000000
      0.003472      -0.032599       0.000000
      0.003737      -0.032648       0.000000
      0.003734      -0.032305       0.000000
      0.003472      -0.032599       0.000000
      0.003473      -0.032943       0.000000
      0.003739      -0.032993       0.000000
      0.003737      -0.032648       0.000000
      0.003734      -0.032305       0.000000
      0.003737      -0.032648       0.000000
      0.004002      -0.032698       0.000000
      0.003999      -0.032355       0.000000
      0.003737      -0.032648       0.000000
      0.003739      -0.032993       0.000000
      0.004005      -0.033042       0.000000
      0.004002      -0.032698       0.000000
      0.003473      -0.032943       0.000000
      0.003473      -0.033289       0.000000
      0.003739      -0.033339       0.000000
      0.003739      -0.032993       0.000000
      0.003473      -0.033289       0.000000
      0.003472      -0.033638       0.000000
      0.003738      -0.033690       0.000000
      0.003739      -0.033339       0.000000
      0.003739      -0.032993       0.000000
      0.003739      -0.033339       0.000000
      0.004006      -0.033389       0.000000