# vtk DataFile Version 2.0
time_10.vtk
ASCII
DATASET UNSTRUCTURED_GRID
POINTS  3780 float
      0.000000       0.000000       0.000000
      0.162500       0.000000       0.000000
      0.163542       0.125000       0.000000
     -0.000000       0.125000       0.000000
      0.162500       0.000000       0.000000
      0.325000       0.000000       0.000000
      0.327083       0.125000       0.000000
      0.163542       0.125000       0.000000
     -0.000000       0.125000       0.000000
      0.163542       0.125000       0.000000
      0.164583       0.250000       0.000000
      0.000000       0.250000       0.000000
      0.163542       0.125000       0.000000
      0.327083       0.125000       0.000000
      0.329167       0.250000       0.000000
      0.164583       0.250000       0.000000
      0.325000       0.000000       0.000000
      0.487500       0.000000       0.000000
      0.490625       0.125000       0.000000
      0.327083       0.125000       0.000000
      0.487500       0.000000       0.000000
      0.650000       0.000000       0.000000
      0.654167       0.125000       0.000000
      0.490625       0.125000       0.000000
      0.327083       0.125000       0.000000
      0.490625       0.125000       0.000000
      0.493750       0.250000       0.000000
      0.329167       0.250000       0.000000
      0.490625       0.125000       0.000000
      0.654167       0.125000       0.000000
      0.658333       0.250000       0.000000
      0.493750       0.250000       0.000000
      0.650000       0.000000       0.000000
      0.812500       0.000000       0.000000
      0.817708       0.125000       0.000000
      0.654167       0.125000       0.000000
      0.812500       0.000000       0.000000
      0.975000       0.000000       0.000000
      0.981250       0.125000       0.000000
      0.817708       0.125000       0.000000
      0.654167       0.125000       0.000000
      0.817708       0.125000       0.000000
      0.822917       0.250000       0.000000
      0.658333       0.250000       0.000000
      0.817708       0.125000       0.000000
      0.981250       0.125000       0.000000
      0.987500       0.250000       0.000000
      0.822917       0.250000       0.000000
      0.975000       0.000000       0.000000
      1.137500      -0.000000       0.000000
      1.144792       0.125000       0.000000
      0.981250       0.125000       0.000000
      1.137500      -0.000000       0.000000
      1.300000       0.000000       0.000000
      1.308333       0.125000       0.000000
      1.144792       0.125000       0.000000
      0.981250       0.125000       0.000000
      1.144792       0.125000       0.000000
      1.152083       0.250000       0.000000
      0.987500       0.250000       0.000000
      1.144792       0.125000       0.000000
      1.308333       0.125000       0.000000
      1.316667       0.250000       0.000000
      1.152083       0.250000       0.000000
      1.300000       0.000000       0.000000
      1.462500       0.000000       0.000000
      1.471875       0.125000       0.000000
      1.308333       0.125000       0.000000
      1.462500       0.000000       0.000000
      1.625000       0.000000       0.000000
      1.635417       0.125000       0.000000
      1.471875       0.125000       0.000000
      1.308333       0.125000       0.000000
      1.471875       0.125000       0.000000
      1.481250       0.250000       0.000000
      1.316667       0.250000       0.000000
      1.471875       0.125000       0.000000
      1.635417       0.125000       0.000000
      1.645833       0.250000       0.000000
      1.481250       0.250000       0.000000
      1.625000       0.000000       0.000000
      1.787500      -0.000000       0.000000
      1.798958       0.125000       0.000000
      1.635417       0.125000       0.000000
      1.787500      -0.000000       0.000000
      1.950000       0.000000       0.000000
      1.962500       0.125000       0.000000
      1.798958       0.125000       0.000000
      1.635417       0.125000       0.000000
      1.798958       0.125000       0.000000
      1.810417       0.250000       0.000000
      1.645833       0.250000       0.000000
      1.798958       0.125000       0.000000
      1.962500       0.125000       0.000000
      1.975000       0.250000       0.000000
      1.810417       0.250000       0.000000
      1.950000       0.000000       0.000000
      2.112500      -0.000000       0.000000
      2.126042       0.125000       0.000000
      1.962500       0.125000       0.000000
      2.112500      -0.000000       0.000000
      2.275000       0.000000       0.000000
      2.289583       0.125000       0.000000
      2.126042       0.125000       0.000000
      1.962500       0.125000       0.000000
      2.126042       0.125000       0.000000
      2.139583       0.250000       0.000000
      1.975000       0.250000       0.000000
      2.126042       0.125000       0.000000
      2.289583       0.125000       0.000000
      2.304167       0.250000       0.000000
      2.139583       0.250000       0.000000
      2.275000       0.000000       0.000000
      2.437500       0.000000       0.000000
      2.453125       0.125000       0.000000
      2.289583       0.125000       0.000000
      2.437500       0.000000       0.000000
      2.600000       0.000000       0.000000
      2.616667       0.125000       0.000000
      2.453125       0.125000       0.000000
      2.289583       0.125000       0.000000
      2.453125       0.125000       0.000000
      2.468750       0.250000       0.000000
      2.304167       0.250000       0.000000
      2.453125       0.125000       0.000000
      2.616667       0.125000       0.000000
      2.633333       0.250000       0.000000
      2.468750       0.250000       0.000000
      2.600000       0.000000       0.000000
      2.762500       0.000000       0.000000
      2.780208       0.125000       0.000000
      2.616667       0.125000       0.000000
      2.762500       0.000000       0.000000
      2.925000       0.000000       0.000000
      2.943750       0.125000       0.000000
      2.780208       0.125000       0.000000
      2.616667       0.125000       0.000000
      2.780208       0.125000       0.000000
      2.797917       0.250000       0.000000
      2.633333       0.250000       0.000000
      2.780208       0.125000       0.000000
      2.943750       0.125000       0.000000
      2.962500       0.250000       0.000000
      2.797917       0.250000       0.000000
      2.925000       0.000000       0.000000
      3.087500       0.000000       0.000000
      3.107292       0.125000       0.000000
      2.943750       0.125000       0.000000
      3.087500       0.000000       0.000000
      3.250000       0.000000       0.000000
      3.270833       0.125000       0.000000
      3.107292       0.125000       0.000000
      2.943750       0.125000       0.000000
      3.107292       0.125000       0.000000
      3.127083       0.250000       0.000000
      2.962500       0.250000       0.000000
      3.107292       0.125000       0.000000
      3.270833       0.125000       0.000000
      3.291667       0.250000       0.000000
      3.127083       0.250000       0.000000
      3.250000       0.000000       0.000000
      3.412500       0.000000       0.000000
      3.434375       0.125000       0.000000
      3.270833       0.125000       0.000000
      3.412500       0.000000       0.000000
      3.575000       0.000000       0.000000
      3.597917       0.125000       0.000000
      3.434375       0.125000       0.000000
      3.270833       0.125000       0.000000
      3.434375       0.125000       0.000000
      3.456250       0.250000       0.000000
      3.291667       0.250000       0.000000
      3.434375       0.125000       0.000000
      3.597917       0.125000       0.000000
      3.620833       0.250000       0.000000
      3.456250       0.250000       0.000000
      3.575000       0.000000       0.000000
      3.737500      -0.000000       0.000000
      3.761458       0.125000       0.000000
      3.597917       0.125000       0.000000
      3.737500      -0.000000       0.000000
      3.900000       0.000000       0.000000
      3.925000       0.125000       0.000000
      3.761458       0.125000       0.000000
      3.597917       0.125000       0.000000
      3.761458       0.125000       0.000000
      3.785417       0.250000       0.000000
      3.620833       0.250000       0.000000
      3.761458       0.125000       0.000000
      3.925000       0.125000       0.000000
      3.950000       0.250000       0.000000
      3.785417       0.250000       0.000000
      0.000000       0.250000       0.000000
      0.164583       0.250000       0.000000
      0.165625       0.375000       0.000000
     -0.000000       0.375000       0.000000
      0.164583       0.250000       0.000000
      0.329167       0.250000       0.000000
      0.331250       0.375000       0.000000
      0.165625       0.375000       0.000000
     -0.000000       0.375000       0.000000
      0.165625       0.375000       0.000000
      0.166667       0.500000       0.000000
      0.000000       0.500000       0.000000
      0.165625       0.375000       0.000000
      0.331250       0.375000       0.000000
      0.333333       0.500000       0.000000
      0.166667       0.500000       0.000000
      0.329167       0.250000       0.000000
      0.493750       0.250000       0.000000
      0.496875       0.375000       0.000000
      0.331250       0.375000       0.000000
      0.493750       0.250000       0.000000
      0.658333       0.250000       0.000000
      0.662500       0.375000       0.000000
      0.496875       0.375000       0.000000
      0.331250       0.375000       0.000000
      0.496875       0.375000       0.000000
      0.500000       0.500000       0.000000
      0.333333       0.500000       0.000000
[...]
POINT_DATA  3780
VECTORS U float 
      0.000000       0.000000       0.000000
      0.000078      -0.001558       0.000000
      0.001177      -0.001576       0.000000
      0.001170      -0.000125       0.000000
      0.000078      -0.001558       0.000000
      0.000100      -0.002970       0.000000
      0.001179      -0.002992       0.000000
      0.001177      -0.001576       0.000000
      0.001170      -0.000125       0.000000
      0.001177      -0.001576       0.000000
      0.002257      -0.001587       0.000000
      0.002249      -0.000161       0.000000
      0.001177      -0.001576       0.000000
      0.001179      -0.002992       0.000000
      0.002255      -0.003010       0.000000
      0.002257      -0.001587       0.000000
      0.000100      -0.002970       0.000000
      0.000113      -0.004365       0.000000
      0.001185      -0.004395       0.000000
      0.001179      -0.002992       0.000000
      0.000113      -0.004365       0.000000
      0.000123      -0.005754       0.000000
      0.001191      -0.005792       0.000000
      0.001185      -0.004395       0.000000
      0.001179      -0.002992       0.000000
      0.001185      -0.004395       0.000000
      0.002256      -0.004423       0.000000
      0.002255      -0.003010       0.000000
      0.001185      -0.004395       0.000000
      0.001191      -0.005792       0.000000
      0.002259      -0.005829       0.000000
      0.002256      -0.004423       0.000000
      0.000123      -0.005754       0.000000
      0.000132      -0.007140       0.000000
      0.001197      -0.007187       0.000000
      0.001191      -0.005792       0.000000
      0.000132      -0.007140       0.000000
      0.000140      -0.008524       0.000000
      0.001204      -0.008579       0.000000
      0.001197      -0.007187       0.000000
      0.001191      -0.005792       0.000000
      0.001197      -0.007187       0.000000
      0.002263      -0.007233       0.000000
      0.002259      -0.005829       0.000000
      0.001197      -0.007187       0.000000
      0.001204      -0.008579       0.000000
      0.002267      -0.008634       0.000000
      0.002263      -0.007233       0.000000
      0.000140      -0.008524       0.000000
      0.000148      -0.009906       0.000000
      0.001211      -0.009970       0.000000
      0.001204      -0.008579       0.000000
      0.000148      -0.009906       0.000000
      0.000156      -0.011287       0.000000
      0.001218      -0.011360       0.000000
      0.001211      -0.009970       0.000000
      0.001204      -0.008579       0.000000
      0.001211      -0.009970       0.000000
      0.002273      -0.010034       0.000000
      0.002267      -0.008634       0.000000
      0.001211      -0.009970       0.000000
      0.001218      -0.011360       0.000000
      0.002279      -0.011433       0.000000
      0.002273      -0.010034       0.000000
      0.000156      -0.011287       0.000000
      0.000165      -0.012666       0.000000
      0.001226      -0.012749       0.000000
      0.001218      -0.011360       0.000000
      0.000165      -0.012666       0.000000
      0.000175      -0.014044       0.000000
      0.001234      -0.014136       0.000000
      0.001226      -0.012749       0.000000
      0.001218      -0.011360       0.000000
      0.001226      -0.012749       0.000000
      0.002285      -0.012831       0.000000
      0.002279      -0.011433       0.000000
      0.001226      -0.012749       0.000000
      0.001234      -0.014136       0.000000
      0.002292      -0.014227       0.000000
      0.002285      -0.012831       0.000000
      0.000175      -0.014044       0.000000
      0.000185      -0.015421       0.000000
      0.001243      -0.015521       0.000000
      0.001234      -0.014136       0.000000
      0.000185      -0.015421       0.000000
      0.000197      -0.016795       0.000000
      0.001253      -0.016904       0.000000
      0.001243      -0.015521       0.000000
      0.001234      -0.014136       0.000000
      0.001243      -0.015521       0.000000
      0.002300      -0.015621       0.000000
      0.002292      -0.014227       0.000000
      0.001243      -0.015521       0.000000
      0.001253      -0.016904       0.000000
      0.002309      -0.017013       0.000000
      0.002300      -0.015621       0.000000
      0.000197      -0.016795       0.000000
      0.000209      -0.018168       0.000000
      0.001264      -0.018286       0.000000
      0.001253      -0.016904       0.000000
      0.000209      -0.018168       0.000000
      0.000222      -0.019538       0.000000
      0.001276      -0.019665       0.000000
      0.001264      -0.018286       0.000000
      0.001253      -0.016904       0.000000
      0.001264      -0.018286       0.000000
      0.002318      -0.018404       0.000000
      0.002309      -0.017013       0.000000
      0.001264      -0.018286       0.000000
      0.001276      -0.019665       0.000000
      0.002328      -0.019792       0.000000
      0.002318      -0.018404       0.000000
      0.000222      -0.019538       0.000000
      0.000236      -0.020906       0.000000
      0.001288      -0.021042       0.000000
      0.001276      -0.019665       0.000000
      0.000236      -0.020906       0.000000
      0.000251      -0.022271       0.000000
      0.001301      -0.022416       0.000000
      0.001288      -0.021042       0.000000
      0.001276      -0.019665       0.000000
      0.001288      -0.021042       0.000000
      0.002338      -0.021177       0.000000
      0.002328      -0.019792       0.000000
      0.001288      -0.021042       0.000000
      0.001301      -0.022416       0.000000
      0.002350      -0.022560       0.000000
      0.002338      -0.021177       0.000000
      0.000251      -0.022271       0.000000
      0.000266      -0.023633       0.000000
      0.001314      -0.023786       0.000000
      0.001301      -0.022416       0.000000
      0.000266      -0.023633       0.000000
      0.000282      -0.024992       0.000000
      0.001327      -0.025153       0.000000
      0.001314      -0.023786       0.000000
      0.001301      -0.022416       0.000000
      0.001314      -0.023786       0.000000
      0.002361      -0.023939       0.000000
      0.002350      -0.022560       0.000000
      0.001314      -0.023786       0.000000
      0.001327      -0.025153       0.000000
      0.002373      -0.025314       0.000000
      0.002361      -0.023939       0.000000
      0.000282      -0.024992       0.000000
      0.000297      -0.026347       0.000000
      0.001340      -0.026517       0.000000
      0.001327      -0.025153       0.000000
      0.000297      -0.026347       0.000000
      0.000310      -0.027699       0.000000
      0.001352      -0.027876       0.000000
      0.001340      -0.026517       0.000000
      0.001327      -0.025153       0.000000
      0.001340      -0.026517       0.000000
      0.002385      -0.026686       0.000000
      0.002373      -0.025314       0.000000
      0.001340      -0.026517       0.000000
      0.001352      -0.027876       0.000000
      0.002397      -0.028054       0.000000
      0.002385      -0.026686       0.000000
      0.000310      -0.027699       0.000000
      0.000321      -0.029049       0.000000
      0.001363      -0.029234       0.000000
      0.001352      -0.027876       0.000000
      0.000321      -0.029049       0.000000
      0.000328      -0.030398       0.000000
      0.001370      -0.030590       0.000000
      0.001363      -0.029234       0.000000
      0.001352      -0.027876       0.000000
      0.001363      -0.029234       0.000000
      0.002408      -0.029419       0.000000
      0.002397      -0.028054       0.000000
      0.001363      -0.029234       0.000000
      0.001370      -0.030590       0.000000
      0.002418      -0.030783       0.000000
      0.002408      -0.029419       0.000000
      0.000328      -0.030398       0.000000
      0.000330      -0.031751       0.000000
      0.001374      -0.031950       0.000000
      0.001370      -0.030590       0.000000
      0.000330      -0.031751       0.000000
      0.000330      -0.033108       0.000000
      0.001375      -0.033317       0.000000
      0.001374      -0.031950       0.000000
      0.001370      -0.030590       0.000000
      0.001374      -0.031950       0.000000
      0.002424      -0.032150       0.000000
      0.002418      -0.030783       0.000000
      0.001374      -0.031950       0.000000
      0.001375      -0.033317       0.000000
      0.002425      -0.033527       0.000000
      0.002424      -0.032150       0.000000
      0.002249      -0.000161       0.000000
      0.002257      -0.001587       0.000000
      0.003325      -0.001603       0.000000
      0.003318      -0.000181       0.000000
      0.002257      -0.001587       0.000000
      0.002255      -0.003010       0.000000
      0.003325      -0.003029       0.000000
      0.003325      -0.001603       0.000000
      0.003318      -0.000181       0.000000
      0.003325      -0.001603       0.000000
      0.004389      -0.001620       0.000000
      0.004383      -0.000196       0.000000
      0.003325      -0.001603       0.000000
      0.003325      -0.003029       0.000000
      0.004390      -0.003049       0.000000
      0.004389      -0.001620       0.000000
      0.002255      -0.003010       0.000000
      0.002256      -0.004423       0.000000
      0.003324      -0.004449       0.000000
      0.003325      -0.003029       0.000000
      0.002256      -0.004423       0.000000
      0.002259      -0.005829       0.000000
      0.003325      -0.005865       0.000000
      0.003324      -0.004449       0.000000
      0.003325      -0.003029       0.000000
      0.003324      -0.004449       0.000000
      0.004389      -0.004476       0.000000
      0.004390      -0.003049       0.000000
      0.003324      -0.004449       0.000000
      0.003325      -0.005865       0.000000
      0.004389      -0.005901       0.000000
      0.004389      -0.004476       0.000000
      0.002259      -0.005829       0.000000
      0.002263      -0.007233       0.000000
      0.003327      -0.007278       0.000000
      0.003325      -0.005865       0.000000
      0.002263      -0.007233       0.000000
      0.002267      -0.008634       0.000000
      0.003330      -0.008689       0.000000
      0.003327      -0.007278       0.000000
      0.003325      -0.005865       0.000000
      0.003327      -0.007278       0.000000
      0.004390      -0.007322       0.000000
      0.004389      -0.005901       0.000000
      0.003327      -0.007278       0.000000
      0.003330      -0.008689       0.000000
      0.004392      -0.008742       0.000000
      0.004390      -0.007322       0.000000
      0.002267      -0.008634       0.000000
      0.002273      -0.010034       0.000000
      0.003334      -0.010098       0.000000
      0.003330      -0.008689       0.000000
      0.002273      -0.010034       0.000000
      0.002279      -0.011433       0.000000
      0.003339      -0.011506       0.000000
      0.003334      -0.010098       0.000000
      0.003330      -0.008689       0.000000
      0.003334      -0.010098       0.000000
      0.004394      -0.010161       0.000000
      0.004392      -0.008742       0.000000
      0.003334      -0.010098       0.000000
      0.003339      -0.011506       0.000000
      0.004397      -0.011578       0.000000
      0.004394      -0.010161       0.000000
      0.002279      -0.011433       0.000000
      0.002285      -0.012831       0.000000
      0.003344      -0.012912       0.000000
      0.003339      -0.011506       0.000000
      0.002285      -0.012831       0.000000
      0.002292      -0.014227       0.000000
      0.003350      -0.014317       0.000000
      0.003344      -0.012912       0.000000
      0.003339      -0.011506       0.000000
      0.003344      -0.012912       0.000000
      0.004401      -0.012993       0.000000
      0.004397      -0.011578       0.000000
      0.003344      -0.012912       0.000000
      0.003350      -0.014317       0.000000
      0.004406      -0.014407       0.000000
      0.004401      -0.012993       0.000000
      0.002292      -0.014227       0.000000
      0.002300      -0.015621       0.000000
      0.003356      -0.015720       0.000000
      0.003350      -0.014317       0.000000
      0.002300      -0.015621       0.000000
      0.002309      -0.017013       0.000000
      0.003363      -0.017122       0.000000
      0.003356      -0.015720       0.000000
      0.003350      -0.014317       0.000000
      0.003356      -0.015720       0.000000
      0.004411      -0.015819       0.000000
      0.004406      -0.014407       0.000000
      0.003356      -0.015720       0.000000
      0.003363      -0.017122       0.000000
      0.004417      -0.017229       0.000000
      0.004411      -0.015819       0.000000
      0.002309      -0.017013       0.000000
      0.002318      -0.018404       0.000000
      0.003371      -0.018521       0.000000
      0.003363      -0.017122       0.000000
      0.002318      -0.018404       0.000000
      0.002328      -0.019792       0.000000
      0.003379      -0.019918       0.000000
      0.003371      -0.018521       0.000000
      0.003363      -0.017122       0.000000
      0.003371      -0.018521       0.000000
      0.004423      -0.018638       0.000000
      0.004417      -0.017229       0.000000
      0.003371      -0.018521       0.000000
      0.003379      -0.019918       0.000000
      0.004429      -0.020043       0.000000
      0.004423      -0.018638       0.000000
      0.002328      -0.019792       0.000000
      0.002338      -0.021177       0.000000
      0.003388      -0.021312       0.000000
      0.003379      -0.019918       0.000000
      0.002338      -0.021177       0.000000
      0.002350      -0.022560       0.000000
      0.003398      -0.022703       0.000000
      0.003388      -0.021312       0.000000
      0.003379      -0.019918       0.000000
      0.003388      -0.021312       0.000000
      0.004437      -0.021446       0.000000
      0.004429      -0.020043       0.000000
      0.003388      -0.021312       0.000000
      0.003398      -0.022703       0.000000
      0.004445      -0.022846       0.000000
      0.004437      -0.021446       0.000000
      0.002350      -0.022560       0.000000
      0.002361      -0.023939       0.000000
      0.003408      -0.024091       0.000000
      0.003398      -0.022703       0.000000
      0.002361      -0.023939       0.000000
      0.002373      -0.025314       0.000000
      0.003419      -0.025475       0.000000
      0.003408      -0.024091       0.000000
      0.003398      -0.022703       0.000000
      0.003408      -0.024091       0.000000
      0.004454      -0.024243       0.000000
      0.004445      -0.022846       0.000000
      0.003408      -0.024091       0.000000
      0.003419      -0.025475       0.000000
      0.004464      -0.025636       0.000000
      0.004454      -0.024243       0.000000
      0.002373      -0.025314       0.000000
      0.002385      -0.026686       0.000000
      0.003430      -0.026855       0.000000
      0.003419      -0.025475       0.000000
      0.002385      -0.026686       0.000000
      0.002397      -0.028054       0.000000
      0.003443      -0.028232       0.000000
      0.003430      -0.026855       0.000000
      0.003419      -0.025475       0.000000
      0.003430      -0.026855       0.000000
      0.004475      -0.027025       0.000000
      0.004464      -0.025636       0.000000
      0.003430      -0.026855       0.000000
      0.003443      -0.028232       0.000000
      0.004488      -0.028411       0.000000
      0.004475      -0.027025       0.000000
      0.002397      -0.028054       0.000000
      0.002408      -0.029419       0.000000
      0.003456      -0.029605       0.000000
      0.003443      -0.028232       0.000000
      0.002408      -0.029419       0.000000
      0.002418      -0.030783       0.000000
      0.003469      -0.030976       0.000000
      0.003456      -0.029605       0.000000
      0.003443      -0.028232       0.000000
      0.003456      -0.029605       0.000000
      0.004503      -0.029793       0.000000
      0.004488      -0.028411       0.000000
      0.003456      -0.029605       0.000000
      0.003469      -0.030976       0.000000
      0.004519      -0.031172       0.000000
      0.004503      -0.029793       0.000000
      0.002418      -0.030783       0.000000
      0.002422      -0.031466       0.000000
      0.002948      -0.031563       0.000000
      0.002943      -0.030879       0.000000
      0.002422      -0.031466       0.000000
      0.002424      -0.032150       0.000000
      0.002951      -0.032249       0.000000
      0.002948      -0.031563       0.000000
      0.002943      -0.030879       0.000000
      0.002948      -0.031563       0.000000
      0.003475      -0.031662       0.000000
      0.003469      -0.030976       0.000000
      0.002948      -0.031563       0.000000
      0.002951      -0.032249       0.000000
      0.003480      -0.032348       0.000000
      0.003475      -0.031662       0.000000
      0.002424      -0.032150       0.000000
      0.002425      -0.032837       0.000000
      0.002952      -0.032938       0.000000
      0.002951      -0.032249       0.000000
      0.002425      -0.032837       0.000000
      0.002425      -0.033527       0.000000
      0.002952      -0.033632       0.000000
      0.002952      -0.032938       0.000000
      0.002951      -0.032249       0.000000
      0.002952      -0.032938       0.000000
      0.003482      -0.033038       0.000000
      0.003480      -0.032348       0.000000
      0.002952      -0.032938       0.000000
      0.002952      -0.033632       0.000000
      0.003482      -0.033735       0.000000
      0.003482      -0.033038       0.000000
      0.003469      -0.030976       0.000000
      0.003475      -0.031662       0.000000
      0.004002      -0.031761       0.000000
      0.003994      -0.031073       0.000000
      0.003475      -0.031662       0.000000
      0.003480      -0.032348       0.000000
      0.004010      -0.032448       0.000000
      0.004002      -0.031761       0.000000
      0.003994      -0.031073       0.000000
      0.004002      -0.031761       0.000000
      0.004529      -0.031860       0.000000
      0.004519      -0.031172       0.000000
      0.004002      -0.031761       0.000000
      0.004010      -0.032448       0.000000
      0.004540      -0.032549       0.000000
      0.004529      -0.031860       0.000000
      0.003480      -0.032348       0.000000
      0.003481      -0.032693       0.000000
      0.003747      -0.032743       0.000000
      0.003745      -0.032398       0.000000
      0.003481      -0.032693       0.000000
      0.003482      -0.033038       0.000000
      0.003749      -0.033088       0.000000
      0.003747      -0.032743       0.000000
      0.003745      -0.032398       0.000000
      0.003747      -0.032743       0.000000
      0.004013      -0.032793       0.000000
      0.004010      -0.032448       0.000000
      0.003747      -0.032743       0.000000
      0.003749      -0.033088       0.000000
      0.004016      -0.033138       0.000000
      0.004013      -0.032793       0.000000
      0.003482      -0.033038       0.000000
      0.003482      -0.033385       0.000000
      0.003749      -0.033436       0.000000
      0.003749      -0.033088       0.000000
      0.003482      -0.033385       0.000000
      0.003482      -0.033735       0.000000
      0.003748      -0.033787       0.000000
      0.003749      -0.033436       0.000000
      0.003749      -0.033088       0.000000
      0.003749      -0.033436       0.000000
      0.004017      -0.033485       0.000000