# vtk DataFile Version 2.0
time_10.vtk
ASCII
DATASET UNSTRUCTURED_GRID
POINTS  1152 float
      0.000000       0.000000       0.000000
      0.083333       0.000000       0.000000
      0.083333       0.083333       0.000000
      0.000000       0.083333       0.000000
      0.083333       0.000000       0.000000
      0.166667       0.000000       0.000000
      0.166667       0.083333       0.000000
      0.083333       0.083333       0.000000
      0.000000       0.083333       0.000000
      0.083333       0.083333       0.000000
      0.083333       0.166667       0.000000
      0.000000       0.166667       0.000000
      0.083333       0.083333       0.000000
      0.166667       0.083333       0.000000
      0.166667       0.166667       0.000000
      0.083333       0.166667       0.000000
      0.166667       0.000000       0.000000
      0.250000       0.000000       0.000000
      0.250000       0.083333       0.000000
      0.166667       0.083333       0.000000
      0.250000       0.000000       0.000000
      0.333333       0.000000       0.000000
      0.333333       0.083333       0.000000
      0.250000       0.083333       0.000000
      0.166667       0.083333       0.000000
      0.250000       0.083333       0.000000
      0.250000       0.166667       0.000000
      0.166667       0.166667       0.000000
      0.250000       0.083333       0.000000
      0.333333       0.083333       0.000000
      0.333333       0.166667       0.000000
      0.250000       0.166667       0.000000
      0.333333       0.000000       0.000000
      0.416667       0.000000       0.000000
      0.416667       0.083333       0.000000
      0.333333       0.083333       0.000000
      0.416667       0.000000       0.000000
      0.500000       0.000000       0.000000
      0.500000       0.083333       0.000000
      0.416667       0.083333       0.000000
      0.333333       0.083333       0.000000
      0.416667       0.083333       0.000000
      0.416667       0.166667       0.000000
      0.333333       0.166667       0.000000
      0.416667       0.083333       0.000000
      0.500000       0.083333       0.000000
      0.500000       0.166667       0.000000
      0.416667       0.166667       0.000000
      0.000000       0.166667       0.000000
      0.083333       0.166667       0.000000
      0.083333       0.250000       0.000000
      0.000000       0.250000       0.000000
      0.083333       0.166667       0.000000
      0.166667       0.166667       0.000000
      0.166667       0.250000       0.000000
      0.083333       0.250000       0.000000
      0.000000       0.250000       0.000000
      0.083333       0.250000       0.000000
      0.083333       0.333333       0.000000
      0.000000       0.333333       0.000000
      0.083333       0.250000       0.000000
      0.166667       0.250000       0.000000
      0.166667       0.333333       0.000000
      0.083333       0.333333       0.000000
      0.166667       0.166667       0.000000
      0.250000       0.166667       0.000000
      0.250000       0.250000       0.000000
      0.166667       0.250000       0.000000
      0.250000       0.166667       0.000000
      0.333333       0.166667       0.000000
      0.333333       0.250000       0.000000
      0.250000       0.250000       0.000000
      0.166667       0.250000       0.000000
      0.250000       0.250000       0.000000
      0.250000       0.333333       0.000000
      0.166667       0.333333       0.000000
      0.250000       0.250000       0.000000
      0.333333       0.250000       0.000000
      0.333333       0.333333       0.000000
      0.250000       0.333333       0.000000
      0.333333       0.166667       0.000000
      0.416667       0.166667       0.000000
      0.416667       0.250000       0.000000
      0.333333       0.250000       0.000000
      0.416667       0.166667       0.000000
      0.500000       0.166667       0.000000
      0.500000       0.250000       0.000000
      0.416667       0.250000       0.000000
      0.333333       0.250000       0.000000
      0.416667       0.250000       0.000000
      0.416667       0.333333       0.000000
      0.333333       0.333333       0.000000
      0.416667       0.250000       0.000000
      0.500000       0.250000       0.000000
      0.500000       0.333333       0.000000
      0.416667       0.333333       0.000000
      0.000000       0.333333       0.000000
      0.083333       0.333333       0.000000
      0.083333       0.416667       0.000000
      0.000000       0.416667       0.000000
      0.083333       0.333333       0.000000
      0.166667       0.333333       0.000000
      0.166667       0.416667       0.000000
      0.083333       0.416667       0.000000
      0.000000       0.416667       0.000000
      0.083333       0.416667       0.000000
      0.083333       0.500000       0.000000
      0.000000       0.500000       0.000000
      0.083333       0.416667       0.000000
      0.166667       0.416667       0.000000
      0.166667       0.500000       0.000000
      0.083333       0.500000       0.000000
      0.166667       0.333333       0.000000
      0.250000       0.333333       0.000000
      0.250000       0.416667       0.000000
      0.166667       0.416667       0.000000
      0.250000       0.333333       0.000000
      0.333333       0.333333       0.000000
      0.333333       0.416667       0.000000
      0.250000       0.416667       0.000000
      0.166667       0.416667       0.000000
      0.250000       0.416667       0.000000
      0.250000       0.500000       0.000000
      0.166667       0.500000       0.000000
      0.250000       0.416667       0.000000
      0.333333       0.416667       0.000000
      0.333333       0.500000       0.000000
      0.250000       0.500000       0.000000
      0.333333       0.333333       0.000000
      0.375000       0.333333       0.000000
      0.375000       0.375000       0.000000
      0.333333       0.375000       0.000000
      0.375000       0.333333       0.000000
      0.416667       0.333333       0.000000
      0.416667       0.375000       0.000000
      0.375000       0.375000       0.000000
      0.333333       0.375000       0.000000
      0.375000       0.375000       0.000000
      0.375000       0.416667       0.000000
      0.333333       0.416667       0.000000
      0.375000       0.375000       0.000000
      0.416667       0.375000       0.000000
      0.416667       0.416667       0.000000
      0.375000       0.416667       0.000000
      0.416667       0.333333       0.000000
      0.458333       0.333333       0.000000
      0.458333       0.375000       0.000000
      0.416667       0.375000       0.000000
      0.458333       0.333333       0.000000
      0.500000       0.333333       0.000000
      0.500000       0.375000       0.000000
      0.458333       0.375000       0.000000
      0.416667       0.375000       0.000000
      0.458333       0.375000       0.000000
      0.458333       0.416667       0.000000
      0.416667       0.416667       0.000000
      0.458333       0.375000       0.000000
      0.500000       0.375000       0.000000
      0.500000       0.416667       0.000000
      0.458333       0.416667       0.000000
      0.333333       0.416667       0.000000
      0.375000       0.416667       0.000000
      0.375000       0.458333       0.000000
      0.333333       0.458333       0.000000
      0.375000       0.416667       0.000000
      0.416667       0.416667       0.000000
      0.416667       0.458333       0.000000
      0.375000       0.458333       0.000000
      0.333333       0.458333       0.000000
      0.375000       0.458333       0.000000
      0.375000       0.500000       0.000000
      0.333333       0.500000       0.000000
      0.375000       0.458333       0.000000
      0.416667       0.458333       0.000000
      0.416667       0.500000       0.000000
      0.375000       0.500000       0.000000
      0.416667       0.416667       0.000000
      0.437500       0.416667       0.000000
      0.437500       0.437500       0.000000
      0.416667       0.437500       0.000000
      0.437500       0.416667       0.000000
      0.458333       0.416667       0.000000
      0.458333       0.437500       0.000000
      0.437500       0.437500       0.000000
      0.416667       0.437500       0.000000
      0.437500       0.437500       0.000000
      0.437500       0.458333       0.000000
      0.416667       0.458333       0.000000
      0.437500       0.437500       0.000000
      0.458333       0.437500       0.000000
      0.458333       0.458333       0.000000
      0.437500       0.458333       0.000000
      0.458333       0.416667       0.000000
      0.479167       0.416667       0.000000
      0.479167       0.437500       0.000000
      0.458333       0.437500       0.000000
      0.479167       0.416667       0.000000
      0.500000       0.416667       0.000000
      0.500000       0.437500       0.000000
      0.479167       0.437500       0.000000
      0.458333       0.437500       0.000000
      0.479167       0.437500       0.000000
      0.479167       0.458333       0.000000
      0.458333       0.458333       0.000000
      0.479167       0.437500       0.000000
      0.500000       0.437500       0.000000
      0.500000       0.458333       0.000000
      0.479167       0.458333       0.000000
      0.416667       0.458333       0.000000
      0.437500       0.458333       0.000000
      0.437500       0.479167       0.000000
      0.416667       0.479167       0.000000
      0.437500       0.458333       0.000000
      0.458333       0.458333       0.000000
      0.458333       0.479167       0.000000
      0.437500       0.479167       0.000000
      0.416667       0.479167       0.000000
      0.437500       0.479167       0.000000
      0.437500       0.500000       0.000000
      0.416667       0.500000       0.000000
[...]
POINT_DATA  1152
VECTORS U float 
      0.000000       0.000000       0.000000
      0.000000       0.000000       0.000000
      0.000073      -0.000016       0.000000
      0.000053      -0.000018       0.000000
      0.000000       0.000000       0.000000
      0.000000       0.000000       0.000000
      0.000093       0.000014       0.000000
      0.000073      -0.000016       0.000000
      0.000053      -0.000018       0.000000
      0.000073      -0.000016       0.000000
      0.000079      -0.000044       0.000000
      0.000054      -0.000089       0.000000
      0.000073      -0.000016       0.000000
      0.000093       0.000014       0.000000
      0.000102       0.000017       0.000000
      0.000079      -0.000044       0.000000
      0.000000       0.000000       0.000000
      0.000000       0.000000       0.000000
      0.000111       0.000055       0.000000
      0.000093       0.000014       0.000000
      0.000000       0.000000       0.000000
      0.000000       0.000000       0.000000
      0.000122       0.000108       0.000000
      0.000111       0.000055       0.000000
      0.000093       0.000014       0.000000
      0.000111       0.000055       0.000000
      0.000126       0.000099       0.000000
      0.000102       0.000017       0.000000
      0.000111       0.000055       0.000000
      0.000122       0.000108       0.000000
      0.000141       0.000212       0.000000
      0.000126       0.000099       0.000000
      0.000000       0.000000       0.000000
      0.000000       0.000000       0.000000
      0.000114       0.000173       0.000000
      0.000122       0.000108       0.000000
      0.000000       0.000000       0.000000
      0.000000       0.000000       0.000000
      0.000079       0.000241       0.000000
      0.000114       0.000173       0.000000
      0.000122       0.000108       0.000000
      0.000114       0.000173       0.000000
      0.000127       0.000358       0.000000
      0.000141       0.000212       0.000000
      0.000114       0.000173       0.000000
      0.000079       0.000241       0.000000
      0.000065       0.000518       0.000000
      0.000127       0.000358       0.000000
      0.000054      -0.000089       0.000000
      0.000079      -0.000044       0.000000
      0.000004      -0.000075       0.000000
     -0.000019      -0.000167       0.000000
      0.000079      -0.000044       0.000000
      0.000102       0.000017       0.000000
      0.000025       0.000014       0.000000
      0.000004      -0.000075       0.000000
     -0.000019      -0.000167       0.000000
      0.000004      -0.000075       0.000000
     -0.000138      -0.000102       0.000000
     -0.000153      -0.000227       0.000000
      0.000004      -0.000075       0.000000
      0.000025       0.000014       0.000000
     -0.000126       0.000006       0.000000
     -0.000138      -0.000102       0.000000
      0.000102       0.000017       0.000000
      0.000126       0.000099       0.000000
      0.000051       0.000130       0.000000
      0.000025       0.000014       0.000000
      0.000126       0.000099       0.000000
      0.000141       0.000212       0.000000
      0.000071       0.000303       0.000000
      0.000051       0.000130       0.000000
      0.000025       0.000014       0.000000
      0.000051       0.000130       0.000000
     -0.000111       0.000145       0.000000
     -0.000126       0.000006       0.000000
      0.000051       0.000130       0.000000
      0.000071       0.000303       0.000000
     -0.000090       0.000366       0.000000
     -0.000111       0.000145       0.000000
      0.000141       0.000212       0.000000
      0.000127       0.000358       0.000000
      0.000060       0.000548       0.000000
      0.000071       0.000303       0.000000
      0.000127       0.000358       0.000000
      0.000065       0.000518       0.000000
     -0.000020       0.000831       0.000000
      0.000060       0.000548       0.000000
      0.000071       0.000303       0.000000
      0.000060       0.000548       0.000000
     -0.000086       0.000721       0.000000
     -0.000090       0.000366       0.000000
      0.000060       0.000548       0.000000
     -0.000020       0.000831       0.000000
     -0.000171       0.001184       0.000000
     -0.000086       0.000721       0.000000
     -0.000153      -0.000227       0.000000
     -0.000138      -0.000102       0.000000
     -0.000313      -0.000116       0.000000
     -0.000315      -0.000254       0.000000
     -0.000138      -0.000102       0.000000
     -0.000126       0.000006       0.000000
     -0.000322       0.000003       0.000000
     -0.000313      -0.000116       0.000000
     -0.000315      -0.000254       0.000000
     -0.000313      -0.000116       0.000000
     -0.000471      -0.000115       0.000000
     -0.000469      -0.000256       0.000000
     -0.000313      -0.000116       0.000000
     -0.000322       0.000003       0.000000
     -0.000500       0.000017       0.000000
     -0.000471      -0.000115       0.000000
     -0.000126       0.000006       0.000000
     -0.000111       0.000145       0.000000
     -0.000342       0.000151       0.000000
     -0.000322       0.000003       0.000000
     -0.000111       0.000145       0.000000
     -0.000090       0.000366       0.000000
     -0.000360       0.000393       0.000000
     -0.000342       0.000151       0.000000
     -0.000322       0.000003       0.000000
     -0.000342       0.000151       0.000000
     -0.000577       0.000178       0.000000
     -0.000500       0.000017       0.000000
     -0.000342       0.000151       0.000000
     -0.000360       0.000393       0.000000
     -0.000710       0.000430       0.000000
     -0.000577       0.000178       0.000000
     -0.000090       0.000366       0.000000
     -0.000082       0.000526       0.000000
     -0.000203       0.000560       0.000000
     -0.000211       0.000383       0.000000
     -0.000082       0.000526       0.000000
     -0.000086       0.000721       0.000000
     -0.000200       0.000791       0.000000
     -0.000203       0.000560       0.000000
     -0.000211       0.000383       0.000000
     -0.000203       0.000560       0.000000
     -0.000364       0.000580       0.000000
     -0.000360       0.000393       0.000000
     -0.000203       0.000560       0.000000
     -0.000200       0.000791       0.000000
     -0.000361       0.000838       0.000000
     -0.000364       0.000580       0.000000
     -0.000086       0.000721       0.000000
     -0.000112       0.000948       0.000000
     -0.000218       0.001074       0.000000
     -0.000200       0.000791       0.000000
     -0.000112       0.000948       0.000000
     -0.000171       0.001184       0.000000
     -0.000279       0.001383       0.000000
     -0.000218       0.001074       0.000000
     -0.000200       0.000791       0.000000
     -0.000218       0.001074       0.000000
     -0.000365       0.001187       0.000000
     -0.000361       0.000838       0.000000
     -0.000218       0.001074       0.000000
     -0.000279       0.001383       0.000000
     -0.000421       0.001606       0.000000
     -0.000365       0.001187       0.000000
     -0.000360       0.000393       0.000000
     -0.000364       0.000580       0.000000
     -0.000570       0.000594       0.000000
     -0.000534       0.000405       0.000000
     -0.000364       0.000580       0.000000
     -0.000361       0.000838       0.000000
     -0.000595       0.000860       0.000000
     -0.000570       0.000594       0.000000
     -0.000534       0.000405       0.000000
     -0.000570       0.000594       0.000000
     -0.000799       0.000621       0.000000
     -0.000710       0.000430       0.000000
     -0.000570       0.000594       0.000000
     -0.000595       0.000860       0.000000
     -0.000906       0.000887       0.000000
     -0.000799       0.000621       0.000000
     -0.000361       0.000838       0.000000
     -0.000360       0.001000       0.000000
     -0.000465       0.001024       0.000000
     -0.000467       0.000851       0.000000
     -0.000360       0.001000       0.000000
     -0.000365       0.001187       0.000000
     -0.000465       0.001232       0.000000
     -0.000465       0.001024       0.000000
     -0.000467       0.000851       0.000000
     -0.000465       0.001024       0.000000
     -0.000600       0.001038       0.000000
     -0.000595       0.000860       0.000000
     -0.000465       0.001024       0.000000
     -0.000465       0.001232       0.000000
     -0.000598       0.001262       0.000000
     -0.000600       0.001038       0.000000
     -0.000365       0.001187       0.000000
     -0.000383       0.001394       0.000000
     -0.000476       0.001475       0.000000
     -0.000465       0.001232       0.000000
     -0.000383       0.001394       0.000000
     -0.000421       0.001606       0.000000
     -0.000513       0.001735       0.000000
     -0.000476       0.001475       0.000000
     -0.000465       0.001232       0.000000
     -0.000476       0.001475       0.000000
     -0.000597       0.001549       0.000000
     -0.000598       0.001262       0.000000
     -0.000476       0.001475       0.000000
     -0.000513       0.001735       0.000000
     -0.000630       0.001886       0.000000
     -0.000597       0.001549       0.000000
     -0.000595       0.000860       0.000000
     -0.000600       0.001038       0.000000
     -0.000771       0.001047       0.000000
     -0.000745       0.000869       0.000000
     -0.000600       0.001038       0.000000
     -0.000598       0.001262       0.000000
     -0.000786       0.001275       0.000000
     -0.000771       0.001047       0.000000
     -0.000745       0.000869       0.000000
     -0.000771       0.001047       0.000000
     -0.000967       0.001065       0.000000
     -0.000906       0.000887       0.000000
     -0.000771       0.001047       0.000000
     -0.000786       0.001275       0.000000
     -0.001037       0.001292       0.000000
     -0.000967       0.001065       0.000000
     -0.000598       0.001262       0.000000
     -0.000596       0.001397       0.000000
     -0.000680       0.001412       0.000000
     -0.000683       0.001270       0.000000
     -0.000596       0.001397       0.000000
     -0.000597       0.001549       0.000000
     -0.000676       0.001579       0.000000
     -0.000680       0.001412       0.000000
     -0.000683       0.001270       0.000000
     -0.000680       0.001412       0.000000
     -0.000786       0.001420       0.000000
     -0.000786       0.001275       0.000000
     -0.000680       0.001412       0.000000
     -0.000676       0.001579       0.000000
     -0.000780       0.001600       0.000000
     -0.000786       0.001420       0.000000
     -0.000597       0.001549       0.000000
     -0.000607       0.001715       0.000000
     -0.000680       0.001773       0.000000
     -0.000676       0.001579       0.000000
     -0.000607       0.001715       0.000000
     -0.000630       0.001886       0.000000
     -0.000703       0.001979       0.000000
     -0.000680       0.001773       0.000000
     -0.000676       0.001579       0.000000
     -0.000680       0.001773       0.000000
     -0.000773       0.001828       0.000000
     -0.000780       0.001600       0.000000
     -0.000680       0.001773       0.000000
     -0.000703       0.001979       0.000000
     -0.000794       0.002097       0.000000
     -0.000773       0.001828       0.000000
     -0.000786       0.001275       0.000000
     -0.000786       0.001420       0.000000
     -0.000920       0.001425       0.000000
     -0.000906       0.001281       0.000000
     -0.000786       0.001420       0.000000
     -0.000780       0.001600       0.000000
     -0.000926       0.001607       0.000000
     -0.000920       0.001425       0.000000
     -0.000906       0.001281       0.000000
     -0.000920       0.001425       0.000000
     -0.001077       0.001437       0.000000
     -0.001037       0.001292       0.000000
     -0.000920       0.001425       0.000000
     -0.000926       0.001607       0.000000
     -0.001126       0.001620       0.000000
     -0.001077       0.001437       0.000000
     -0.000780       0.001600       0.000000
     -0.000773       0.001828       0.000000
     -0.000912       0.001869       0.000000
     -0.000926       0.001607       0.000000
     -0.000773       0.001828       0.000000
     -0.000794       0.002097       0.000000
     -0.000923       0.002279       0.000000
     -0.000912       0.001869       0.000000
     -0.000926       0.001607       0.000000
     -0.000912       0.001869       0.000000
     -0.001194       0.001894       0.000000
     -0.001126       0.001620       0.000000
     -0.000912       0.001869       0.000000
     -0.000923       0.002279       0.000000
     -0.001299       0.002839       0.000000
     -0.001194       0.001894       0.000000
      0.000000       0.000000       0.000000
      0.000000       0.000000       0.000000
      0.000018       0.000302       0.000000
      0.000079       0.000241       0.000000
      0.000000       0.000000       0.000000
      0.000000       0.000000       0.000000
     -0.000063       0.000350       0.000000
      0.000018       0.000302       0.000000
      0.000079       0.000241       0.000000
      0.000018       0.000302       0.000000
     -0.000047       0.000661       0.000000
      0.000065       0.000518       0.000000
      0.000018       0.000302       0.000000
     -0.000063       0.000350       0.000000
     -0.000196       0.000767       0.000000
     -0.000047       0.000661       0.000000
      0.000000       0.000000       0.000000
      0.000000       0.000000       0.000000
     -0.000156       0.000387       0.000000
     -0.000063       0.000350       0.000000
      0.000000       0.000000       0.000000
      0.000000       0.000000       0.000000
     -0.000264       0.000429       0.000000
     -0.000156       0.000387       0.000000
     -0.000063       0.000350       0.000000
     -0.000156       0.000387       0.000000
     -0.000365       0.000846       0.000000
     -0.000196       0.000767       0.000000
     -0.000156       0.000387       0.000000
     -0.000264       0.000429       0.000000
     -0.000550       0.000928       0.000000
     -0.000365       0.000846       0.000000
      0.000000       0.000000       0.000000
      0.000000       0.000000       0.000000
     -0.000412       0.000518       0.000000
     -0.000264       0.000429       0.000000
      0.000000       0.000000       0.000000
      0.000000       0.000000       0.000000
     -0.000639       0.000782       0.000000
     -0.000412       0.000518       0.000000
     -0.000264       0.000429       0.000000
     -0.000412       0.000518       0.000000
     -0.000757       0.001064       0.000000
     -0.000550       0.000928       0.000000
     -0.000412       0.000518       0.000000
     -0.000639       0.000782       0.000000
     -0.000973       0.001299       0.000000
     -0.000757       0.001064       0.000000
      0.000065       0.000518       0.000000
     -0.000047       0.000661       0.000000
     -0.000180       0.001079       0.000000
     -0.000020       0.000831       0.000000
     -0.000047       0.000661       0.000000
     -0.000196       0.000767       0.000000
     -0.000385       0.001248       0.000000
     -0.000180       0.001079       0.000000
     -0.000020       0.000831       0.000000
     -0.000180       0.001079       0.000000
     -0.000381       0.001575       0.000000
     -0.000171       0.001184       0.000000
     -0.000180       0.001079       0.000000
     -0.000385       0.001248       0.000000
     -0.000623       0.001784       0.000000
     -0.000381       0.001575       0.000000
     -0.000196       0.000767       0.000000
     -0.000365       0.000846       0.000000
     -0.000600       0.001354       0.000000
     -0.000385       0.001248       0.000000
     -0.000365       0.000846       0.000000
     -0.000550       0.000928       0.000000
     -0.000815       0.001447       0.000000
     -0.000600       0.001354       0.000000
     -0.000385       0.001248       0.000000
     -0.000600       0.001354       0.000000
     -0.000841       0.001882       0.000000
     -0.000623       0.001784       0.000000
     -0.000600       0.001354       0.000000
     -0.000815       0.001447       0.000000
     -0.001046       0.001954       0.000000
     -0.000841       0.001882       0.000000
     -0.000550       0.000928       0.000000
     -0.000757       0.001064       0.000000
     -0.001028       0.001573       0.000000
     -0.000815       0.001447       0.000000
     -0.000757       0.001064       0.000000
     -0.000973       0.001299       0.000000
     -0.001229       0.001764       0.000000
     -0.001028       0.001573       0.000000
     -0.000815       0.001447       0.000000
     -0.001028       0.001573       0.000000
     -0.001244       0.002048       0.000000
     -0.001046       0.001954       0.000000
     -0.001028       0.001573       0.000000
     -0.001229       0.001764       0.000000
     -0.001430       0.002189       0.000000
     -0.001244       0.002048       0.000000
     -0.000623       0.001784       0.000000
     -0.000841       0.001882       0.000000
     -0.001046       0.002392       0.000000
     -0.000885       0.002340       0.000000
     -0.000841       0.001882       0.000000
     -0.001046       0.001954       0.000000
     -0.001215       0.002436       0.000000
     -0.001046       0.002392       0.000000
     -0.000885       0.002340       0.000000
     -0.001046       0.002392       0.000000
     -0.001140       0.002864       0.000000
     -0.001032       0.002845       0.000000
     -0.001046       0.002392       0.000000
     -0.001215       0.002436       0.000000
     -0.001288       0.002893       0.000000
     -0.001140       0.002864       0.000000
     -0.001046       0.001954       0.000000
     -0.001244       0.002048       0.000000
     -0.001394       0.002495       0.000000
     -0.001215       0.002436       0.000000
     -0.001244       0.002048       0.000000
     -0.001430       0.002189       0.000000
     -0.001567       0.002580       0.000000
     -0.001394       0.002495       0.000000
     -0.001215       0.002436       0.000000
     -0.001394       0.002495       0.000000
     -0.001459       0.002926       0.000000
     -0.001288       0.002893       0.000000
     -0.001394       0.002495       0.000000
     -0.001567       0.002580       0.000000
     -0.001629       0.002953       0.000000
     -0.001459       0.002926       0.000000
     -0.000171       0.001184       0.000000
     -0.000265       0.001401       0.000000
     -0.000387       0.001661       0.000000
     -0.000279       0.001383       0.000000
     -0.000265       0.001401       0.000000
     -0.000381       0.001575       0.000000
     -0.000518       0.001864       0.000000
     -0.000387       0.001661       0.000000
     -0.000279       0.001383       0.000000
     -0.000387       0.001661       0.000000
     -0.000551       0.001971       0.000000
     -0.000421       0.001606       0.000000
     -0.000387       0.001661       0.000000
     -0.000518       0.001864       0.000000
     -0.000690       0.002186       0.000000
     -0.000551       0.001971       0.000000
     -0.000381       0.001575       0.000000
     -0.000504       0.001700       0.000000
     -0.000644       0.001991       0.000000
     -0.000518       0.001864       0.000000
     -0.000504       0.001700       0.000000
     -0.000623       0.001784       0.000000
     -0.000756       0.002064       0.000000
     -0.000644       0.001991       0.000000
     -0.000518       0.001864       0.000000
     -0.000644       0.001991       0.000000
     -0.000798       0.002290       0.000000