# vtk DataFile Version 2.0
time_10.vtk
ASCII
DATASET UNSTRUCTURED_GRID
POINTS  1152 float
      0.000000       0.000000       0.000000
      0.083333       0.000000       0.000000
      0.083333       0.083333       0.000000
      0.000000       0.083333       0.000000
      0.083333       0.000000       0.000000
      0.166667       0.000000       0.000000
      0.166667       0.083333       0.000000
      0.083333       0.083333       0.000000
      0.000000       0.083333       0.000000
      0.083333       0.083333       0.000000
      0.083333       0.166667       0.000000
      0.000000       0.166667       0.000000
      0.083333       0.083333       0.000000
      0.166667       0.083333       0.000000
      0.166667       0.166667       0.000000
      0.083333       0.166667       0.000000
      0.166667       0.000000       0.000000
      0.250000       0.000000       0.000000
      0.250000       0.083333       0.000000
      0.166667       0.083333       0.000000
      0.250000       0.000000       0.000000
      0.333333       0.000000       0.000000
      0.333333       0.083333       0.000000
      0.250000       0.083333       0.000000
      0.166667       0.083333       0.000000
      0.250000       0.083333       0.000000
      0.250000       0.166667       0.000000
      0.166667       0.166667       0.000000
      0.250000       0.083333       0.000000
      0.333333       0.083333       0.000000
      0.333333       0.166667       0.000000
      0.250000       0.166667       0.000000
      0.333333       0.000000       0.000000
      0.416667      -0.000000       0.000000
      0.416667       0.083333       0.000000
      0.333333       0.083333       0.000000
      0.416667      -0.000000       0.000000
      0.500000       0.000000       0.000000
      0.500000       0.083333       0.000000
      0.416667       0.083333       0.000000
      0.333333       0.083333       0.000000
      0.416667       0.083333       0.000000
      0.416667       0.166667       0.000000
      0.333333       0.166667       0.000000
      0.416667       0.083333       0.000000
      0.500000       0.083333       0.000000
      0.500000       0.166667       0.000000
      0.416667       0.166667       0.000000
      0.000000       0.166667       0.000000
      0.083333       0.166667       0.000000
      0.083333       0.250000       0.000000
      0.000000       0.250000       0.000000
      0.083333       0.166667       0.000000
      0.166667       0.166667       0.000000
      0.166667       0.250000       0.000000
      0.083333       0.250000       0.000000
      0.000000       0.250000       0.000000
      0.083333       0.250000       0.000000
      0.083333       0.333333       0.000000
      0.000000       0.333333       0.000000
      0.083333       0.250000       0.000000
      0.166667       0.250000       0.000000
      0.166667       0.333333       0.000000
      0.083333       0.333333       0.000000
      0.166667       0.166667       0.000000
      0.250000       0.166667       0.000000
      0.250000       0.250000       0.000000
      0.166667       0.250000       0.000000
      0.250000       0.166667       0.000000
      0.333333       0.166667       0.000000
      0.333333       0.250000       0.000000
      0.250000       0.250000       0.000000
      0.166667       0.250000       0.000000
      0.250000       0.250000       0.000000
      0.250000       0.333333       0.000000
      0.166667       0.333333       0.000000
      0.250000       0.250000       0.000000
      0.333333       0.250000       0.000000
      0.333333       0.333333       0.000000
      0.250000       0.333333       0.000000
      0.333333       0.166667       0.000000
      0.416667       0.166667       0.000000
      0.416667       0.250000       0.000000
      0.333333       0.250000       0.000000
      0.416667       0.166667       0.000000
      0.500000       0.166667       0.000000
      0.500000       0.250000       0.000000
      0.416667       0.250000       0.000000
      0.333333       0.250000       0.000000
      0.416667       0.250000       0.000000
      0.416667       0.333333       0.000000
      0.333333       0.333333       0.000000
      0.416667       0.250000       0.000000
      0.500000       0.250000       0.000000
      0.500000       0.333333       0.000000
      0.416667       0.333333       0.000000
      0.000000       0.333333       0.000000
      0.083333       0.333333       0.000000
      0.083333       0.416667       0.000000
     -0.000000       0.416667       0.000000
      0.083333       0.333333       0.000000
      0.166667       0.333333       0.000000
      0.166667       0.416667       0.000000
      0.083333       0.416667       0.000000
     -0.000000       0.416667       0.000000
      0.083333       0.416667       0.000000
      0.083333       0.500000       0.000000
      0.000000       0.500000       0.000000
      0.083333       0.416667       0.000000
      0.166667       0.416667       0.000000
      0.166667       0.500000       0.000000
      0.083333       0.500000       0.000000
      0.166667       0.333333       0.000000
      0.250000       0.333333       0.000000
      0.250000       0.416667       0.000000
      0.166667       0.416667       0.000000
      0.250000       0.333333       0.000000
      0.333333       0.333333       0.000000
      0.333333       0.416667       0.000000
      0.250000       0.416667       0.000000
      0.166667       0.416667       0.000000
      0.250000       0.416667       0.000000
      0.250000       0.500000       0.000000
      0.166667       0.500000       0.000000
      0.250000       0.416667       0.000000
      0.333333       0.416667       0.000000
      0.333333       0.500000       0.000000
      0.250000       0.500000       0.000000
      0.333333       0.333333       0.000000
      0.375000       0.333333       0.000000
      0.375000       0.375000       0.000000
      0.333333       0.375000       0.000000
      0.375000       0.333333       0.000000
      0.416667       0.333333       0.000000
      0.416667       0.375000       0.000000
      0.375000       0.375000       0.000000
      0.333333       0.375000       0.000000
      0.375000       0.375000       0.000000
      0.375000       0.416667       0.000000
      0.333333       0.416667       0.000000
      0.375000       0.375000       0.000000
      0.416667       0.375000       0.000000
      0.416667       0.416667       0.000000
      0.375000       0.416667       0.000000
      0.416667       0.333333       0.000000
      0.458333       0.333333       0.000000
      0.458333       0.375000       0.000000
      0.416667       0.375000       0.000000
      0.458333       0.333333       0.000000
      0.500000       0.333333       0.000000
      0.500000       0.375000       0.000000
      0.458333       0.375000       0.000000
      0.416667       0.375000       0.000000
      0.458333       0.375000       0.000000
      0.458333       0.416667       0.000000
      0.416667       0.416667       0.000000
      0.458333       0.375000       0.000000
      0.500000       0.375000       0.000000
      0.500000       0.416667       0.000000
      0.458333       0.416667       0.000000
      0.333333       0.416667       0.000000
      0.375000       0.416667       0.000000
      0.375000       0.458333       0.000000
      0.333333       0.458333       0.000000
      0.375000       0.416667       0.000000
      0.416667       0.416667       0.000000
      0.416667       0.458333       0.000000
      0.375000       0.458333       0.000000
      0.333333       0.458333       0.000000
      0.375000       0.458333       0.000000
      0.375000       0.500000       0.000000
      0.333333       0.500000       0.000000
      0.375000       0.458333       0.000000
      0.416667       0.458333       0.000000
      0.416667       0.500000       0.000000
      0.375000       0.500000       0.000000
      0.416667       0.416667       0.000000
      0.437500       0.416667       0.000000
      0.437500       0.437500       0.000000
      0.416667       0.437500       0.000000
      0.437500       0.416667       0.000000
      0.458333       0.416667       0.000000
      0.458333       0.437500       0.000000
      0.437500       0.437500       0.000000
      0.416667       0.437500       0.000000
      0.437500       0.437500       0.000000
      0.437500       0.458333       0.000000
      0.416667       0.458333       0.000000
      0.437500       0.437500       0.000000
      0.458333       0.437500       0.000000
      0.458333       0.458333       0.000000
      0.437500       0.458333       0.000000
      0.458333       0.416667       0.000000
      0.479167       0.416667       0.000000
      0.479167       0.437500       0.000000
      0.458333       0.437500       0.000000
      0.479167       0.416667       0.000000
      0.500000       0.416667       0.000000
      0.500000       0.437500       0.000000
      0.479167       0.437500       0.000000
      0.458333       0.437500       0.000000
      0.479167       0.437500       0.000000
      0.479167       0.458333       0.000000
      0.458333       0.458333       0.000000
      0.479167       0.437500       0.000000
      0.500000       0.437500       0.000000
      0.500000       0.458333       0.000000
      0.479167       0.458333       0.000000
      0.416667       0.458333       0.000000
      0.437500       0.458333       0.000000
      0.437500       0.479167       0.000000
      0.416667       0.479167       0.000000
      0.437500       0.458333       0.000000
      0.458333       0.458333       0.000000
      0.458333       0.479167       0.000000
      0.437500       0.479167       0.000000
      0.416667       0.479167       0.000000
      0.437500       0.479167       0.000000
      0.437500       0.500000       0.000000
      0.416667       0.500000       0.000000
[...]
POINT_DATA  1152
VECTORS U float 
      0.000000       0.000000       0.000000
      0.000000       0.000000       0.000000
      0.000065      -0.000010       0.000000
      0.000051      -0.000008       0.000000
      0.000000       0.000000       0.000000
      0.000000       0.000000       0.000000
      0.000081       0.000014       0.000000
      0.000065      -0.000010       0.000000
      0.000051      -0.000008       0.000000
      0.000065      -0.000010       0.000000
      0.000076      -0.000029       0.000000
      0.000056      -0.000062       0.000000
      0.000065      -0.000010       0.000000
      0.000081       0.000014       0.000000
      0.000094       0.000019       0.000000
      0.000076      -0.000029       0.000000
      0.000000       0.000000       0.000000
      0.000000       0.000000       0.000000
      0.000095       0.000047       0.000000
      0.000081       0.000014       0.000000
      0.000000       0.000000       0.000000
      0.000000       0.000000       0.000000
      0.000102       0.000090       0.000000
      0.000095       0.000047       0.000000
      0.000081       0.000014       0.000000
      0.000095       0.000047       0.000000
      0.000112       0.000086       0.000000
      0.000094       0.000019       0.000000
      0.000095       0.000047       0.000000
      0.000102       0.000090       0.000000
      0.000122       0.000178       0.000000
      0.000112       0.000086       0.000000
      0.000000       0.000000       0.000000
      0.000000       0.000000       0.000000
      0.000094       0.000142       0.000000
      0.000102       0.000090       0.000000
      0.000000       0.000000       0.000000
      0.000000       0.000000       0.000000
      0.000064       0.000196       0.000000
      0.000094       0.000142       0.000000
      0.000102       0.000090       0.000000
      0.000094       0.000142       0.000000
      0.000108       0.000296       0.000000
      0.000122       0.000178       0.000000
      0.000094       0.000142       0.000000
      0.000064       0.000196       0.000000
      0.000055       0.000422       0.000000
      0.000108       0.000296       0.000000
      0.000056      -0.000062       0.000000
      0.000076      -0.000029       0.000000
      0.000020      -0.000052       0.000000
      0.000002      -0.000125       0.000000
      0.000076      -0.000029       0.000000
      0.000094       0.000019       0.000000
      0.000037       0.000019       0.000000
      0.000020      -0.000052       0.000000
      0.000002      -0.000125       0.000000
      0.000020      -0.000052       0.000000
     -0.000091      -0.000073       0.000000
     -0.000103      -0.000173       0.000000
      0.000020      -0.000052       0.000000
      0.000037       0.000019       0.000000
     -0.000082       0.000014       0.000000
     -0.000091      -0.000073       0.000000
      0.000094       0.000019       0.000000
      0.000112       0.000086       0.000000
      0.000057       0.000114       0.000000
      0.000037       0.000019       0.000000
      0.000112       0.000086       0.000000
      0.000122       0.000178       0.000000
      0.000073       0.000257       0.000000
      0.000057       0.000114       0.000000
      0.000037       0.000019       0.000000
      0.000057       0.000114       0.000000
     -0.000068       0.000128       0.000000
     -0.000082       0.000014       0.000000
      0.000057       0.000114       0.000000
      0.000073       0.000257       0.000000
     -0.000051       0.000311       0.000000
     -0.000068       0.000128       0.000000
      0.000122       0.000178       0.000000
      0.000108       0.000296       0.000000
      0.000060       0.000455       0.000000
      0.000073       0.000257       0.000000
      0.000108       0.000296       0.000000
      0.000055       0.000422       0.000000
     -0.000009       0.000677       0.000000
      0.000060       0.000455       0.000000
      0.000073       0.000257       0.000000
      0.000060       0.000455       0.000000
     -0.000049       0.000603       0.000000
     -0.000051       0.000311       0.000000
      0.000060       0.000455       0.000000
     -0.000009       0.000677       0.000000
     -0.000124       0.000969       0.000000
     -0.000049       0.000603       0.000000
     -0.000103      -0.000173       0.000000
     -0.000091      -0.000073       0.000000
     -0.000231      -0.000084       0.000000
     -0.000233      -0.000195       0.000000
     -0.000091      -0.000073       0.000000
     -0.000082       0.000014       0.000000
     -0.000238       0.000012       0.000000
     -0.000231      -0.000084       0.000000
     -0.000233      -0.000195       0.000000
     -0.000231      -0.000084       0.000000
     -0.000358      -0.000083       0.000000
     -0.000356      -0.000197       0.000000
     -0.000231      -0.000084       0.000000
     -0.000238       0.000012       0.000000
     -0.000382       0.000023       0.000000
     -0.000358      -0.000083       0.000000
     -0.000082       0.000014       0.000000
     -0.000068       0.000128       0.000000
     -0.000252       0.000133       0.000000
     -0.000238       0.000012       0.000000
     -0.000068       0.000128       0.000000
     -0.000051       0.000311       0.000000
     -0.000265       0.000334       0.000000
     -0.000252       0.000133       0.000000
     -0.000238       0.000012       0.000000
     -0.000252       0.000133       0.000000
     -0.000443       0.000154       0.000000
     -0.000382       0.000023       0.000000
     -0.000252       0.000133       0.000000
     -0.000265       0.000334       0.000000
     -0.000550       0.000363       0.000000
     -0.000443       0.000154       0.000000
     -0.000051       0.000311       0.000000
     -0.000045       0.000443       0.000000
     -0.000138       0.000473       0.000000
     -0.000145       0.000326       0.000000
     -0.000045       0.000443       0.000000
     -0.000049       0.000603       0.000000
     -0.000136       0.000663       0.000000
     -0.000138       0.000473       0.000000
     -0.000145       0.000326       0.000000
     -0.000138       0.000473       0.000000
     -0.000265       0.000490       0.000000
     -0.000265       0.000334       0.000000
     -0.000138       0.000473       0.000000
     -0.000136       0.000663       0.000000
     -0.000260       0.000705       0.000000
     -0.000265       0.000490       0.000000
     -0.000049       0.000603       0.000000
     -0.000073       0.000785       0.000000
     -0.000153       0.000894       0.000000
     -0.000136       0.000663       0.000000
     -0.000073       0.000785       0.000000
     -0.000124       0.000969       0.000000
     -0.000206       0.001136       0.000000
     -0.000153       0.000894       0.000000
     -0.000136       0.000663       0.000000
     -0.000153       0.000894       0.000000
     -0.000263       0.000994       0.000000
     -0.000260       0.000705       0.000000
     -0.000153       0.000894       0.000000
     -0.000206       0.001136       0.000000
     -0.000315       0.001326       0.000000
     -0.000263       0.000994       0.000000
     -0.000265       0.000334       0.000000
     -0.000265       0.000490       0.000000
     -0.000432       0.000500       0.000000
     -0.000406       0.000343       0.000000
     -0.000265       0.000490       0.000000
     -0.000260       0.000705       0.000000
     -0.000449       0.000723       0.000000
     -0.000432       0.000500       0.000000
     -0.000406       0.000343       0.000000
     -0.000432       0.000500       0.000000
     -0.000622       0.000522       0.000000
     -0.000550       0.000363       0.000000
     -0.000432       0.000500       0.000000
     -0.000449       0.000723       0.000000
     -0.000707       0.000744       0.000000
     -0.000622       0.000522       0.000000
     -0.000260       0.000705       0.000000
     -0.000259       0.000840       0.000000
     -0.000342       0.000861       0.000000
     -0.000345       0.000716       0.000000
     -0.000259       0.000840       0.000000
     -0.000263       0.000994       0.000000
     -0.000340       0.001035       0.000000
     -0.000342       0.000861       0.000000
     -0.000345       0.000716       0.000000
     -0.000342       0.000861       0.000000
     -0.000450       0.000873       0.000000
     -0.000449       0.000723       0.000000
     -0.000342       0.000861       0.000000
     -0.000340       0.001035       0.000000
     -0.000445       0.001062       0.000000
     -0.000450       0.000873       0.000000
     -0.000263       0.000994       0.000000
     -0.000280       0.001161       0.000000
     -0.000351       0.001234       0.000000
     -0.000340       0.001035       0.000000
     -0.000280       0.001161       0.000000
     -0.000315       0.001326       0.000000
     -0.000385       0.001437       0.000000
     -0.000351       0.001234       0.000000
     -0.000340       0.001035       0.000000
     -0.000351       0.001234       0.000000
     -0.000443       0.001302       0.000000
     -0.000445       0.001062       0.000000
     -0.000351       0.001234       0.000000
     -0.000385       0.001437       0.000000
     -0.000474       0.001567       0.000000
     -0.000443       0.001302       0.000000
     -0.000449       0.000723       0.000000
     -0.000450       0.000873       0.000000
     -0.000590       0.000879       0.000000
     -0.000573       0.000730       0.000000
     -0.000450       0.000873       0.000000
     -0.000445       0.001062       0.000000
     -0.000598       0.001073       0.000000
     -0.000590       0.000879       0.000000
     -0.000573       0.000730       0.000000
     -0.000590       0.000879       0.000000
     -0.000756       0.000893       0.000000
     -0.000707       0.000744       0.000000
     -0.000590       0.000879       0.000000
     -0.000598       0.001073       0.000000
     -0.000810       0.001085       0.000000
     -0.000756       0.000893       0.000000
     -0.000445       0.001062       0.000000
     -0.000442       0.001176       0.000000
     -0.000509       0.001190       0.000000
     -0.000514       0.001070       0.000000
     -0.000442       0.001176       0.000000
     -0.000443       0.001302       0.000000
     -0.000506       0.001330       0.000000
     -0.000509       0.001190       0.000000
     -0.000514       0.001070       0.000000
     -0.000509       0.001190       0.000000
     -0.000596       0.001197       0.000000
     -0.000598       0.001073       0.000000
     -0.000509       0.001190       0.000000
     -0.000506       0.001330       0.000000
     -0.000588       0.001348       0.000000
     -0.000596       0.001197       0.000000
     -0.000443       0.001302       0.000000
     -0.000453       0.001436       0.000000
     -0.000509       0.001487       0.000000
     -0.000506       0.001330       0.000000
     -0.000453       0.001436       0.000000
     -0.000474       0.001567       0.000000
     -0.000530       0.001645       0.000000
     -0.000509       0.001487       0.000000
     -0.000506       0.001330       0.000000
     -0.000509       0.001487       0.000000
     -0.000583       0.001536       0.000000
     -0.000588       0.001348       0.000000
     -0.000509       0.001487       0.000000
     -0.000530       0.001645       0.000000
     -0.000601       0.001740       0.000000
     -0.000583       0.001536       0.000000
     -0.000598       0.001073       0.000000
     -0.000596       0.001197       0.000000
     -0.000708       0.001200       0.000000
     -0.000699       0.001077       0.000000
     -0.000596       0.001197       0.000000
     -0.000588       0.001348       0.000000
     -0.000708       0.001354       0.000000
     -0.000708       0.001200       0.000000
     -0.000699       0.001077       0.000000
     -0.000708       0.001200       0.000000
     -0.000840       0.001208       0.000000
     -0.000810       0.001085       0.000000
     -0.000708       0.001200       0.000000
     -0.000708       0.001354       0.000000
     -0.000874       0.001362       0.000000
     -0.000840       0.001208       0.000000
     -0.000588       0.001348       0.000000
     -0.000583       0.001536       0.000000
     -0.000694       0.001570       0.000000
     -0.000708       0.001354       0.000000
     -0.000583       0.001536       0.000000
     -0.000601       0.001740       0.000000
     -0.000700       0.001868       0.000000
     -0.000694       0.001570       0.000000
     -0.000708       0.001354       0.000000
     -0.000694       0.001570       0.000000
     -0.000914       0.001582       0.000000
     -0.000874       0.001362       0.000000
     -0.000694       0.001570       0.000000
     -0.000700       0.001868       0.000000
     -0.000938       0.002166       0.000000
     -0.000914       0.001582       0.000000
      0.000000       0.000000       0.000000
      0.000000       0.000000       0.000000
      0.000014       0.000243       0.000000
      0.000064       0.000196       0.000000
      0.000000       0.000000       0.000000
      0.000000       0.000000       0.000000
     -0.000051       0.000277       0.000000
      0.000014       0.000243       0.000000
      0.000064       0.000196       0.000000
      0.000014       0.000243       0.000000
     -0.000037       0.000529       0.000000
      0.000055       0.000422       0.000000
      0.000014       0.000243       0.000000
     -0.000051       0.000277       0.000000
     -0.000153       0.000604       0.000000
     -0.000037       0.000529       0.000000
      0.000000       0.000000       0.000000
      0.000000       0.000000       0.000000
     -0.000123       0.000302       0.000000
     -0.000051       0.000277       0.000000
      0.000000       0.000000       0.000000
      0.000000       0.000000       0.000000
     -0.000204       0.000329       0.000000
     -0.000123       0.000302       0.000000
     -0.000051       0.000277       0.000000
     -0.000123       0.000302       0.000000
     -0.000282       0.000656       0.000000
     -0.000153       0.000604       0.000000
     -0.000123       0.000302       0.000000
     -0.000204       0.000329       0.000000
     -0.000420       0.000709       0.000000
     -0.000282       0.000656       0.000000
      0.000000       0.000000       0.000000
      0.000000       0.000000       0.000000
     -0.000314       0.000389       0.000000
     -0.000204       0.000329       0.000000
      0.000000       0.000000       0.000000
      0.000000       0.000000       0.000000
     -0.000485       0.000583       0.000000
     -0.000314       0.000389       0.000000
     -0.000204       0.000329       0.000000
     -0.000314       0.000389       0.000000
     -0.000575       0.000802       0.000000
     -0.000420       0.000709       0.000000
     -0.000314       0.000389       0.000000
     -0.000485       0.000583       0.000000
     -0.000740       0.000976       0.000000
     -0.000575       0.000802       0.000000
      0.000055       0.000422       0.000000
     -0.000037       0.000529       0.000000
     -0.000138       0.000861       0.000000
     -0.000009       0.000677       0.000000
     -0.000037       0.000529       0.000000
     -0.000153       0.000604       0.000000
     -0.000296       0.000976       0.000000
     -0.000138       0.000861       0.000000
     -0.000009       0.000677       0.000000
     -0.000138       0.000861       0.000000
     -0.000293       0.001250       0.000000
     -0.000124       0.000969       0.000000
     -0.000138       0.000861       0.000000
     -0.000296       0.000976       0.000000
     -0.000471       0.001383       0.000000
     -0.000293       0.001250       0.000000
     -0.000153       0.000604       0.000000
     -0.000282       0.000656       0.000000
     -0.000457       0.001043       0.000000
     -0.000296       0.000976       0.000000
     -0.000282       0.000656       0.000000
     -0.000420       0.000709       0.000000
     -0.000617       0.001103       0.000000
     -0.000457       0.001043       0.000000
     -0.000296       0.000976       0.000000
     -0.000457       0.001043       0.000000
     -0.000632       0.001441       0.000000
     -0.000471       0.001383       0.000000
     -0.000457       0.001043       0.000000
     -0.000617       0.001103       0.000000
     -0.000785       0.001489       0.000000
     -0.000632       0.001441       0.000000
     -0.000420       0.000709       0.000000
     -0.000575       0.000802       0.000000
     -0.000778       0.001191       0.000000
     -0.000617       0.001103       0.000000
     -0.000575       0.000802       0.000000
     -0.000740       0.000976       0.000000
     -0.000931       0.001332       0.000000
     -0.000778       0.001191       0.000000
     -0.000617       0.001103       0.000000
     -0.000778       0.001191       0.000000
     -0.000937       0.001556       0.000000
     -0.000785       0.001489       0.000000
     -0.000778       0.001191       0.000000
     -0.000931       0.001332       0.000000
     -0.001080       0.001660       0.000000
     -0.000937       0.001556       0.000000
     -0.000471       0.001383       0.000000
     -0.000632       0.001441       0.000000
     -0.000778       0.001826       0.000000
     -0.000658       0.001796       0.000000
     -0.000632       0.001441       0.000000
     -0.000785       0.001489       0.000000
     -0.000908       0.001857       0.000000
     -0.000778       0.001826       0.000000
     -0.000658       0.001796       0.000000
     -0.000778       0.001826       0.000000
     -0.000845       0.002187       0.000000
     -0.000760       0.002172       0.000000
     -0.000778       0.001826       0.000000
     -0.000908       0.001857       0.000000
     -0.000961       0.002210       0.000000
     -0.000845       0.002187       0.000000
     -0.000785       0.001489       0.000000
     -0.000937       0.001556       0.000000
     -0.001046       0.001901       0.000000
     -0.000908       0.001857       0.000000
     -0.000937       0.001556       0.000000
     -0.001080       0.001660       0.000000
     -0.001182       0.001965       0.000000
     -0.001046       0.001901       0.000000
     -0.000908       0.001857       0.000000
     -0.001046       0.001901       0.000000
     -0.001094       0.002236       0.000000
     -0.000961       0.002210       0.000000
     -0.001046       0.001901       0.000000
     -0.001182       0.001965       0.000000
     -0.001227       0.002258       0.000000
     -0.001094       0.002236       0.000000
     -0.000124       0.000969       0.000000
     -0.000202       0.001129       0.000000
     -0.000296       0.001337       0.000000
     -0.000206       0.001136       0.000000
     -0.000202       0.001129       0.000000
     -0.000293       0.001250       0.000000
     -0.000396       0.001472       0.000000
     -0.000296       0.001337       0.000000
     -0.000206       0.001136       0.000000
     -0.000296       0.001337       0.000000
     -0.000421       0.001581       0.000000
     -0.000315       0.001326       0.000000
     -0.000296       0.001337       0.000000
     -0.000396       0.001472       0.000000
     -0.000520       0.001711       0.000000
     -0.000421       0.001581       0.000000
     -0.000293       0.001250       0.000000
     -0.000384       0.001331       0.000000
     -0.000487       0.001549       0.000000
     -0.000396       0.001472       0.000000
     -0.000384       0.001331       0.000000
     -0.000471       0.001383       0.000000
     -0.000567       0.001592       0.000000
     -0.000487       0.001549       0.000000
     -0.000396       0.001472       0.000000
     -0.000487       0.001549       0.000000
     -0.000596       0.001768       0.000000