# vtk DataFile Version 2.0
time_10.vtk
ASCII
DATASET UNSTRUCTURED_GRID
POINTS  1152 float
      0.000000       0.000000       0.000000
      0.083333       0.000000       0.000000
      0.083333       0.083333       0.000000
      0.000000       0.083333       0.000000
      0.083333       0.000000       0.000000
      0.166667       0.000000       0.000000
      0.166667       0.083333       0.000000
      0.083333       0.083333       0.000000
      0.000000       0.083333       0.000000
      0.083333       0.083333       0.000000
      0.083333       0.166667       0.000000
      0.000000       0.166667       0.000000
      0.083333       0.083333       0.000000
      0.166667       0.083333       0.000000
      0.166667       0.166667       0.000000
      0.083333       0.166667       0.000000
      0.166667       0.000000       0.000000
      0.250000       0.000000       0.000000
      0.250000       0.083333       0.000000
      0.166667       0.083333       0.000000
      0.250000       0.000000       0.000000
      0.333333       0.000000       0.000000
      0.333333       0.083333       0.000000
      0.250000       0.083333       0.000000
      0.166667       0.083333       0.000000
      0.250000       0.083333       0.000000
      0.250000       0.166667       0.000000
      0.166667       0.166667       0.000000
      0.250000       0.083333       0.000000
      0.333333       0.083333       0.000000
      0.333333       0.166667       0.000000
      0.250000       0.166667       0.000000
      0.333333       0.000000       0.000000
      0.416667       0.000000       0.000000
      0.416667       0.083333       0.000000
      0.333333       0.083333       0.000000
      0.416667       0.000000       0.000000
      0.500000       0.000000       0.000000
      0.500000       0.083333       0.000000
      0.416667       0.083333       0.000000
      0.333333       0.083333       0.000000
      0.416667       0.083333       0.000000
      0.416667       0.166667       0.000000
      0.333333       0.166667       0.000000
      0.416667       0.083333       0.000000
      0.500000       0.083333       0.000000
      0.500000       0.166667       0.000000
      0.416667       0.166667       0.000000
      0.000000       0.166667       0.000000
      0.083333       0.166667       0.000000
      0.083333       0.250000       0.000000
      0.000000       0.250000       0.000000
      0.083333       0.166667       0.000000
      0.166667       0.166667       0.000000
      0.166667       0.250000       0.000000
      0.083333       0.250000       0.000000
      0.000000       0.250000       0.000000
      0.083333       0.250000       0.000000
      0.083333       0.333333       0.000000
      0.000000       0.333333       0.000000
      0.083333       0.250000       0.000000
      0.166667       0.250000       0.000000
      0.166667       0.333333       0.000000
      0.083333       0.333333       0.000000
      0.166667       0.166667       0.000000
      0.250000       0.166667       0.000000
      0.250000       0.250000       0.000000
      0.166667       0.250000       0.000000
      0.250000       0.166667       0.000000
      0.333333       0.166667       0.000000
      0.333333       0.250000       0.000000
      0.250000       0.250000       0.000000
      0.166667       0.250000       0.000000
      0.250000       0.250000       0.000000
      0.250000       0.333333       0.000000
      0.166667       0.333333       0.000000
      0.250000       0.250000       0.000000
      0.333333       0.250000       0.000000
      0.333333       0.333333       0.000000
      0.250000       0.333333       0.000000
      0.333333       0.166667       0.000000
      0.416667       0.166667       0.000000
      0.416667       0.250000       0.000000
      0.333333       0.250000       0.000000
      0.416667       0.166667       0.000000
      0.500000       0.166667       0.000000
      0.500000       0.250000       0.000000
      0.416667       0.250000       0.000000
      0.333333       0.250000       0.000000
      0.416667       0.250000       0.000000
      0.416667       0.333333       0.000000
      0.333333       0.333333       0.000000
      0.416667       0.250000       0.000000
      0.500000       0.250000       0.000000
      0.500000       0.333333       0.000000
      0.416667       0.333333       0.000000
      0.000000       0.333333       0.000000
      0.083333       0.333333       0.000000
      0.083333       0.416667       0.000000
      0.000000       0.416667       0.000000
      0.083333       0.333333       0.000000
      0.166667       0.333333       0.000000
      0.166667       0.416667       0.000000
      0.083333       0.416667       0.000000
      0.000000       0.416667       0.000000
      0.083333       0.416667       0.000000
      0.083333       0.500000       0.000000
      0.000000       0.500000       0.000000
      0.083333       0.416667       0.000000
      0.166667       0.416667       0.000000
      0.166667       0.500000       0.000000
      0.083333       0.500000       0.000000
      0.166667       0.333333       0.000000
      0.250000       0.333333       0.000000
      0.250000       0.416667       0.000000
      0.166667       0.416667       0.000000
      0.250000       0.333333       0.000000
      0.333333       0.333333       0.000000
      0.333333       0.416667       0.000000
      0.250000       0.416667       0.000000
      0.166667       0.416667       0.000000
      0.250000       0.416667       0.000000
      0.250000       0.500000       0.000000
      0.166667       0.500000       0.000000
      0.250000       0.416667       0.000000
      0.333333       0.416667       0.000000
      0.333333       0.500000       0.000000
      0.250000       0.500000       0.000000
      0.333333       0.333333       0.000000
      0.375000       0.333333       0.000000
      0.375000       0.375000       0.000000
      0.333333       0.375000       0.000000
      0.375000       0.333333       0.000000
      0.416667       0.333333       0.000000
      0.416667       0.375000       0.000000
      0.375000       0.375000       0.000000
      0.333333       0.375000       0.000000
      0.375000       0.375000       0.000000
      0.375000       0.416667       0.000000
      0.333333       0.416667       0.000000
      0.375000       0.375000       0.000000
      0.416667       0.375000       0.000000
      0.416667       0.416667       0.000000
      0.375000       0.416667       0.000000
      0.416667       0.333333       0.000000
      0.458333       0.333333       0.000000
      0.458333       0.375000       0.000000
      0.416667       0.375000       0.000000
      0.458333       0.333333       0.000000
      0.500000       0.333333       0.000000
      0.500000       0.375000       0.000000
      0.458333       0.375000       0.000000
      0.416667       0.375000       0.000000
      0.458333       0.375000       0.000000
      0.458333       0.416667       0.000000
      0.416667       0.416667       0.000000
      0.458333       0.375000       0.000000
      0.500000       0.375000       0.000000
      0.500000       0.416667       0.000000
      0.458333       0.416667       0.000000
      0.333333       0.416667       0.000000
      0.375000       0.416667       0.000000
      0.375000       0.458333       0.000000
      0.333333       0.458333       0.000000
      0.375000       0.416667       0.000000
      0.416667       0.416667       0.000000
      0.416667       0.458333       0.000000
      0.375000       0.458333       0.000000
      0.333333       0.458333       0.000000
      0.375000       0.458333       0.000000
      0.375000       0.500000       0.000000
      0.333333       0.500000       0.000000
      0.375000       0.458333       0.000000
      0.416667       0.458333       0.000000
      0.416667       0.500000       0.000000
      0.375000       0.500000       0.000000
      0.416667       0.416667       0.000000
      0.437500       0.416667       0.000000
      0.437500       0.437500       0.000000
      0.416667       0.437500       0.000000
      0.437500       0.416667       0.000000
      0.458333       0.416667       0.000000
      0.458333       0.437500       0.000000
      0.437500       0.437500       0.000000
      0.416667       0.437500       0.000000
      0.437500       0.437500       0.000000
      0.437500       0.458333       0.000000
      0.416667       0.458333       0.000000
      0.437500       0.437500       0.000000
      0.458333       0.437500       0.000000
      0.458333       0.458333       0.000000
      0.437500       0.458333       0.000000
      0.458333       0.416667       0.000000
      0.479167       0.416667       0.000000
      0.479167       0.437500       0.000000
      0.458333       0.437500       0.000000
      0.479167       0.416667       0.000000
      0.500000       0.416667       0.000000
      0.500000       0.437500       0.000000
      0.479167       0.437500       0.000000
      0.458333       0.437500       0.000000
      0.479167       0.437500       0.000000
      0.479167       0.458333       0.000000
      0.458333       0.458333       0.000000
      0.479167       0.437500       0.000000
      0.500000       0.437500       0.000000
      0.500000       0.458333       0.000000
      0.479167       0.458333       0.000000
      0.416667       0.458333       0.000000
      0.437500       0.458333       0.000000
      0.437500       0.479167       0.000000
      0.416667       0.479167       0.000000
      0.437500       0.458333       0.000000
      0.458333       0.458333       0.000000
      0.458333       0.479167       0.000000
      0.437500       0.479167       0.000000
      0.416667       0.479167       0.000000
      0.437500       0.479167       0.000000
      0.437500       0.500000       0.000000
      0.416667       0.500000       0.000000
[...]
POINT_DATA  1152
VECTORS U float 
      0.000000       0.000000       0.000000
      0.000000       0.000000       0.000000
      0.000073      -0.000015       0.000000
      0.000054      -0.000016       0.000000
      0.000000       0.000000       0.000000
      0.000000       0.000000       0.000000
      0.000092       0.000014       0.000000
      0.000073      -0.000015       0.000000
      0.000054      -0.000016       0.000000
      0.000073      -0.000015       0.000000
      0.000081      -0.000041       0.000000
      0.000056      -0.000084       0.000000
      0.000073      -0.000015       0.000000
      0.000092       0.000014       0.000000
      0.000103       0.000019       0.000000
      0.000081      -0.000041       0.000000
      0.000000       0.000000       0.000000
      0.000000       0.000000       0.000000
      0.000110       0.000055       0.000000
      0.000092       0.000014       0.000000
      0.000000       0.000000       0.000000
      0.000000       0.000000       0.000000
      0.000120       0.000107       0.000000
      0.000110       0.000055       0.000000
      0.000092       0.000014       0.000000
      0.000110       0.000055       0.000000
      0.000126       0.000099       0.000000
      0.000103       0.000019       0.000000
      0.000110       0.000055       0.000000
      0.000120       0.000107       0.000000
      0.000140       0.000210       0.000000
      0.000126       0.000099       0.000000
      0.000000       0.000000       0.000000
      0.000000       0.000000       0.000000
      0.000111       0.000170       0.000000
      0.000120       0.000107       0.000000
      0.000000       0.000000       0.000000
      0.000000       0.000000       0.000000
      0.000077       0.000236       0.000000
      0.000111       0.000170       0.000000
      0.000120       0.000107       0.000000
      0.000111       0.000170       0.000000
      0.000125       0.000353       0.000000
      0.000140       0.000210       0.000000
      0.000111       0.000170       0.000000
      0.000077       0.000236       0.000000
      0.000064       0.000508       0.000000
      0.000125       0.000353       0.000000
      0.000056      -0.000084       0.000000
      0.000081      -0.000041       0.000000
      0.000009      -0.000071       0.000000
     -0.000014      -0.000160       0.000000
      0.000081      -0.000041       0.000000
      0.000103       0.000019       0.000000
      0.000030       0.000016       0.000000
      0.000009      -0.000071       0.000000
     -0.000014      -0.000160       0.000000
      0.000009      -0.000071       0.000000
     -0.000129      -0.000097       0.000000
     -0.000144      -0.000219       0.000000
      0.000009      -0.000071       0.000000
      0.000030       0.000016       0.000000
     -0.000118       0.000009       0.000000
     -0.000129      -0.000097       0.000000
      0.000103       0.000019       0.000000
      0.000126       0.000099       0.000000
      0.000054       0.000130       0.000000
      0.000030       0.000016       0.000000
      0.000126       0.000099       0.000000
      0.000140       0.000210       0.000000
      0.000074       0.000301       0.000000
      0.000054       0.000130       0.000000
      0.000030       0.000016       0.000000
      0.000054       0.000130       0.000000
     -0.000102       0.000145       0.000000
     -0.000118       0.000009       0.000000
      0.000054       0.000130       0.000000
      0.000074       0.000301       0.000000
     -0.000081       0.000364       0.000000
     -0.000102       0.000145       0.000000
      0.000140       0.000210       0.000000
      0.000125       0.000353       0.000000
      0.000062       0.000540       0.000000
      0.000074       0.000301       0.000000
      0.000125       0.000353       0.000000
      0.000064       0.000508       0.000000
     -0.000018       0.000814       0.000000
      0.000062       0.000540       0.000000
      0.000074       0.000301       0.000000
      0.000062       0.000540       0.000000
     -0.000078       0.000713       0.000000
     -0.000081       0.000364       0.000000
      0.000062       0.000540       0.000000
     -0.000018       0.000814       0.000000
     -0.000164       0.001163       0.000000
     -0.000078       0.000713       0.000000
     -0.000144      -0.000219       0.000000
     -0.000129      -0.000097       0.000000
     -0.000300      -0.000111       0.000000
     -0.000302      -0.000246       0.000000
     -0.000129      -0.000097       0.000000
     -0.000118       0.000009       0.000000
     -0.000309       0.000006       0.000000
     -0.000300      -0.000111       0.000000
     -0.000302      -0.000246       0.000000
     -0.000300      -0.000111       0.000000
     -0.000455      -0.000109       0.000000
     -0.000453      -0.000248       0.000000
     -0.000300      -0.000111       0.000000
     -0.000309       0.000006       0.000000
     -0.000483       0.000019       0.000000
     -0.000455      -0.000109       0.000000
     -0.000118       0.000009       0.000000
     -0.000102       0.000145       0.000000
     -0.000327       0.000152       0.000000
     -0.000309       0.000006       0.000000
     -0.000102       0.000145       0.000000
     -0.000081       0.000364       0.000000
     -0.000345       0.000390       0.000000
     -0.000327       0.000152       0.000000
     -0.000309       0.000006       0.000000
     -0.000327       0.000152       0.000000
     -0.000558       0.000177       0.000000
     -0.000483       0.000019       0.000000
     -0.000327       0.000152       0.000000
     -0.000345       0.000390       0.000000
     -0.000688       0.000426       0.000000
     -0.000558       0.000177       0.000000
     -0.000081       0.000364       0.000000
     -0.000074       0.000520       0.000000
     -0.000191       0.000555       0.000000
     -0.000199       0.000380       0.000000
     -0.000074       0.000520       0.000000
     -0.000078       0.000713       0.000000
     -0.000188       0.000782       0.000000
     -0.000191       0.000555       0.000000
     -0.000199       0.000380       0.000000
     -0.000191       0.000555       0.000000
     -0.000347       0.000575       0.000000
     -0.000345       0.000390       0.000000
     -0.000191       0.000555       0.000000
     -0.000188       0.000782       0.000000
     -0.000344       0.000830       0.000000
     -0.000347       0.000575       0.000000
     -0.000078       0.000713       0.000000
     -0.000105       0.000934       0.000000
     -0.000207       0.001060       0.000000
     -0.000188       0.000782       0.000000
     -0.000105       0.000934       0.000000
     -0.000164       0.001163       0.000000
     -0.000268       0.001360       0.000000
     -0.000207       0.001060       0.000000
     -0.000188       0.000782       0.000000
     -0.000207       0.001060       0.000000
     -0.000347       0.001174       0.000000
     -0.000344       0.000830       0.000000
     -0.000207       0.001060       0.000000
     -0.000268       0.001360       0.000000
     -0.000405       0.001583       0.000000
     -0.000347       0.001174       0.000000
     -0.000345       0.000390       0.000000
     -0.000347       0.000575       0.000000
     -0.000549       0.000588       0.000000
     -0.000516       0.000402       0.000000
     -0.000347       0.000575       0.000000
     -0.000344       0.000830       0.000000
     -0.000573       0.000851       0.000000
     -0.000549       0.000588       0.000000
     -0.000516       0.000402       0.000000
     -0.000549       0.000588       0.000000
     -0.000776       0.000615       0.000000
     -0.000688       0.000426       0.000000
     -0.000549       0.000588       0.000000
     -0.000573       0.000851       0.000000
     -0.000881       0.000878       0.000000
     -0.000776       0.000615       0.000000
     -0.000344       0.000830       0.000000
     -0.000342       0.000990       0.000000
     -0.000445       0.001014       0.000000
     -0.000447       0.000843       0.000000
     -0.000342       0.000990       0.000000
     -0.000347       0.001174       0.000000
     -0.000444       0.001220       0.000000
     -0.000445       0.001014       0.000000
     -0.000447       0.000843       0.000000
     -0.000445       0.001014       0.000000
     -0.000577       0.001028       0.000000
     -0.000573       0.000851       0.000000
     -0.000445       0.001014       0.000000
     -0.000444       0.001220       0.000000
     -0.000573       0.001251       0.000000
     -0.000577       0.001028       0.000000
     -0.000347       0.001174       0.000000
     -0.000366       0.001377       0.000000
     -0.000455       0.001460       0.000000
     -0.000444       0.001220       0.000000
     -0.000366       0.001377       0.000000
     -0.000405       0.001583       0.000000
     -0.000494       0.001713       0.000000
     -0.000455       0.001460       0.000000
     -0.000444       0.001220       0.000000
     -0.000455       0.001460       0.000000
     -0.000572       0.001536       0.000000
     -0.000573       0.001251       0.000000
     -0.000455       0.001460       0.000000
     -0.000494       0.001713       0.000000
     -0.000606       0.001866       0.000000
     -0.000572       0.001536       0.000000
     -0.000573       0.000851       0.000000
     -0.000577       0.001028       0.000000
     -0.000745       0.001036       0.000000
     -0.000721       0.000860       0.000000
     -0.000577       0.001028       0.000000
     -0.000573       0.001251       0.000000
     -0.000758       0.001264       0.000000
     -0.000745       0.001036       0.000000
     -0.000721       0.000860       0.000000
     -0.000745       0.001036       0.000000
     -0.000941       0.001054       0.000000
     -0.000881       0.000878       0.000000
     -0.000745       0.001036       0.000000
     -0.000758       0.001264       0.000000
     -0.001009       0.001280       0.000000
     -0.000941       0.001054       0.000000
     -0.000573       0.001251       0.000000
     -0.000571       0.001386       0.000000
     -0.000653       0.001401       0.000000
     -0.000657       0.001260       0.000000
     -0.000571       0.001386       0.000000
     -0.000572       0.001536       0.000000
     -0.000649       0.001568       0.000000
     -0.000653       0.001401       0.000000
     -0.000657       0.001260       0.000000
     -0.000653       0.001401       0.000000
     -0.000758       0.001409       0.000000
     -0.000758       0.001264       0.000000
     -0.000653       0.001401       0.000000
     -0.000649       0.001568       0.000000
     -0.000751       0.001589       0.000000
     -0.000758       0.001409       0.000000
     -0.000572       0.001536       0.000000
     -0.000582       0.001700       0.000000
     -0.000653       0.001759       0.000000
     -0.000649       0.001568       0.000000
     -0.000582       0.001700       0.000000
     -0.000606       0.001866       0.000000
     -0.000677       0.001961       0.000000
     -0.000653       0.001759       0.000000
     -0.000649       0.001568       0.000000
     -0.000653       0.001759       0.000000
     -0.000744       0.001817       0.000000
     -0.000751       0.001589       0.000000
     -0.000653       0.001759       0.000000
     -0.000677       0.001961       0.000000
     -0.000765       0.002079       0.000000
     -0.000744       0.001817       0.000000
     -0.000758       0.001264       0.000000
     -0.000758       0.001409       0.000000
     -0.000892       0.001413       0.000000
     -0.000878       0.001269       0.000000
     -0.000758       0.001409       0.000000
     -0.000751       0.001589       0.000000
     -0.000896       0.001596       0.000000
     -0.000892       0.001413       0.000000
     -0.000878       0.001269       0.000000
     -0.000892       0.001413       0.000000
     -0.001049       0.001425       0.000000
     -0.001009       0.001280       0.000000
     -0.000892       0.001413       0.000000
     -0.000896       0.001596       0.000000
     -0.001095       0.001608       0.000000
     -0.001049       0.001425       0.000000
     -0.000751       0.001589       0.000000
     -0.000744       0.001817       0.000000
     -0.000881       0.001857       0.000000
     -0.000896       0.001596       0.000000
     -0.000744       0.001817       0.000000
     -0.000765       0.002079       0.000000
     -0.000891       0.002253       0.000000
     -0.000881       0.001857       0.000000
     -0.000896       0.001596       0.000000
     -0.000881       0.001857       0.000000
     -0.001158       0.001879       0.000000
     -0.001095       0.001608       0.000000
     -0.000881       0.001857       0.000000
     -0.000891       0.002253       0.000000
     -0.001235       0.002737       0.000000
     -0.001158       0.001879       0.000000
      0.000000       0.000000       0.000000
      0.000000       0.000000       0.000000
      0.000017       0.000295       0.000000
      0.000077       0.000236       0.000000
      0.000000       0.000000       0.000000
      0.000000       0.000000       0.000000
     -0.000062       0.000340       0.000000
      0.000017       0.000295       0.000000
      0.000077       0.000236       0.000000
      0.000017       0.000295       0.000000
     -0.000047       0.000644       0.000000
      0.000064       0.000508       0.000000
      0.000017       0.000295       0.000000
     -0.000062       0.000340       0.000000
     -0.000191       0.000745       0.000000
     -0.000047       0.000644       0.000000
      0.000000       0.000000       0.000000
      0.000000       0.000000       0.000000
     -0.000152       0.000375       0.000000
     -0.000062       0.000340       0.000000
      0.000000       0.000000       0.000000
      0.000000       0.000000       0.000000
     -0.000256       0.000414       0.000000
     -0.000152       0.000375       0.000000
     -0.000062       0.000340       0.000000
     -0.000152       0.000375       0.000000
     -0.000353       0.000818       0.000000
     -0.000191       0.000745       0.000000
     -0.000152       0.000375       0.000000
     -0.000256       0.000414       0.000000
     -0.000531       0.000895       0.000000
     -0.000353       0.000818       0.000000
      0.000000       0.000000       0.000000
      0.000000       0.000000       0.000000
     -0.000398       0.000498       0.000000
     -0.000256       0.000414       0.000000
      0.000000       0.000000       0.000000
      0.000000       0.000000       0.000000
     -0.000616       0.000751       0.000000
     -0.000398       0.000498       0.000000
     -0.000256       0.000414       0.000000
     -0.000398       0.000498       0.000000
     -0.000730       0.001023       0.000000
     -0.000531       0.000895       0.000000
     -0.000398       0.000498       0.000000
     -0.000616       0.000751       0.000000
     -0.000939       0.001249       0.000000
     -0.000730       0.001023       0.000000
      0.000064       0.000508       0.000000
     -0.000047       0.000644       0.000000
     -0.000175       0.001052       0.000000
     -0.000018       0.000814       0.000000
     -0.000047       0.000644       0.000000
     -0.000191       0.000745       0.000000
     -0.000373       0.001210       0.000000
     -0.000175       0.001052       0.000000
     -0.000018       0.000814       0.000000
     -0.000175       0.001052       0.000000
     -0.000370       0.001534       0.000000
     -0.000164       0.001163       0.000000
     -0.000175       0.001052       0.000000
     -0.000373       0.001210       0.000000
     -0.000601       0.001727       0.000000
     -0.000370       0.001534       0.000000
     -0.000191       0.000745       0.000000
     -0.000353       0.000818       0.000000
     -0.000580       0.001308       0.000000
     -0.000373       0.001210       0.000000
     -0.000353       0.000818       0.000000
     -0.000531       0.000895       0.000000
     -0.000786       0.001395       0.000000
     -0.000580       0.001308       0.000000
     -0.000373       0.001210       0.000000
     -0.000580       0.001308       0.000000
     -0.000810       0.001816       0.000000
     -0.000601       0.001727       0.000000
     -0.000580       0.001308       0.000000
     -0.000786       0.001395       0.000000
     -0.001006       0.001884       0.000000
     -0.000810       0.001816       0.000000
     -0.000531       0.000895       0.000000
     -0.000730       0.001023       0.000000
     -0.000991       0.001515       0.000000
     -0.000786       0.001395       0.000000
     -0.000730       0.001023       0.000000
     -0.000939       0.001249       0.000000
     -0.001184       0.001697       0.000000
     -0.000991       0.001515       0.000000
     -0.000786       0.001395       0.000000
     -0.000991       0.001515       0.000000
     -0.001197       0.001973       0.000000
     -0.001006       0.001884       0.000000
     -0.000991       0.001515       0.000000
     -0.001184       0.001697       0.000000
     -0.001376       0.002108       0.000000
     -0.001197       0.001973       0.000000
     -0.000601       0.001727       0.000000
     -0.000810       0.001816       0.000000
     -0.001004       0.002306       0.000000
     -0.000850       0.002260       0.000000
     -0.000810       0.001816       0.000000
     -0.001006       0.001884       0.000000
     -0.001167       0.002348       0.000000
     -0.001004       0.002306       0.000000
     -0.000850       0.002260       0.000000
     -0.001004       0.002306       0.000000
     -0.001093       0.002761       0.000000
     -0.000988       0.002742       0.000000
     -0.001004       0.002306       0.000000
     -0.001167       0.002348       0.000000
     -0.001237       0.002789       0.000000
     -0.001093       0.002761       0.000000
     -0.001006       0.001884       0.000000
     -0.001197       0.001973       0.000000
     -0.001340       0.002405       0.000000
     -0.001167       0.002348       0.000000
     -0.001197       0.001973       0.000000
     -0.001376       0.002108       0.000000
     -0.001508       0.002487       0.000000
     -0.001340       0.002405       0.000000
     -0.001167       0.002348       0.000000
     -0.001340       0.002405       0.000000
     -0.001402       0.002821       0.000000
     -0.001237       0.002789       0.000000
     -0.001340       0.002405       0.000000
     -0.001508       0.002487       0.000000
     -0.001567       0.002848       0.000000
     -0.001402       0.002821       0.000000
     -0.000164       0.001163       0.000000
     -0.000257       0.001370       0.000000
     -0.000375       0.001625       0.000000
     -0.000268       0.001360       0.000000
     -0.000257       0.001370       0.000000
     -0.000370       0.001534       0.000000
     -0.000502       0.001814       0.000000
     -0.000375       0.001625       0.000000
     -0.000268       0.001360       0.000000
     -0.000375       0.001625       0.000000
     -0.000534       0.001927       0.000000
     -0.000405       0.001583       0.000000
     -0.000375       0.001625       0.000000
     -0.000502       0.001814       0.000000
     -0.000666       0.002123       0.000000
     -0.000534       0.001927       0.000000
     -0.000370       0.001534       0.000000
     -0.000488       0.001650       0.000000
     -0.000622       0.001929       0.000000
     -0.000502       0.001814       0.000000
     -0.000488       0.001650       0.000000
     -0.000601       0.001727       0.000000
     -0.000728       0.001995       0.000000
     -0.000622       0.001929       0.000000
     -0.000502       0.001814       0.000000
     -0.000622       0.001929       0.000000
     -0.000767       0.002214       0.000000