# vtk DataFile Version 2.0
time_10.vtk
ASCII
DATASET UNSTRUCTURED_GRID
POINTS  1152 float
      0.000000       0.000000       0.000000
      0.083333       0.000000       0.000000
      0.083333       0.083333       0.000000
      0.000000       0.083333       0.000000
      0.083333       0.000000       0.000000
      0.166667       0.000000       0.000000
      0.166667       0.083333       0.000000
      0.083333       0.083333       0.000000
      0.000000       0.083333       0.000000
      0.083333       0.083333       0.000000
      0.083333       0.166667       0.000000
      0.000000       0.166667       0.000000
      0.083333       0.083333       0.000000
      0.166667       0.083333       0.000000
      0.166667       0.166667       0.000000
      0.083333       0.166667       0.000000
      0.166667       0.000000       0.000000
      0.250000       0.000000       0.000000
      0.250000       0.083333       0.000000
      0.166667       0.083333       0.000000
      0.250000       0.000000       0.000000
      0.333333       0.000000       0.000000
      0.333333       0.083333       0.000000
      0.250000       0.083333       0.000000
      0.166667       0.083333       0.000000
      0.250000       0.083333       0.000000
      0.250000       0.166667       0.000000
      0.166667       0.166667       0.000000
      0.250000       0.083333       0.000000
      0.333333       0.083333       0.000000
      0.333333       0.166667       0.000000
      0.250000       0.166667       0.000000
      0.333333       0.000000       0.000000
      0.416667       0.000000       0.000000
      0.416667       0.083333       0.000000
      0.333333       0.083333       0.000000
      0.416667       0.000000       0.000000
      0.500000       0.000000       0.000000
      0.500000       0.083333       0.000000
      0.416667       0.083333       0.000000
      0.333333       0.083333       0.000000
      0.416667       0.083333       0.000000
      0.416667       0.166667       0.000000
      0.333333       0.166667       0.000000
      0.416667       0.083333       0.000000
      0.500000       0.083333       0.000000
      0.500000       0.166667       0.000000
      0.416667       0.166667       0.000000
      0.000000       0.166667       0.000000
      0.083333       0.166667       0.000000
      0.083333       0.250000       0.000000
      0.000000       0.250000       0.000000
      0.083333       0.166667       0.000000
      0.166667       0.166667       0.000000
      0.166667       0.250000       0.000000
      0.083333       0.250000       0.000000
      0.000000       0.250000       0.000000
      0.083333       0.250000       0.000000
      0.083333       0.333333       0.000000
      0.000000       0.333333       0.000000
      0.083333       0.250000       0.000000
      0.166667       0.250000       0.000000
      0.166667       0.333333       0.000000
      0.083333       0.333333       0.000000
      0.166667       0.166667       0.000000
      0.250000       0.166667       0.000000
      0.250000       0.250000       0.000000
      0.166667       0.250000       0.000000
      0.250000       0.166667       0.000000
      0.333333       0.166667       0.000000
      0.333333       0.250000       0.000000
      0.250000       0.250000       0.000000
      0.166667       0.250000       0.000000
      0.250000       0.250000       0.000000
      0.250000       0.333333       0.000000
      0.166667       0.333333       0.000000
      0.250000       0.250000       0.000000
      0.333333       0.250000       0.000000
      0.333333       0.333333       0.000000
      0.250000       0.333333       0.000000
      0.333333       0.166667       0.000000
      0.416667       0.166667       0.000000
      0.416667       0.250000       0.000000
      0.333333       0.250000       0.000000
      0.416667       0.166667       0.000000
      0.500000       0.166667       0.000000
      0.500000       0.250000       0.000000
      0.416667       0.250000       0.000000
      0.333333       0.250000       0.000000
      0.416667       0.250000       0.000000
      0.416667       0.333333       0.000000
      0.333333       0.333333       0.000000
      0.416667       0.250000       0.000000
      0.500000       0.250000       0.000000
      0.500000       0.333333       0.000000
      0.416667       0.333333       0.000000
      0.000000       0.333333       0.000000
      0.083333       0.333333       0.000000
      0.083333       0.416667       0.000000
      0.000000       0.416667       0.000000
      0.083333       0.333333       0.000000
      0.166667       0.333333       0.000000
      0.166667       0.416667       0.000000
      0.083333       0.416667       0.000000
      0.000000       0.416667       0.000000
      0.083333       0.416667       0.000000
      0.083333       0.500000       0.000000
      0.000000       0.500000       0.000000
      0.083333       0.416667       0.000000
      0.166667       0.416667       0.000000
      0.166667       0.500000       0.000000
      0.083333       0.500000       0.000000
      0.166667       0.333333       0.000000
      0.250000       0.333333       0.000000
      0.250000       0.416667       0.000000
      0.166667       0.416667       0.000000
      0.250000       0.333333       0.000000
      0.333333       0.333333       0.000000
      0.333333       0.416667       0.000000
      0.250000       0.416667       0.000000
      0.166667       0.416667       0.000000
      0.250000       0.416667       0.000000
      0.250000       0.500000       0.000000
      0.166667       0.500000       0.000000
      0.250000       0.416667       0.000000
      0.333333       0.416667       0.000000
      0.333333       0.500000       0.000000
      0.250000       0.500000       0.000000
      0.333333       0.333333       0.000000
      0.375000       0.333333       0.000000
      0.375000       0.375000       0.000000
      0.333333       0.375000       0.000000
      0.375000       0.333333       0.000000
      0.416667       0.333333       0.000000
      0.416667       0.375000       0.000000
      0.375000       0.375000       0.000000
      0.333333       0.375000       0.000000
      0.375000       0.375000       0.000000
      0.375000       0.416667       0.000000
      0.333333       0.416667       0.000000
      0.375000       0.375000       0.000000
      0.416667       0.375000       0.000000
      0.416667       0.416667       0.000000
      0.375000       0.416667       0.000000
      0.416667       0.333333       0.000000
      0.458333       0.333333       0.000000
      0.458333       0.375000       0.000000
      0.416667       0.375000       0.000000
      0.458333       0.333333       0.000000
      0.500000       0.333333       0.000000
      0.500000       0.375000       0.000000
      0.458333       0.375000       0.000000
      0.416667       0.375000       0.000000
      0.458333       0.375000       0.000000
      0.458333       0.416667       0.000000
      0.416667       0.416667       0.000000
      0.458333       0.375000       0.000000
      0.500000       0.375000       0.000000
      0.500000       0.416667       0.000000
      0.458333       0.416667       0.000000
      0.333333       0.416667       0.000000
      0.375000       0.416667       0.000000
      0.375000       0.458333       0.000000
      0.333333       0.458333       0.000000
      0.375000       0.416667       0.000000
      0.416667       0.416667       0.000000
      0.416667       0.458333       0.000000
      0.375000       0.458333       0.000000
      0.333333       0.458333       0.000000
      0.375000       0.458333       0.000000
      0.375000       0.500000       0.000000
      0.333333       0.500000       0.000000
      0.375000       0.458333       0.000000
      0.416667       0.458333       0.000000
      0.416667       0.500000       0.000000
      0.375000       0.500000       0.000000
      0.416667       0.416667       0.000000
      0.437500       0.416667       0.000000
      0.437500       0.437500       0.000000
      0.416667       0.437500       0.000000
      0.437500       0.416667       0.000000
      0.458333       0.416667       0.000000
      0.458333       0.437500       0.000000
      0.437500       0.437500       0.000000
      0.416667       0.437500       0.000000
      0.437500       0.437500       0.000000
      0.437500       0.458333       0.000000
      0.416667       0.458333       0.000000
      0.437500       0.437500       0.000000
      0.458333       0.437500       0.000000
      0.458333       0.458333       0.000000
      0.437500       0.458333       0.000000
      0.458333       0.416667       0.000000
      0.479167       0.416667       0.000000
      0.479167       0.437500       0.000000
      0.458333       0.437500       0.000000
      0.479167       0.416667       0.000000
      0.500000       0.416667       0.000000
      0.500000       0.437500       0.000000
      0.479167       0.437500       0.000000
      0.458333       0.437500       0.000000
      0.479167       0.437500       0.000000
      0.479167       0.458333       0.000000
      0.458333       0.458333       0.000000
      0.479167       0.437500       0.000000
      0.500000       0.437500       0.000000
      0.500000       0.458333       0.000000
      0.479167       0.458333       0.000000
      0.416667       0.458333       0.000000
      0.437500       0.458333       0.000000
      0.437500       0.479167       0.000000
      0.416667       0.479167       0.000000
      0.437500       0.458333       0.000000
      0.458333       0.458333       0.000000
      0.458333       0.479167       0.000000
      0.437500       0.479167       0.000000
      0.416667       0.479167       0.000000
      0.437500       0.479167       0.000000
      0.437500       0.500000       0.000000
      0.416667       0.500000       0.000000
[...]
POINT_DATA  1152
VECTORS U float 
      0.000000       0.000000       0.000000
      0.000000       0.000000       0.000000
      0.000072      -0.000017       0.000000
      0.000053      -0.000019       0.000000
      0.000000       0.000000       0.000000
      0.000000       0.000000       0.000000
      0.000093       0.000014       0.000000
      0.000072      -0.000017       0.000000
      0.000053      -0.000019       0.000000
      0.000072      -0.000017       0.000000
      0.000078      -0.000044       0.000000
      0.000053      -0.000090       0.000000
      0.000072      -0.000017       0.000000
      0.000093       0.000014       0.000000
      0.000101       0.000017       0.000000
      0.000078      -0.000044       0.000000
      0.000000       0.000000       0.000000
      0.000000       0.000000       0.000000
      0.000111       0.000055       0.000000
      0.000093       0.000014       0.000000
      0.000000       0.000000       0.000000
      0.000000       0.000000       0.000000
      0.000122       0.000108       0.000000
      0.000111       0.000055       0.000000
      0.000093       0.000014       0.000000
      0.000111       0.000055       0.000000
      0.000126       0.000099       0.000000
      0.000101       0.000017       0.000000
      0.000111       0.000055       0.000000
      0.000122       0.000108       0.000000
      0.000141       0.000212       0.000000
      0.000126       0.000099       0.000000
      0.000000       0.000000       0.000000
      0.000000       0.000000       0.000000
      0.000114       0.000173       0.000000
      0.000122       0.000108       0.000000
      0.000000       0.000000       0.000000
      0.000000       0.000000       0.000000
      0.000080       0.000242       0.000000
      0.000114       0.000173       0.000000
      0.000122       0.000108       0.000000
      0.000114       0.000173       0.000000
      0.000127       0.000359       0.000000
      0.000141       0.000212       0.000000
      0.000114       0.000173       0.000000
      0.000080       0.000242       0.000000
      0.000066       0.000520       0.000000
      0.000127       0.000359       0.000000
      0.000053      -0.000090       0.000000
      0.000078      -0.000044       0.000000
      0.000002      -0.000076       0.000000
     -0.000021      -0.000169       0.000000
      0.000078      -0.000044       0.000000
      0.000101       0.000017       0.000000
      0.000024       0.000013       0.000000
      0.000002      -0.000076       0.000000
     -0.000021      -0.000169       0.000000
      0.000002      -0.000076       0.000000
     -0.000141      -0.000103       0.000000
     -0.000155      -0.000229       0.000000
      0.000002      -0.000076       0.000000
      0.000024       0.000013       0.000000
     -0.000129       0.000005       0.000000
     -0.000141      -0.000103       0.000000
      0.000101       0.000017       0.000000
      0.000126       0.000099       0.000000
      0.000049       0.000129       0.000000
      0.000024       0.000013       0.000000
      0.000126       0.000099       0.000000
      0.000141       0.000212       0.000000
      0.000070       0.000303       0.000000
      0.000049       0.000129       0.000000
      0.000024       0.000013       0.000000
      0.000049       0.000129       0.000000
     -0.000113       0.000144       0.000000
     -0.000129       0.000005       0.000000
      0.000049       0.000129       0.000000
      0.000070       0.000303       0.000000
     -0.000092       0.000365       0.000000
     -0.000113       0.000144       0.000000
      0.000141       0.000212       0.000000
      0.000127       0.000359       0.000000
      0.000060       0.000548       0.000000
      0.000070       0.000303       0.000000
      0.000127       0.000359       0.000000
      0.000066       0.000520       0.000000
     -0.000020       0.000833       0.000000
      0.000060       0.000548       0.000000
      0.000070       0.000303       0.000000
      0.000060       0.000548       0.000000
     -0.000088       0.000721       0.000000
     -0.000092       0.000365       0.000000
      0.000060       0.000548       0.000000
     -0.000020       0.000833       0.000000
     -0.000173       0.001186       0.000000
     -0.000088       0.000721       0.000000
     -0.000155      -0.000229       0.000000
     -0.000141      -0.000103       0.000000
     -0.000316      -0.000117       0.000000
     -0.000318      -0.000256       0.000000
     -0.000141      -0.000103       0.000000
     -0.000129       0.000005       0.000000
     -0.000326       0.000002       0.000000
     -0.000316      -0.000117       0.000000
     -0.000318      -0.000256       0.000000
     -0.000316      -0.000117       0.000000
     -0.000475      -0.000116       0.000000
     -0.000473      -0.000258       0.000000
     -0.000316      -0.000117       0.000000
     -0.000326       0.000002       0.000000
     -0.000504       0.000016       0.000000
     -0.000475      -0.000116       0.000000
     -0.000129       0.000005       0.000000
     -0.000113       0.000144       0.000000
     -0.000345       0.000150       0.000000
     -0.000326       0.000002       0.000000
     -0.000113       0.000144       0.000000
     -0.000092       0.000365       0.000000
     -0.000364       0.000392       0.000000
     -0.000345       0.000150       0.000000
     -0.000326       0.000002       0.000000
     -0.000345       0.000150       0.000000
     -0.000581       0.000177       0.000000
     -0.000504       0.000016       0.000000
     -0.000345       0.000150       0.000000
     -0.000364       0.000392       0.000000
     -0.000714       0.000430       0.000000
     -0.000581       0.000177       0.000000
     -0.000092       0.000365       0.000000
     -0.000085       0.000525       0.000000
     -0.000207       0.000560       0.000000
     -0.000214       0.000382       0.000000
     -0.000085       0.000525       0.000000
     -0.000088       0.000721       0.000000
     -0.000204       0.000790       0.000000
     -0.000207       0.000560       0.000000
     -0.000214       0.000382       0.000000
     -0.000207       0.000560       0.000000
     -0.000368       0.000579       0.000000
     -0.000364       0.000392       0.000000
     -0.000207       0.000560       0.000000
     -0.000204       0.000790       0.000000
     -0.000365       0.000837       0.000000
     -0.000368       0.000579       0.000000
     -0.000088       0.000721       0.000000
     -0.000114       0.000949       0.000000
     -0.000221       0.001074       0.000000
     -0.000204       0.000790       0.000000
     -0.000114       0.000949       0.000000
     -0.000173       0.001186       0.000000
     -0.000281       0.001384       0.000000
     -0.000221       0.001074       0.000000
     -0.000204       0.000790       0.000000
     -0.000221       0.001074       0.000000
     -0.000369       0.001186       0.000000
     -0.000365       0.000837       0.000000
     -0.000221       0.001074       0.000000
     -0.000281       0.001384       0.000000
     -0.000424       0.001607       0.000000
     -0.000369       0.001186       0.000000
     -0.000364       0.000392       0.000000
     -0.000368       0.000579       0.000000
     -0.000574       0.000593       0.000000
     -0.000539       0.000404       0.000000
     -0.000368       0.000579       0.000000
     -0.000365       0.000837       0.000000
     -0.000600       0.000859       0.000000
     -0.000574       0.000593       0.000000
     -0.000539       0.000404       0.000000
     -0.000574       0.000593       0.000000
     -0.000804       0.000621       0.000000
     -0.000714       0.000430       0.000000
     -0.000574       0.000593       0.000000
     -0.000600       0.000859       0.000000
     -0.000911       0.000887       0.000000
     -0.000804       0.000621       0.000000
     -0.000365       0.000837       0.000000
     -0.000365       0.000999       0.000000
     -0.000471       0.001023       0.000000
     -0.000472       0.000850       0.000000
     -0.000365       0.000999       0.000000
     -0.000369       0.001186       0.000000
     -0.000470       0.001230       0.000000
     -0.000471       0.001023       0.000000
     -0.000472       0.000850       0.000000
     -0.000471       0.001023       0.000000
     -0.000606       0.001036       0.000000
     -0.000600       0.000859       0.000000
     -0.000471       0.001023       0.000000
     -0.000470       0.001230       0.000000
     -0.000604       0.001260       0.000000
     -0.000606       0.001036       0.000000
     -0.000369       0.001186       0.000000
     -0.000387       0.001393       0.000000
     -0.000481       0.001473       0.000000
     -0.000470       0.001230       0.000000
     -0.000387       0.001393       0.000000
     -0.000424       0.001607       0.000000
     -0.000518       0.001734       0.000000
     -0.000481       0.001473       0.000000
     -0.000470       0.001230       0.000000
     -0.000481       0.001473       0.000000
     -0.000604       0.001545       0.000000
     -0.000604       0.001260       0.000000
     -0.000481       0.001473       0.000000
     -0.000518       0.001734       0.000000
     -0.000636       0.001883       0.000000
     -0.000604       0.001545       0.000000
     -0.000600       0.000859       0.000000
     -0.000606       0.001036       0.000000
     -0.000776       0.001045       0.000000
     -0.000751       0.000868       0.000000
     -0.000606       0.001036       0.000000
     -0.000604       0.001260       0.000000
     -0.000792       0.001273       0.000000
     -0.000776       0.001045       0.000000
     -0.000751       0.000868       0.000000
     -0.000776       0.001045       0.000000
     -0.000972       0.001064       0.000000
     -0.000911       0.000887       0.000000
     -0.000776       0.001045       0.000000
     -0.000792       0.001273       0.000000
     -0.001042       0.001290       0.000000
     -0.000972       0.001064       0.000000
     -0.000604       0.001260       0.000000
     -0.000602       0.001394       0.000000
     -0.000687       0.001409       0.000000
     -0.000689       0.001268       0.000000
     -0.000602       0.001394       0.000000
     -0.000604       0.001545       0.000000
     -0.000683       0.001575       0.000000
     -0.000687       0.001409       0.000000
     -0.000689       0.001268       0.000000
     -0.000687       0.001409       0.000000
     -0.000792       0.001417       0.000000
     -0.000792       0.001273       0.000000
     -0.000687       0.001409       0.000000
     -0.000683       0.001575       0.000000
     -0.000787       0.001595       0.000000
     -0.000792       0.001417       0.000000
     -0.000604       0.001545       0.000000
     -0.000613       0.001712       0.000000
     -0.000687       0.001768       0.000000
     -0.000683       0.001575       0.000000
     -0.000613       0.001712       0.000000
     -0.000636       0.001883       0.000000
     -0.000710       0.001975       0.000000
     -0.000687       0.001768       0.000000
     -0.000683       0.001575       0.000000
     -0.000687       0.001768       0.000000
     -0.000781       0.001822       0.000000
     -0.000787       0.001595       0.000000
     -0.000687       0.001768       0.000000
     -0.000710       0.001975       0.000000
     -0.000801       0.002092       0.000000
     -0.000781       0.001822       0.000000
     -0.000792       0.001273       0.000000
     -0.000792       0.001417       0.000000
     -0.000926       0.001422       0.000000
     -0.000912       0.001278       0.000000
     -0.000792       0.001417       0.000000
     -0.000787       0.001595       0.000000
     -0.000933       0.001602       0.000000
     -0.000926       0.001422       0.000000
     -0.000912       0.001278       0.000000
     -0.000926       0.001422       0.000000
     -0.001082       0.001434       0.000000
     -0.001042       0.001290       0.000000
     -0.000926       0.001422       0.000000
     -0.000933       0.001602       0.000000
     -0.001131       0.001615       0.000000
     -0.001082       0.001434       0.000000
     -0.000787       0.001595       0.000000
     -0.000781       0.001822       0.000000
     -0.000919       0.001862       0.000000
     -0.000933       0.001602       0.000000
     -0.000781       0.001822       0.000000
     -0.000801       0.002092       0.000000
     -0.000930       0.002274       0.000000
     -0.000919       0.001862       0.000000
     -0.000933       0.001602       0.000000
     -0.000919       0.001862       0.000000
     -0.001199       0.001888       0.000000
     -0.001131       0.001615       0.000000
     -0.000919       0.001862       0.000000
     -0.000930       0.002274       0.000000
     -0.001317       0.002864       0.000000
     -0.001199       0.001888       0.000000
      0.000000       0.000000       0.000000
      0.000000       0.000000       0.000000
      0.000019       0.000304       0.000000
      0.000080       0.000242       0.000000
      0.000000       0.000000       0.000000
      0.000000       0.000000       0.000000
     -0.000063       0.000352       0.000000
      0.000019       0.000304       0.000000
      0.000080       0.000242       0.000000
      0.000019       0.000304       0.000000
     -0.000047       0.000664       0.000000
      0.000066       0.000520       0.000000
      0.000019       0.000304       0.000000
     -0.000063       0.000352       0.000000
     -0.000197       0.000772       0.000000
     -0.000047       0.000664       0.000000
      0.000000       0.000000       0.000000
      0.000000       0.000000       0.000000
     -0.000157       0.000390       0.000000
     -0.000063       0.000352       0.000000
      0.000000       0.000000       0.000000
      0.000000       0.000000       0.000000
     -0.000265       0.000433       0.000000
     -0.000157       0.000390       0.000000
     -0.000063       0.000352       0.000000
     -0.000157       0.000390       0.000000
     -0.000367       0.000852       0.000000
     -0.000197       0.000772       0.000000
     -0.000157       0.000390       0.000000
     -0.000265       0.000433       0.000000
     -0.000554       0.000936       0.000000
     -0.000367       0.000852       0.000000
      0.000000       0.000000       0.000000
      0.000000       0.000000       0.000000
     -0.000415       0.000522       0.000000
     -0.000265       0.000433       0.000000
      0.000000       0.000000       0.000000
      0.000000       0.000000       0.000000
     -0.000644       0.000790       0.000000
     -0.000415       0.000522       0.000000
     -0.000265       0.000433       0.000000
     -0.000415       0.000522       0.000000
     -0.000763       0.001073       0.000000
     -0.000554       0.000936       0.000000
     -0.000415       0.000522       0.000000
     -0.000644       0.000790       0.000000
     -0.000981       0.001311       0.000000
     -0.000763       0.001073       0.000000
      0.000066       0.000520       0.000000
     -0.000047       0.000664       0.000000
     -0.000180       0.001084       0.000000
     -0.000020       0.000833       0.000000
     -0.000047       0.000664       0.000000
     -0.000197       0.000772       0.000000
     -0.000387       0.001256       0.000000
     -0.000180       0.001084       0.000000
     -0.000020       0.000833       0.000000
     -0.000180       0.001084       0.000000
     -0.000383       0.001583       0.000000
     -0.000173       0.001186       0.000000
     -0.000180       0.001084       0.000000
     -0.000387       0.001256       0.000000
     -0.000628       0.001797       0.000000
     -0.000383       0.001583       0.000000
     -0.000197       0.000772       0.000000
     -0.000367       0.000852       0.000000
     -0.000605       0.001365       0.000000
     -0.000387       0.001256       0.000000
     -0.000367       0.000852       0.000000
     -0.000554       0.000936       0.000000
     -0.000822       0.001459       0.000000
     -0.000605       0.001365       0.000000
     -0.000387       0.001256       0.000000
     -0.000605       0.001365       0.000000
     -0.000848       0.001897       0.000000
     -0.000628       0.001797       0.000000
     -0.000605       0.001365       0.000000
     -0.000822       0.001459       0.000000
     -0.001055       0.001971       0.000000
     -0.000848       0.001897       0.000000
     -0.000554       0.000936       0.000000
     -0.000763       0.001073       0.000000
     -0.001037       0.001587       0.000000
     -0.000822       0.001459       0.000000
     -0.000763       0.001073       0.000000
     -0.000981       0.001311       0.000000
     -0.001239       0.001780       0.000000
     -0.001037       0.001587       0.000000
     -0.000822       0.001459       0.000000
     -0.001037       0.001587       0.000000
     -0.001255       0.002066       0.000000
     -0.001055       0.001971       0.000000
     -0.001037       0.001587       0.000000
     -0.001239       0.001780       0.000000
     -0.001442       0.002209       0.000000
     -0.001255       0.002066       0.000000
     -0.000628       0.001797       0.000000
     -0.000848       0.001897       0.000000
     -0.001056       0.002412       0.000000
     -0.000894       0.002359       0.000000
     -0.000848       0.001897       0.000000
     -0.001055       0.001971       0.000000
     -0.001226       0.002457       0.000000
     -0.001056       0.002412       0.000000
     -0.000894       0.002359       0.000000
     -0.001056       0.002412       0.000000
     -0.001151       0.002889       0.000000
     -0.001043       0.002869       0.000000
     -0.001056       0.002412       0.000000
     -0.001226       0.002457       0.000000
     -0.001301       0.002918       0.000000
     -0.001151       0.002889       0.000000
     -0.001055       0.001971       0.000000
     -0.001255       0.002066       0.000000
     -0.001407       0.002517       0.000000
     -0.001226       0.002457       0.000000
     -0.001255       0.002066       0.000000
     -0.001442       0.002209       0.000000
     -0.001582       0.002603       0.000000
     -0.001407       0.002517       0.000000
     -0.001226       0.002457       0.000000
     -0.001407       0.002517       0.000000
     -0.001472       0.002951       0.000000
     -0.001301       0.002918       0.000000
     -0.001407       0.002517       0.000000
     -0.001582       0.002603       0.000000
     -0.001644       0.002978       0.000000
     -0.001472       0.002951       0.000000
     -0.000173       0.001186       0.000000
     -0.000266       0.001405       0.000000
     -0.000389       0.001666       0.000000
     -0.000281       0.001384       0.000000
     -0.000266       0.001405       0.000000
     -0.000383       0.001583       0.000000
     -0.000522       0.001874       0.000000
     -0.000389       0.001666       0.000000
     -0.000281       0.001384       0.000000
     -0.000389       0.001666       0.000000
     -0.000554       0.001978       0.000000
     -0.000424       0.001607       0.000000
     -0.000389       0.001666       0.000000
     -0.000522       0.001874       0.000000
     -0.000695       0.002199       0.000000
     -0.000554       0.001978       0.000000
     -0.000383       0.001583       0.000000
     -0.000507       0.001711       0.000000
     -0.000649       0.002004       0.000000
     -0.000522       0.001874       0.000000
     -0.000507       0.001711       0.000000
     -0.000628       0.001797       0.000000
     -0.000762       0.002080       0.000000
     -0.000649       0.002004       0.000000
     -0.000522       0.001874       0.000000
     -0.000649       0.002004       0.000000
     -0.000805       0.002307       0.000000