# vtk DataFile Version 2.0
time_10.vtk
ASCII
DATASET UNSTRUCTURED_GRID
POINTS  1152 float
      0.000000       0.000000       0.000000
      0.083333       0.000000       0.000000
      0.083333       0.083333       0.000000
      0.000000       0.083333       0.000000
      0.083333       0.000000       0.000000
      0.166667       0.000000       0.000000
      0.166667       0.083333       0.000000
      0.083333       0.083333       0.000000
      0.000000       0.083333       0.000000
      0.083333       0.083333       0.000000
      0.083333       0.166667       0.000000
      0.000000       0.166667       0.000000
      0.083333       0.083333       0.000000
      0.166667       0.083333       0.000000
      0.166667       0.166667       0.000000
      0.083333       0.166667       0.000000
      0.166667       0.000000       0.000000
      0.250000       0.000000       0.000000
      0.250000       0.083333       0.000000
      0.166667       0.083333       0.000000
      0.250000       0.000000       0.000000
      0.333333       0.000000       0.000000
      0.333333       0.083333       0.000000
      0.250000       0.083333       0.000000
      0.166667       0.083333       0.000000
      0.250000       0.083333       0.000000
      0.250000       0.166667       0.000000
      0.166667       0.166667       0.000000
      0.250000       0.083333       0.000000
      0.333333       0.083333       0.000000
      0.333333       0.166667       0.000000
      0.250000       0.166667       0.000000
      0.333333       0.000000       0.000000
      0.416667      -0.000000       0.000000
      0.416667       0.083333       0.000000
      0.333333       0.083333       0.000000
      0.416667      -0.000000       0.000000
      0.500000       0.000000       0.000000
      0.500000       0.083333       0.000000
      0.416667       0.083333       0.000000
      0.333333       0.083333       0.000000
      0.416667       0.083333       0.000000
      0.416667       0.166667       0.000000
      0.333333       0.166667       0.000000
      0.416667       0.083333       0.000000
      0.500000       0.083333       0.000000
      0.500000       0.166667       0.000000
      0.416667       0.166667       0.000000
      0.000000       0.166667       0.000000
      0.083333       0.166667       0.000000
      0.083333       0.250000       0.000000
      0.000000       0.250000       0.000000
      0.083333       0.166667       0.000000
      0.166667       0.166667       0.000000
      0.166667       0.250000       0.000000
      0.083333       0.250000       0.000000
      0.000000       0.250000       0.000000
      0.083333       0.250000       0.000000
      0.083333       0.333333       0.000000
      0.000000       0.333333       0.000000
      0.083333       0.250000       0.000000
      0.166667       0.250000       0.000000
      0.166667       0.333333       0.000000
      0.083333       0.333333       0.000000
      0.166667       0.166667       0.000000
      0.250000       0.166667       0.000000
      0.250000       0.250000       0.000000
      0.166667       0.250000       0.000000
      0.250000       0.166667       0.000000
      0.333333       0.166667       0.000000
      0.333333       0.250000       0.000000
      0.250000       0.250000       0.000000
      0.166667       0.250000       0.000000
      0.250000       0.250000       0.000000
      0.250000       0.333333       0.000000
      0.166667       0.333333       0.000000
      0.250000       0.250000       0.000000
      0.333333       0.250000       0.000000
      0.333333       0.333333       0.000000
      0.250000       0.333333       0.000000
      0.333333       0.166667       0.000000
      0.416667       0.166667       0.000000
      0.416667       0.250000       0.000000
      0.333333       0.250000       0.000000
      0.416667       0.166667       0.000000
      0.500000       0.166667       0.000000
      0.500000       0.250000       0.000000
      0.416667       0.250000       0.000000
      0.333333       0.250000       0.000000
      0.416667       0.250000       0.000000
      0.416667       0.333333       0.000000
      0.333333       0.333333       0.000000
      0.416667       0.250000       0.000000
      0.500000       0.250000       0.000000
      0.500000       0.333333       0.000000
      0.416667       0.333333       0.000000
      0.000000       0.333333       0.000000
      0.083333       0.333333       0.000000
      0.083333       0.416667       0.000000
     -0.000000       0.416667       0.000000
      0.083333       0.333333       0.000000
      0.166667       0.333333       0.000000
      0.166667       0.416667       0.000000
      0.083333       0.416667       0.000000
     -0.000000       0.416667       0.000000
      0.083333       0.416667       0.000000
      0.083333       0.500000       0.000000
      0.000000       0.500000       0.000000
      0.083333       0.416667       0.000000
      0.166667       0.416667       0.000000
      0.166667       0.500000       0.000000
      0.083333       0.500000       0.000000
      0.166667       0.333333       0.000000
      0.250000       0.333333       0.000000
      0.250000       0.416667       0.000000
      0.166667       0.416667       0.000000
      0.250000       0.333333       0.000000
      0.333333       0.333333       0.000000
      0.333333       0.416667       0.000000
      0.250000       0.416667       0.000000
      0.166667       0.416667       0.000000
      0.250000       0.416667       0.000000
      0.250000       0.500000       0.000000
      0.166667       0.500000       0.000000
      0.250000       0.416667       0.000000
      0.333333       0.416667       0.000000
      0.333333       0.500000       0.000000
      0.250000       0.500000       0.000000
      0.333333       0.333333       0.000000
      0.375000       0.333333       0.000000
      0.375000       0.375000       0.000000
      0.333333       0.375000       0.000000
      0.375000       0.333333       0.000000
      0.416667       0.333333       0.000000
      0.416667       0.375000       0.000000
      0.375000       0.375000       0.000000
      0.333333       0.375000       0.000000
      0.375000       0.375000       0.000000
      0.375000       0.416667       0.000000
      0.333333       0.416667       0.000000
      0.375000       0.375000       0.000000
      0.416667       0.375000       0.000000
      0.416667       0.416667       0.000000
      0.375000       0.416667       0.000000
      0.416667       0.333333       0.000000
      0.458333       0.333333       0.000000
      0.458333       0.375000       0.000000
      0.416667       0.375000       0.000000
      0.458333       0.333333       0.000000
      0.500000       0.333333       0.000000
      0.500000       0.375000       0.000000
      0.458333       0.375000       0.000000
      0.416667       0.375000       0.000000
      0.458333       0.375000       0.000000
      0.458333       0.416667       0.000000
      0.416667       0.416667       0.000000
      0.458333       0.375000       0.000000
      0.500000       0.375000       0.000000
      0.500000       0.416667       0.000000
      0.458333       0.416667       0.000000
      0.333333       0.416667       0.000000
      0.375000       0.416667       0.000000
      0.375000       0.458333       0.000000
      0.333333       0.458333       0.000000
      0.375000       0.416667       0.000000
      0.416667       0.416667       0.000000
      0.416667       0.458333       0.000000
      0.375000       0.458333       0.000000
      0.333333       0.458333       0.000000
      0.375000       0.458333       0.000000
      0.375000       0.500000       0.000000
      0.333333       0.500000       0.000000
      0.375000       0.458333       0.000000
      0.416667       0.458333       0.000000
      0.416667       0.500000       0.000000
      0.375000       0.500000       0.000000
      0.416667       0.416667       0.000000
      0.437500       0.416667       0.000000
      0.437500       0.437500       0.000000
      0.416667       0.437500       0.000000
      0.437500       0.416667       0.000000
      0.458333       0.416667       0.000000
      0.458333       0.437500       0.000000
      0.437500       0.437500       0.000000
      0.416667       0.437500       0.000000
      0.437500       0.437500       0.000000
      0.437500       0.458333       0.000000
      0.416667       0.458333       0.000000
      0.437500       0.437500       0.000000
      0.458333       0.437500       0.000000
      0.458333       0.458333       0.000000
      0.437500       0.458333       0.000000
      0.458333       0.416667       0.000000
      0.479167       0.416667       0.000000
      0.479167       0.437500       0.000000
      0.458333       0.437500       0.000000
      0.479167       0.416667       0.000000
      0.500000       0.416667       0.000000
      0.500000       0.437500       0.000000
      0.479167       0.437500       0.000000
      0.458333       0.437500       0.000000
      0.479167       0.437500       0.000000
      0.479167       0.458333       0.000000
      0.458333       0.458333       0.000000
      0.479167       0.437500       0.000000
      0.500000       0.437500       0.000000
      0.500000       0.458333       0.000000
      0.479167       0.458333       0.000000
      0.416667       0.458333       0.000000
      0.437500       0.458333       0.000000
      0.437500       0.479167       0.000000
      0.416667       0.479167       0.000000
      0.437500       0.458333       0.000000
      0.458333       0.458333       0.000000
      0.458333       0.479167       0.000000
      0.437500       0.479167       0.000000
      0.416667       0.479167       0.000000
      0.437500       0.479167       0.000000
      0.437500       0.500000       0.000000
      0.416667       0.500000       0.000000
[...]
POINT_DATA  1152
VECTORS U float 
      0.000000       0.000000       0.000000
      0.000000       0.000000       0.000000
      0.000016      -0.000002       0.000000
      0.000013      -0.000001       0.000000
      0.000000       0.000000       0.000000
      0.000000       0.000000       0.000000
      0.000020       0.000004       0.000000
      0.000016      -0.000002       0.000000
      0.000013      -0.000001       0.000000
      0.000016      -0.000002       0.000000
      0.000020      -0.000006       0.000000
      0.000016      -0.000013       0.000000
      0.000016      -0.000002       0.000000
      0.000020       0.000004       0.000000
      0.000024       0.000005       0.000000
      0.000020      -0.000006       0.000000
      0.000000       0.000000       0.000000
      0.000000       0.000000       0.000000
      0.000023       0.000011       0.000000
      0.000020       0.000004       0.000000
      0.000000       0.000000       0.000000
      0.000000       0.000000       0.000000
      0.000025       0.000022       0.000000
      0.000023       0.000011       0.000000
      0.000020       0.000004       0.000000
      0.000023       0.000011       0.000000
      0.000028       0.000021       0.000000
      0.000024       0.000005       0.000000
      0.000023       0.000011       0.000000
      0.000025       0.000022       0.000000
      0.000031       0.000043       0.000000
      0.000028       0.000021       0.000000
      0.000000       0.000000       0.000000
      0.000000       0.000000       0.000000
      0.000023       0.000034       0.000000
      0.000025       0.000022       0.000000
      0.000000       0.000000       0.000000
      0.000000       0.000000       0.000000
      0.000016       0.000046       0.000000
      0.000023       0.000034       0.000000
      0.000025       0.000022       0.000000
      0.000023       0.000034       0.000000
      0.000027       0.000070       0.000000
      0.000031       0.000043       0.000000
      0.000023       0.000034       0.000000
      0.000016       0.000046       0.000000
      0.000014       0.000099       0.000000
      0.000027       0.000070       0.000000
      0.000016      -0.000013       0.000000
      0.000020      -0.000006       0.000000
      0.000008      -0.000011       0.000000
      0.000004      -0.000027       0.000000
      0.000020      -0.000006       0.000000
      0.000024       0.000005       0.000000
      0.000012       0.000006       0.000000
      0.000008      -0.000011       0.000000
      0.000004      -0.000027       0.000000
      0.000008      -0.000011       0.000000
     -0.000017      -0.000015       0.000000
     -0.000020      -0.000038       0.000000
      0.000008      -0.000011       0.000000
      0.000012       0.000006       0.000000
     -0.000015       0.000005       0.000000
     -0.000017      -0.000015       0.000000
      0.000024       0.000005       0.000000
      0.000028       0.000021       0.000000
      0.000017       0.000028       0.000000
      0.000012       0.000006       0.000000
      0.000028       0.000021       0.000000
      0.000031       0.000043       0.000000
      0.000020       0.000061       0.000000
      0.000017       0.000028       0.000000
      0.000012       0.000006       0.000000
      0.000017       0.000028       0.000000
     -0.000011       0.000032       0.000000
     -0.000015       0.000005       0.000000
      0.000017       0.000028       0.000000
      0.000020       0.000061       0.000000
     -0.000007       0.000075       0.000000
     -0.000011       0.000032       0.000000
      0.000031       0.000043       0.000000
      0.000027       0.000070       0.000000
      0.000017       0.000108       0.000000
      0.000020       0.000061       0.000000
      0.000027       0.000070       0.000000
      0.000014       0.000099       0.000000
      0.000000       0.000159       0.000000
      0.000017       0.000108       0.000000
      0.000020       0.000061       0.000000
      0.000017       0.000108       0.000000
     -0.000007       0.000143       0.000000
     -0.000007       0.000075       0.000000
      0.000017       0.000108       0.000000
      0.000000       0.000159       0.000000
     -0.000025       0.000227       0.000000
     -0.000007       0.000143       0.000000
     -0.000020      -0.000038       0.000000
     -0.000017      -0.000015       0.000000
     -0.000049      -0.000018       0.000000
     -0.000049      -0.000043       0.000000
     -0.000017      -0.000015       0.000000
     -0.000015       0.000005       0.000000
     -0.000050       0.000004       0.000000
     -0.000049      -0.000018       0.000000
     -0.000049      -0.000043       0.000000
     -0.000049      -0.000018       0.000000
     -0.000078      -0.000018       0.000000
     -0.000077      -0.000044       0.000000
     -0.000049      -0.000018       0.000000
     -0.000050       0.000004       0.000000
     -0.000083       0.000007       0.000000
     -0.000078      -0.000018       0.000000
     -0.000015       0.000005       0.000000
     -0.000011       0.000032       0.000000
     -0.000053       0.000033       0.000000
     -0.000050       0.000004       0.000000
     -0.000011       0.000032       0.000000
     -0.000007       0.000075       0.000000
     -0.000056       0.000080       0.000000
     -0.000053       0.000033       0.000000
     -0.000050       0.000004       0.000000
     -0.000053       0.000033       0.000000
     -0.000098       0.000038       0.000000
     -0.000083       0.000007       0.000000
     -0.000053       0.000033       0.000000
     -0.000056       0.000080       0.000000
     -0.000122       0.000087       0.000000
     -0.000098       0.000038       0.000000
     -0.000007       0.000075       0.000000
     -0.000006       0.000106       0.000000
     -0.000027       0.000113       0.000000
     -0.000029       0.000078       0.000000
     -0.000006       0.000106       0.000000
     -0.000007       0.000143       0.000000
     -0.000026       0.000158       0.000000
     -0.000027       0.000113       0.000000
     -0.000029       0.000078       0.000000
     -0.000027       0.000113       0.000000
     -0.000056       0.000117       0.000000
     -0.000056       0.000080       0.000000
     -0.000027       0.000113       0.000000
     -0.000026       0.000158       0.000000
     -0.000054       0.000167       0.000000
     -0.000056       0.000117       0.000000
     -0.000007       0.000143       0.000000
     -0.000013       0.000185       0.000000
     -0.000030       0.000211       0.000000
     -0.000026       0.000158       0.000000
     -0.000013       0.000185       0.000000
     -0.000025       0.000227       0.000000
     -0.000043       0.000265       0.000000
     -0.000030       0.000211       0.000000
     -0.000026       0.000158       0.000000
     -0.000030       0.000211       0.000000
     -0.000055       0.000235       0.000000
     -0.000054       0.000167       0.000000
     -0.000030       0.000211       0.000000
     -0.000043       0.000265       0.000000
     -0.000067       0.000310       0.000000
     -0.000055       0.000235       0.000000
     -0.000056       0.000080       0.000000
     -0.000056       0.000117       0.000000
     -0.000094       0.000119       0.000000
     -0.000088       0.000082       0.000000
     -0.000056       0.000117       0.000000
     -0.000054       0.000167       0.000000
     -0.000097       0.000172       0.000000
     -0.000094       0.000119       0.000000
     -0.000088       0.000082       0.000000
     -0.000094       0.000119       0.000000
     -0.000138       0.000124       0.000000
     -0.000122       0.000087       0.000000
     -0.000094       0.000119       0.000000
     -0.000097       0.000172       0.000000
     -0.000157       0.000176       0.000000
     -0.000138       0.000124       0.000000
     -0.000054       0.000167       0.000000
     -0.000054       0.000199       0.000000
     -0.000073       0.000204       0.000000
     -0.000073       0.000170       0.000000
     -0.000054       0.000199       0.000000
     -0.000055       0.000235       0.000000
     -0.000072       0.000245       0.000000
     -0.000073       0.000204       0.000000
     -0.000073       0.000170       0.000000
     -0.000073       0.000204       0.000000
     -0.000097       0.000207       0.000000
     -0.000097       0.000172       0.000000
     -0.000073       0.000204       0.000000
     -0.000072       0.000245       0.000000
     -0.000096       0.000251       0.000000
     -0.000097       0.000207       0.000000
     -0.000055       0.000235       0.000000
     -0.000059       0.000273       0.000000
     -0.000075       0.000290       0.000000
     -0.000072       0.000245       0.000000
     -0.000059       0.000273       0.000000
     -0.000067       0.000310       0.000000
     -0.000083       0.000335       0.000000
     -0.000075       0.000290       0.000000
     -0.000072       0.000245       0.000000
     -0.000075       0.000290       0.000000
     -0.000095       0.000306       0.000000
     -0.000096       0.000251       0.000000
     -0.000075       0.000290       0.000000
     -0.000083       0.000335       0.000000
     -0.000102       0.000364       0.000000
     -0.000095       0.000306       0.000000
     -0.000097       0.000172       0.000000
     -0.000097       0.000207       0.000000
     -0.000129       0.000208       0.000000
     -0.000126       0.000173       0.000000
     -0.000097       0.000207       0.000000
     -0.000096       0.000251       0.000000
     -0.000131       0.000254       0.000000
     -0.000129       0.000208       0.000000
     -0.000126       0.000173       0.000000
     -0.000129       0.000208       0.000000
     -0.000168       0.000211       0.000000
     -0.000157       0.000176       0.000000
     -0.000129       0.000208       0.000000
     -0.000131       0.000254       0.000000
     -0.000179       0.000256       0.000000
     -0.000168       0.000211       0.000000
     -0.000096       0.000251       0.000000
     -0.000095       0.000277       0.000000
     -0.000110       0.000281       0.000000
     -0.000111       0.000253       0.000000
     -0.000095       0.000277       0.000000
     -0.000095       0.000306       0.000000
     -0.000109       0.000313       0.000000
     -0.000110       0.000281       0.000000
     -0.000111       0.000253       0.000000
     -0.000110       0.000281       0.000000
     -0.000130       0.000282       0.000000
     -0.000131       0.000254       0.000000
     -0.000110       0.000281       0.000000
     -0.000109       0.000313       0.000000
     -0.000128       0.000317       0.000000
     -0.000130       0.000282       0.000000
     -0.000095       0.000306       0.000000
     -0.000098       0.000336       0.000000
     -0.000110       0.000348       0.000000
     -0.000109       0.000313       0.000000
     -0.000098       0.000336       0.000000
     -0.000102       0.000364       0.000000
     -0.000115       0.000381       0.000000
     -0.000110       0.000348       0.000000
     -0.000109       0.000313       0.000000
     -0.000110       0.000348       0.000000
     -0.000126       0.000358       0.000000
     -0.000128       0.000317       0.000000
     -0.000110       0.000348       0.000000
     -0.000115       0.000381       0.000000
     -0.000130       0.000401       0.000000
     -0.000126       0.000358       0.000000
     -0.000131       0.000254       0.000000
     -0.000130       0.000282       0.000000
     -0.000155       0.000283       0.000000
     -0.000154       0.000254       0.000000
     -0.000130       0.000282       0.000000
     -0.000128       0.000317       0.000000
     -0.000154       0.000318       0.000000
     -0.000155       0.000283       0.000000
     -0.000154       0.000254       0.000000
     -0.000155       0.000283       0.000000
     -0.000185       0.000284       0.000000
     -0.000179       0.000256       0.000000
     -0.000155       0.000283       0.000000
     -0.000154       0.000318       0.000000
     -0.000191       0.000319       0.000000
     -0.000185       0.000284       0.000000
     -0.000128       0.000317       0.000000
     -0.000126       0.000358       0.000000
     -0.000151       0.000366       0.000000
     -0.000154       0.000318       0.000000
     -0.000126       0.000358       0.000000
     -0.000130       0.000401       0.000000
     -0.000152       0.000427       0.000000
     -0.000151       0.000366       0.000000
     -0.000154       0.000318       0.000000
     -0.000151       0.000366       0.000000
     -0.000198       0.000368       0.000000
     -0.000191       0.000319       0.000000
     -0.000151       0.000366       0.000000
     -0.000152       0.000427       0.000000
     -0.000198       0.000481       0.000000
     -0.000198       0.000368       0.000000
      0.000000       0.000000       0.000000
      0.000000       0.000000       0.000000
      0.000004       0.000056       0.000000
      0.000016       0.000046       0.000000
      0.000000       0.000000       0.000000
      0.000000       0.000000       0.000000
     -0.000011       0.000064       0.000000
      0.000004       0.000056       0.000000
      0.000016       0.000046       0.000000
      0.000004       0.000056       0.000000
     -0.000007       0.000123       0.000000
      0.000014       0.000099       0.000000
      0.000004       0.000056       0.000000
     -0.000011       0.000064       0.000000
     -0.000034       0.000138       0.000000
     -0.000007       0.000123       0.000000
      0.000000       0.000000       0.000000
      0.000000       0.000000       0.000000
     -0.000028       0.000069       0.000000
     -0.000011       0.000064       0.000000
      0.000000       0.000000       0.000000
      0.000000       0.000000       0.000000
     -0.000046       0.000073       0.000000
     -0.000028       0.000069       0.000000
     -0.000011       0.000064       0.000000
     -0.000028       0.000069       0.000000
     -0.000062       0.000148       0.000000
     -0.000034       0.000138       0.000000
     -0.000028       0.000069       0.000000
     -0.000046       0.000073       0.000000
     -0.000092       0.000157       0.000000
     -0.000062       0.000148       0.000000
      0.000000       0.000000       0.000000
      0.000000       0.000000       0.000000
     -0.000069       0.000085       0.000000
     -0.000046       0.000073       0.000000
      0.000000       0.000000       0.000000
      0.000000       0.000000       0.000000
     -0.000106       0.000126       0.000000
     -0.000069       0.000085       0.000000
     -0.000046       0.000073       0.000000
     -0.000069       0.000085       0.000000
     -0.000126       0.000176       0.000000
     -0.000092       0.000157       0.000000
     -0.000069       0.000085       0.000000
     -0.000106       0.000126       0.000000
     -0.000163       0.000213       0.000000
     -0.000126       0.000176       0.000000
      0.000014       0.000099       0.000000
     -0.000007       0.000123       0.000000
     -0.000030       0.000199       0.000000
      0.000000       0.000159       0.000000
     -0.000007       0.000123       0.000000
     -0.000034       0.000138       0.000000
     -0.000065       0.000221       0.000000
     -0.000030       0.000199       0.000000
      0.000000       0.000159       0.000000
     -0.000030       0.000199       0.000000
     -0.000063       0.000286       0.000000
     -0.000025       0.000227       0.000000
     -0.000030       0.000199       0.000000
     -0.000065       0.000221       0.000000
     -0.000102       0.000311       0.000000
     -0.000063       0.000286       0.000000
     -0.000034       0.000138       0.000000
     -0.000062       0.000148       0.000000
     -0.000100       0.000233       0.000000
     -0.000065       0.000221       0.000000
     -0.000062       0.000148       0.000000
     -0.000092       0.000157       0.000000
     -0.000134       0.000244       0.000000
     -0.000100       0.000233       0.000000
     -0.000065       0.000221       0.000000
     -0.000100       0.000233       0.000000
     -0.000136       0.000321       0.000000
     -0.000102       0.000311       0.000000
     -0.000100       0.000233       0.000000
     -0.000134       0.000244       0.000000
     -0.000170       0.000330       0.000000
     -0.000136       0.000321       0.000000
     -0.000092       0.000157       0.000000
     -0.000126       0.000176       0.000000
     -0.000170       0.000262       0.000000
     -0.000134       0.000244       0.000000
     -0.000126       0.000176       0.000000
     -0.000163       0.000213       0.000000
     -0.000204       0.000292       0.000000
     -0.000170       0.000262       0.000000
     -0.000134       0.000244       0.000000
     -0.000170       0.000262       0.000000
     -0.000204       0.000344       0.000000
     -0.000170       0.000330       0.000000
     -0.000170       0.000262       0.000000
     -0.000204       0.000292       0.000000
     -0.000236       0.000366       0.000000
     -0.000204       0.000344       0.000000
     -0.000102       0.000311       0.000000
     -0.000136       0.000321       0.000000
     -0.000167       0.000406       0.000000
     -0.000141       0.000401       0.000000
     -0.000136       0.000321       0.000000
     -0.000170       0.000330       0.000000
     -0.000196       0.000412       0.000000
     -0.000167       0.000406       0.000000
     -0.000141       0.000401       0.000000
     -0.000167       0.000406       0.000000
     -0.000181       0.000486       0.000000
     -0.000162       0.000483       0.000000
     -0.000167       0.000406       0.000000
     -0.000196       0.000412       0.000000
     -0.000208       0.000491       0.000000
     -0.000181       0.000486       0.000000
     -0.000170       0.000330       0.000000
     -0.000204       0.000344       0.000000
     -0.000227       0.000421       0.000000
     -0.000196       0.000412       0.000000
     -0.000204       0.000344       0.000000
     -0.000236       0.000366       0.000000
     -0.000258       0.000435       0.000000
     -0.000227       0.000421       0.000000
     -0.000196       0.000412       0.000000
     -0.000227       0.000421       0.000000
     -0.000238       0.000497       0.000000
     -0.000208       0.000491       0.000000
     -0.000227       0.000421       0.000000
     -0.000258       0.000435       0.000000
     -0.000268       0.000502       0.000000
     -0.000238       0.000497       0.000000
     -0.000025       0.000227       0.000000
     -0.000043       0.000261       0.000000
     -0.000064       0.000308       0.000000
     -0.000043       0.000265       0.000000
     -0.000043       0.000261       0.000000
     -0.000063       0.000286       0.000000
     -0.000085       0.000335       0.000000
     -0.000064       0.000308       0.000000
     -0.000043       0.000265       0.000000
     -0.000064       0.000308       0.000000
     -0.000091       0.000362       0.000000
     -0.000067       0.000310       0.000000
     -0.000064       0.000308       0.000000
     -0.000085       0.000335       0.000000
     -0.000112       0.000386       0.000000
     -0.000091       0.000362       0.000000
     -0.000063       0.000286       0.000000
     -0.000083       0.000301       0.000000
     -0.000105       0.000349       0.000000
     -0.000085       0.000335       0.000000
     -0.000083       0.000301       0.000000
     -0.000102       0.000311       0.000000
     -0.000122       0.000356       0.000000
     -0.000105       0.000349       0.000000
     -0.000085       0.000335       0.000000
     -0.000105       0.000349       0.000000
     -0.000127       0.000396       0.000000