# vtk DataFile Version 2.0
time_10.vtk
ASCII
DATASET UNSTRUCTURED_GRID
POINTS  1152 float
      0.000000       0.000000       0.000000
      0.083333       0.000000       0.000000
      0.083333       0.083333       0.000000
      0.000000       0.083333       0.000000
      0.083333       0.000000       0.000000
      0.166667       0.000000       0.000000
      0.166667       0.083333       0.000000
      0.083333       0.083333       0.000000
      0.000000       0.083333       0.000000
      0.083333       0.083333       0.000000
      0.083333       0.166667       0.000000
      0.000000       0.166667       0.000000
      0.083333       0.083333       0.000000
      0.166667       0.083333       0.000000
      0.166667       0.166667       0.000000
      0.083333       0.166667       0.000000
      0.166667       0.000000       0.000000
      0.250000       0.000000       0.000000
      0.250000       0.083333       0.000000
      0.166667       0.083333       0.000000
      0.250000       0.000000       0.000000
      0.333333       0.000000       0.000000
      0.333333       0.083333       0.000000
      0.250000       0.083333       0.000000
      0.166667       0.083333       0.000000
      0.250000       0.083333       0.000000
      0.250000       0.166667       0.000000
      0.166667       0.166667       0.000000
      0.250000       0.083333       0.000000
      0.333333       0.083333       0.000000
      0.333333       0.166667       0.000000
      0.250000       0.166667       0.000000
      0.333333       0.000000       0.000000
      0.416667      -0.000000       0.000000
      0.416667       0.083333       0.000000
      0.333333       0.083333       0.000000
      0.416667      -0.000000       0.000000
      0.500000       0.000000       0.000000
      0.500000       0.083333       0.000000
      0.416667       0.083333       0.000000
      0.333333       0.083333       0.000000
      0.416667       0.083333       0.000000
      0.416667       0.166667       0.000000
      0.333333       0.166667       0.000000
      0.416667       0.083333       0.000000
      0.500000       0.083333       0.000000
      0.500000       0.166667       0.000000
      0.416667       0.166667       0.000000
      0.000000       0.166667       0.000000
      0.083333       0.166667       0.000000
      0.083333       0.250000       0.000000
      0.000000       0.250000       0.000000
      0.083333       0.166667       0.000000
      0.166667       0.166667       0.000000
      0.166667       0.250000       0.000000
      0.083333       0.250000       0.000000
      0.000000       0.250000       0.000000
      0.083333       0.250000       0.000000
      0.083333       0.333333       0.000000
      0.000000       0.333333       0.000000
      0.083333       0.250000       0.000000
      0.166667       0.250000       0.000000
      0.166667       0.333333       0.000000
      0.083333       0.333333       0.000000
      0.166667       0.166667       0.000000
      0.250000       0.166667       0.000000
      0.250000       0.250000       0.000000
      0.166667       0.250000       0.000000
      0.250000       0.166667       0.000000
      0.333333       0.166667       0.000000
      0.333333       0.250000       0.000000
      0.250000       0.250000       0.000000
      0.166667       0.250000       0.000000
      0.250000       0.250000       0.000000
      0.250000       0.333333       0.000000
      0.166667       0.333333       0.000000
      0.250000       0.250000       0.000000
      0.333333       0.250000       0.000000
      0.333333       0.333333       0.000000
      0.250000       0.333333       0.000000
      0.333333       0.166667       0.000000
      0.416667       0.166667       0.000000
      0.416667       0.250000       0.000000
      0.333333       0.250000       0.000000
      0.416667       0.166667       0.000000
      0.500000       0.166667       0.000000
      0.500000       0.250000       0.000000
      0.416667       0.250000       0.000000
      0.333333       0.250000       0.000000
      0.416667       0.250000       0.000000
      0.416667       0.333333       0.000000
      0.333333       0.333333       0.000000
      0.416667       0.250000       0.000000
      0.500000       0.250000       0.000000
      0.500000       0.333333       0.000000
      0.416667       0.333333       0.000000
      0.000000       0.333333       0.000000
      0.083333       0.333333       0.000000
      0.083333       0.416667       0.000000
     -0.000000       0.416667       0.000000
      0.083333       0.333333       0.000000
      0.166667       0.333333       0.000000
      0.166667       0.416667       0.000000
      0.083333       0.416667       0.000000
     -0.000000       0.416667       0.000000
      0.083333       0.416667       0.000000
      0.083333       0.500000       0.000000
      0.000000       0.500000       0.000000
      0.083333       0.416667       0.000000
      0.166667       0.416667       0.000000
      0.166667       0.500000       0.000000
      0.083333       0.500000       0.000000
      0.166667       0.333333       0.000000
      0.250000       0.333333       0.000000
      0.250000       0.416667       0.000000
      0.166667       0.416667       0.000000
      0.250000       0.333333       0.000000
      0.333333       0.333333       0.000000
      0.333333       0.416667       0.000000
      0.250000       0.416667       0.000000
      0.166667       0.416667       0.000000
      0.250000       0.416667       0.000000
      0.250000       0.500000       0.000000
      0.166667       0.500000       0.000000
      0.250000       0.416667       0.000000
      0.333333       0.416667       0.000000
      0.333333       0.500000       0.000000
      0.250000       0.500000       0.000000
      0.333333       0.333333       0.000000
      0.375000       0.333333       0.000000
      0.375000       0.375000       0.000000
      0.333333       0.375000       0.000000
      0.375000       0.333333       0.000000
      0.416667       0.333333       0.000000
      0.416667       0.375000       0.000000
      0.375000       0.375000       0.000000
      0.333333       0.375000       0.000000
      0.375000       0.375000       0.000000
      0.375000       0.416667       0.000000
      0.333333       0.416667       0.000000
      0.375000       0.375000       0.000000
      0.416667       0.375000       0.000000
      0.416667       0.416667       0.000000
      0.375000       0.416667       0.000000
      0.416667       0.333333       0.000000
      0.458333       0.333333       0.000000
      0.458333       0.375000       0.000000
      0.416667       0.375000       0.000000
      0.458333       0.333333       0.000000
      0.500000       0.333333       0.000000
      0.500000       0.375000       0.000000
      0.458333       0.375000       0.000000
      0.416667       0.375000       0.000000
      0.458333       0.375000       0.000000
      0.458333       0.416667       0.000000
      0.416667       0.416667       0.000000
      0.458333       0.375000       0.000000
      0.500000       0.375000       0.000000
      0.500000       0.416667       0.000000
      0.458333       0.416667       0.000000
      0.333333       0.416667       0.000000
      0.375000       0.416667       0.000000
      0.375000       0.458333       0.000000
      0.333333       0.458333       0.000000
      0.375000       0.416667       0.000000
      0.416667       0.416667       0.000000
      0.416667       0.458333       0.000000
      0.375000       0.458333       0.000000
      0.333333       0.458333       0.000000
      0.375000       0.458333       0.000000
      0.375000       0.500000       0.000000
      0.333333       0.500000       0.000000
      0.375000       0.458333       0.000000
      0.416667       0.458333       0.000000
      0.416667       0.500000       0.000000
      0.375000       0.500000       0.000000
      0.416667       0.416667       0.000000
      0.437500       0.416667       0.000000
      0.437500       0.437500       0.000000
      0.416667       0.437500       0.000000
      0.437500       0.416667       0.000000
      0.458333       0.416667       0.000000
      0.458333       0.437500       0.000000
      0.437500       0.437500       0.000000
      0.416667       0.437500       0.000000
      0.437500       0.437500       0.000000
      0.437500       0.458333       0.000000
      0.416667       0.458333       0.000000
      0.437500       0.437500       0.000000
      0.458333       0.437500       0.000000
      0.458333       0.458333       0.000000
      0.437500       0.458333       0.000000
      0.458333       0.416667       0.000000
      0.479167       0.416667       0.000000
      0.479167       0.437500       0.000000
      0.458333       0.437500       0.000000
      0.479167       0.416667       0.000000
      0.500000       0.416667       0.000000
      0.500000       0.437500       0.000000
      0.479167       0.437500       0.000000
      0.458333       0.437500       0.000000
      0.479167       0.437500       0.000000
      0.479167       0.458333       0.000000
      0.458333       0.458333       0.000000
      0.479167       0.437500       0.000000
      0.500000       0.437500       0.000000
      0.500000       0.458333       0.000000
      0.479167       0.458333       0.000000
      0.416667       0.458333       0.000000
      0.437500       0.458333       0.000000
      0.437500       0.479167       0.000000
      0.416667       0.479167       0.000000
      0.437500       0.458333       0.000000
      0.458333       0.458333       0.000000
      0.458333       0.479167       0.000000
      0.437500       0.479167       0.000000
      0.416667       0.479167       0.000000
      0.437500       0.479167       0.000000
      0.437500       0.500000       0.000000
      0.416667       0.500000       0.000000
[...]
POINT_DATA  1152
VECTORS U float 
      0.000000       0.000000       0.000000
      0.000000       0.000000       0.000000
      0.000073      -0.000015       0.000000
      0.000054      -0.000016       0.000000
      0.000000       0.000000       0.000000
      0.000000       0.000000       0.000000
      0.000092       0.000015       0.000000
      0.000073      -0.000015       0.000000
      0.000054      -0.000016       0.000000
      0.000073      -0.000015       0.000000
      0.000081      -0.000040       0.000000
      0.000057      -0.000083       0.000000
      0.000073      -0.000015       0.000000
      0.000092       0.000015       0.000000
      0.000103       0.000019       0.000000
      0.000081      -0.000040       0.000000
      0.000000       0.000000       0.000000
      0.000000       0.000000       0.000000
      0.000110       0.000055       0.000000
      0.000092       0.000015       0.000000
      0.000000       0.000000       0.000000
      0.000000       0.000000       0.000000
      0.000119       0.000107       0.000000
      0.000110       0.000055       0.000000
      0.000092       0.000015       0.000000
      0.000110       0.000055       0.000000
      0.000126       0.000099       0.000000
      0.000103       0.000019       0.000000
      0.000110       0.000055       0.000000
      0.000119       0.000107       0.000000
      0.000140       0.000209       0.000000
      0.000126       0.000099       0.000000
      0.000000       0.000000       0.000000
      0.000000       0.000000       0.000000
      0.000111       0.000169       0.000000
      0.000119       0.000107       0.000000
      0.000000       0.000000       0.000000
      0.000000       0.000000       0.000000
      0.000077       0.000235       0.000000
      0.000111       0.000169       0.000000
      0.000119       0.000107       0.000000
      0.000111       0.000169       0.000000
      0.000125       0.000351       0.000000
      0.000140       0.000209       0.000000
      0.000111       0.000169       0.000000
      0.000077       0.000235       0.000000
      0.000064       0.000505       0.000000
      0.000125       0.000351       0.000000
      0.000057      -0.000083       0.000000
      0.000081      -0.000040       0.000000
      0.000010      -0.000070       0.000000
     -0.000013      -0.000159       0.000000
      0.000081      -0.000040       0.000000
      0.000103       0.000019       0.000000
      0.000030       0.000016       0.000000
      0.000010      -0.000070       0.000000
     -0.000013      -0.000159       0.000000
      0.000010      -0.000070       0.000000
     -0.000128      -0.000096       0.000000
     -0.000142      -0.000218       0.000000
      0.000010      -0.000070       0.000000
      0.000030       0.000016       0.000000
     -0.000116       0.000009       0.000000
     -0.000128      -0.000096       0.000000
      0.000103       0.000019       0.000000
      0.000126       0.000099       0.000000
      0.000055       0.000130       0.000000
      0.000030       0.000016       0.000000
      0.000126       0.000099       0.000000
      0.000140       0.000209       0.000000
      0.000074       0.000300       0.000000
      0.000055       0.000130       0.000000
      0.000030       0.000016       0.000000
      0.000055       0.000130       0.000000
     -0.000101       0.000145       0.000000
     -0.000116       0.000009       0.000000
      0.000055       0.000130       0.000000
      0.000074       0.000300       0.000000
     -0.000080       0.000362       0.000000
     -0.000101       0.000145       0.000000
      0.000140       0.000209       0.000000
      0.000125       0.000351       0.000000
      0.000062       0.000538       0.000000
      0.000074       0.000300       0.000000
      0.000125       0.000351       0.000000
      0.000064       0.000505       0.000000
     -0.000018       0.000811       0.000000
      0.000062       0.000538       0.000000
      0.000074       0.000300       0.000000
      0.000062       0.000538       0.000000
     -0.000077       0.000710       0.000000
     -0.000080       0.000362       0.000000
      0.000062       0.000538       0.000000
     -0.000018       0.000811       0.000000
     -0.000163       0.001158       0.000000
     -0.000077       0.000710       0.000000
     -0.000142      -0.000218       0.000000
     -0.000128      -0.000096       0.000000
     -0.000298      -0.000110       0.000000
     -0.000300      -0.000244       0.000000
     -0.000128      -0.000096       0.000000
     -0.000116       0.000009       0.000000
     -0.000307       0.000006       0.000000
     -0.000298      -0.000110       0.000000
     -0.000300      -0.000244       0.000000
     -0.000298      -0.000110       0.000000
     -0.000451      -0.000108       0.000000
     -0.000449      -0.000246       0.000000
     -0.000298      -0.000110       0.000000
     -0.000307       0.000006       0.000000
     -0.000480       0.000020       0.000000
     -0.000451      -0.000108       0.000000
     -0.000116       0.000009       0.000000
     -0.000101       0.000145       0.000000
     -0.000325       0.000152       0.000000
     -0.000307       0.000006       0.000000
     -0.000101       0.000145       0.000000
     -0.000080       0.000362       0.000000
     -0.000342       0.000389       0.000000
     -0.000325       0.000152       0.000000
     -0.000307       0.000006       0.000000
     -0.000325       0.000152       0.000000
     -0.000554       0.000177       0.000000
     -0.000480       0.000020       0.000000
     -0.000325       0.000152       0.000000
     -0.000342       0.000389       0.000000
     -0.000684       0.000425       0.000000
     -0.000554       0.000177       0.000000
     -0.000080       0.000362       0.000000
     -0.000073       0.000519       0.000000
     -0.000189       0.000554       0.000000
     -0.000197       0.000379       0.000000
     -0.000073       0.000519       0.000000
     -0.000077       0.000710       0.000000
     -0.000186       0.000780       0.000000
     -0.000189       0.000554       0.000000
     -0.000197       0.000379       0.000000
     -0.000189       0.000554       0.000000
     -0.000344       0.000573       0.000000
     -0.000342       0.000389       0.000000
     -0.000189       0.000554       0.000000
     -0.000186       0.000780       0.000000
     -0.000340       0.000827       0.000000
     -0.000344       0.000573       0.000000
     -0.000077       0.000710       0.000000
     -0.000104       0.000931       0.000000
     -0.000205       0.001056       0.000000
     -0.000186       0.000780       0.000000
     -0.000104       0.000931       0.000000
     -0.000163       0.001158       0.000000
     -0.000266       0.001354       0.000000
     -0.000205       0.001056       0.000000
     -0.000186       0.000780       0.000000
     -0.000205       0.001056       0.000000
     -0.000344       0.001170       0.000000
     -0.000340       0.000827       0.000000
     -0.000205       0.001056       0.000000
     -0.000266       0.001354       0.000000
     -0.000402       0.001577       0.000000
     -0.000344       0.001170       0.000000
     -0.000342       0.000389       0.000000
     -0.000344       0.000573       0.000000
     -0.000545       0.000586       0.000000
     -0.000512       0.000400       0.000000
     -0.000344       0.000573       0.000000
     -0.000340       0.000827       0.000000
     -0.000569       0.000848       0.000000
     -0.000545       0.000586       0.000000
     -0.000512       0.000400       0.000000
     -0.000545       0.000586       0.000000
     -0.000771       0.000613       0.000000
     -0.000684       0.000425       0.000000
     -0.000545       0.000586       0.000000
     -0.000569       0.000848       0.000000
     -0.000875       0.000875       0.000000
     -0.000771       0.000613       0.000000
     -0.000340       0.000827       0.000000
     -0.000339       0.000987       0.000000
     -0.000441       0.001011       0.000000
     -0.000443       0.000840       0.000000
     -0.000339       0.000987       0.000000
     -0.000344       0.001170       0.000000
     -0.000440       0.001216       0.000000
     -0.000441       0.001011       0.000000
     -0.000443       0.000840       0.000000
     -0.000441       0.001011       0.000000
     -0.000572       0.001025       0.000000
     -0.000569       0.000848       0.000000
     -0.000441       0.001011       0.000000
     -0.000440       0.001216       0.000000
     -0.000569       0.001247       0.000000
     -0.000572       0.001025       0.000000
     -0.000344       0.001170       0.000000
     -0.000363       0.001372       0.000000
     -0.000451       0.001455       0.000000
     -0.000440       0.001216       0.000000
     -0.000363       0.001372       0.000000
     -0.000402       0.001577       0.000000
     -0.000490       0.001706       0.000000
     -0.000451       0.001455       0.000000
     -0.000440       0.001216       0.000000
     -0.000451       0.001455       0.000000
     -0.000567       0.001531       0.000000
     -0.000569       0.001247       0.000000
     -0.000451       0.001455       0.000000
     -0.000490       0.001706       0.000000
     -0.000602       0.001860       0.000000
     -0.000567       0.001531       0.000000
     -0.000569       0.000848       0.000000
     -0.000572       0.001025       0.000000
     -0.000740       0.001033       0.000000
     -0.000717       0.000857       0.000000
     -0.000572       0.001025       0.000000
     -0.000569       0.001247       0.000000
     -0.000753       0.001260       0.000000
     -0.000740       0.001033       0.000000
     -0.000717       0.000857       0.000000
     -0.000740       0.001033       0.000000
     -0.000935       0.001051       0.000000
     -0.000875       0.000875       0.000000
     -0.000740       0.001033       0.000000
     -0.000753       0.001260       0.000000
     -0.001003       0.001276       0.000000
     -0.000935       0.001051       0.000000
     -0.000569       0.001247       0.000000
     -0.000566       0.001381       0.000000
     -0.000648       0.001397       0.000000
     -0.000652       0.001256       0.000000
     -0.000566       0.001381       0.000000
     -0.000567       0.001531       0.000000
     -0.000644       0.001563       0.000000
     -0.000648       0.001397       0.000000
     -0.000652       0.001256       0.000000
     -0.000648       0.001397       0.000000
     -0.000752       0.001405       0.000000
     -0.000753       0.001260       0.000000
     -0.000648       0.001397       0.000000
     -0.000644       0.001563       0.000000
     -0.000745       0.001584       0.000000
     -0.000752       0.001405       0.000000
     -0.000567       0.001531       0.000000
     -0.000578       0.001695       0.000000
     -0.000648       0.001754       0.000000
     -0.000644       0.001563       0.000000
     -0.000578       0.001695       0.000000
     -0.000602       0.001860       0.000000
     -0.000672       0.001954       0.000000
     -0.000648       0.001754       0.000000
     -0.000644       0.001563       0.000000
     -0.000648       0.001754       0.000000
     -0.000738       0.001811       0.000000
     -0.000745       0.001584       0.000000
     -0.000648       0.001754       0.000000
     -0.000672       0.001954       0.000000
     -0.000760       0.002071       0.000000
     -0.000738       0.001811       0.000000
     -0.000753       0.001260       0.000000
     -0.000752       0.001405       0.000000
     -0.000886       0.001409       0.000000
     -0.000873       0.001265       0.000000
     -0.000752       0.001405       0.000000
     -0.000745       0.001584       0.000000
     -0.000890       0.001591       0.000000
     -0.000886       0.001409       0.000000
     -0.000873       0.001265       0.000000
     -0.000886       0.001409       0.000000
     -0.001042       0.001420       0.000000
     -0.001003       0.001276       0.000000
     -0.000886       0.001409       0.000000
     -0.000890       0.001591       0.000000
     -0.001089       0.001603       0.000000
     -0.001042       0.001420       0.000000
     -0.000745       0.001584       0.000000
     -0.000738       0.001811       0.000000
     -0.000875       0.001852       0.000000
     -0.000890       0.001591       0.000000
     -0.000738       0.001811       0.000000
     -0.000760       0.002071       0.000000
     -0.000884       0.002244       0.000000
     -0.000875       0.001852       0.000000
     -0.000890       0.001591       0.000000
     -0.000875       0.001852       0.000000
     -0.001151       0.001873       0.000000
     -0.001089       0.001603       0.000000
     -0.000875       0.001852       0.000000
     -0.000884       0.002244       0.000000
     -0.001224       0.002717       0.000000
     -0.001151       0.001873       0.000000
      0.000000       0.000000       0.000000
      0.000000       0.000000       0.000000
      0.000017       0.000293       0.000000
      0.000077       0.000235       0.000000
      0.000000       0.000000       0.000000
      0.000000       0.000000       0.000000
     -0.000062       0.000338       0.000000
      0.000017       0.000293       0.000000
      0.000077       0.000235       0.000000
      0.000017       0.000293       0.000000
     -0.000046       0.000641       0.000000
      0.000064       0.000505       0.000000
      0.000017       0.000293       0.000000
     -0.000062       0.000338       0.000000
     -0.000190       0.000741       0.000000
     -0.000046       0.000641       0.000000
      0.000000       0.000000       0.000000
      0.000000       0.000000       0.000000
     -0.000151       0.000373       0.000000
     -0.000062       0.000338       0.000000
      0.000000       0.000000       0.000000
      0.000000       0.000000       0.000000
     -0.000254       0.000411       0.000000
     -0.000151       0.000373       0.000000
     -0.000062       0.000338       0.000000
     -0.000151       0.000373       0.000000
     -0.000351       0.000813       0.000000
     -0.000190       0.000741       0.000000
     -0.000151       0.000373       0.000000
     -0.000254       0.000411       0.000000
     -0.000527       0.000889       0.000000
     -0.000351       0.000813       0.000000
      0.000000       0.000000       0.000000
      0.000000       0.000000       0.000000
     -0.000395       0.000494       0.000000
     -0.000254       0.000411       0.000000
      0.000000       0.000000       0.000000
      0.000000       0.000000       0.000000
     -0.000612       0.000745       0.000000
     -0.000395       0.000494       0.000000
     -0.000254       0.000411       0.000000
     -0.000395       0.000494       0.000000
     -0.000725       0.001016       0.000000
     -0.000527       0.000889       0.000000
     -0.000395       0.000494       0.000000
     -0.000612       0.000745       0.000000
     -0.000932       0.001240       0.000000
     -0.000725       0.001016       0.000000
      0.000064       0.000505       0.000000
     -0.000046       0.000641       0.000000
     -0.000174       0.001046       0.000000
     -0.000018       0.000811       0.000000
     -0.000046       0.000641       0.000000
     -0.000190       0.000741       0.000000
     -0.000371       0.001203       0.000000
     -0.000174       0.001046       0.000000
     -0.000018       0.000811       0.000000
     -0.000174       0.001046       0.000000
     -0.000368       0.001526       0.000000
     -0.000163       0.001158       0.000000
     -0.000174       0.001046       0.000000
     -0.000371       0.001203       0.000000
     -0.000597       0.001716       0.000000
     -0.000368       0.001526       0.000000
     -0.000190       0.000741       0.000000
     -0.000351       0.000813       0.000000
     -0.000576       0.001300       0.000000
     -0.000371       0.001203       0.000000
     -0.000351       0.000813       0.000000
     -0.000527       0.000889       0.000000
     -0.000780       0.001385       0.000000
     -0.000576       0.001300       0.000000
     -0.000371       0.001203       0.000000
     -0.000576       0.001300       0.000000
     -0.000804       0.001803       0.000000
     -0.000597       0.001716       0.000000
     -0.000576       0.001300       0.000000
     -0.000780       0.001385       0.000000
     -0.000998       0.001870       0.000000
     -0.000804       0.001803       0.000000
     -0.000527       0.000889       0.000000
     -0.000725       0.001016       0.000000
     -0.000983       0.001503       0.000000
     -0.000780       0.001385       0.000000
     -0.000725       0.001016       0.000000
     -0.000932       0.001240       0.000000
     -0.001176       0.001685       0.000000
     -0.000983       0.001503       0.000000
     -0.000780       0.001385       0.000000
     -0.000983       0.001503       0.000000
     -0.001188       0.001959       0.000000
     -0.000998       0.001870       0.000000
     -0.000983       0.001503       0.000000
     -0.001176       0.001685       0.000000
     -0.001366       0.002093       0.000000
     -0.001188       0.001959       0.000000
     -0.000597       0.001716       0.000000
     -0.000804       0.001803       0.000000
     -0.000996       0.002290       0.000000
     -0.000843       0.002244       0.000000
     -0.000804       0.001803       0.000000
     -0.000998       0.001870       0.000000
     -0.001158       0.002331       0.000000
     -0.000996       0.002290       0.000000
     -0.000843       0.002244       0.000000
     -0.000996       0.002290       0.000000
     -0.001084       0.002742       0.000000
     -0.000980       0.002723       0.000000
     -0.000996       0.002290       0.000000
     -0.001158       0.002331       0.000000
     -0.001227       0.002770       0.000000
     -0.001084       0.002742       0.000000
     -0.000998       0.001870       0.000000
     -0.001188       0.001959       0.000000
     -0.001330       0.002388       0.000000
     -0.001158       0.002331       0.000000
     -0.001188       0.001959       0.000000
     -0.001366       0.002093       0.000000
     -0.001497       0.002469       0.000000
     -0.001330       0.002388       0.000000
     -0.001158       0.002331       0.000000
     -0.001330       0.002388       0.000000
     -0.001391       0.002802       0.000000
     -0.001227       0.002770       0.000000
     -0.001330       0.002388       0.000000
     -0.001497       0.002469       0.000000
     -0.001555       0.002828       0.000000
     -0.001391       0.002802       0.000000
     -0.000163       0.001158       0.000000
     -0.000255       0.001363       0.000000
     -0.000373       0.001616       0.000000
     -0.000266       0.001354       0.000000
     -0.000255       0.001363       0.000000
     -0.000368       0.001526       0.000000
     -0.000499       0.001803       0.000000
     -0.000373       0.001616       0.000000
     -0.000266       0.001354       0.000000
     -0.000373       0.001616       0.000000
     -0.000530       0.001918       0.000000
     -0.000402       0.001577       0.000000
     -0.000373       0.001616       0.000000
     -0.000499       0.001803       0.000000
     -0.000661       0.002110       0.000000
     -0.000530       0.001918       0.000000
     -0.000368       0.001526       0.000000
     -0.000485       0.001640       0.000000
     -0.000618       0.001917       0.000000
     -0.000499       0.001803       0.000000
     -0.000485       0.001640       0.000000
     -0.000597       0.001716       0.000000
     -0.000722       0.001982       0.000000
     -0.000618       0.001917       0.000000
     -0.000499       0.001803       0.000000
     -0.000618       0.001917       0.000000
     -0.000761       0.002200       0.000000