# vtk DataFile Version 2.0
time_10.vtk
ASCII
DATASET UNSTRUCTURED_GRID
POINTS  1152 float
      0.000000       0.000000       0.000000
      0.083333       0.000000       0.000000
      0.083333       0.083333       0.000000
      0.000000       0.083333       0.000000
      0.083333       0.000000       0.000000
      0.166667       0.000000       0.000000
      0.166667       0.083333       0.000000
      0.083333       0.083333       0.000000
      0.000000       0.083333       0.000000
      0.083333       0.083333       0.000000
      0.083333       0.166667       0.000000
      0.000000       0.166667       0.000000
      0.083333       0.083333       0.000000
      0.166667       0.083333       0.000000
      0.166667       0.166667       0.000000
      0.083333       0.166667       0.000000
      0.166667       0.000000       0.000000
      0.250000       0.000000       0.000000
      0.250000       0.083333       0.000000
      0.166667       0.083333       0.000000
      0.250000       0.000000       0.000000
      0.333333       0.000000       0.000000
      0.333333       0.083333       0.000000
      0.250000       0.083333       0.000000
      0.166667       0.083333       0.000000
      0.250000       0.083333       0.000000
      0.250000       0.166667       0.000000
      0.166667       0.166667       0.000000
      0.250000       0.083333       0.000000
      0.333333       0.083333       0.000000
      0.333333       0.166667       0.000000
      0.250000       0.166667       0.000000
      0.333333       0.000000       0.000000
      0.416667      -0.000000       0.000000
      0.416667       0.083333       0.000000
      0.333333       0.083333       0.000000
      0.416667      -0.000000       0.000000
      0.500000       0.000000       0.000000
      0.500000       0.083333       0.000000
      0.416667       0.083333       0.000000
      0.333333       0.083333       0.000000
      0.416667       0.083333       0.000000
      0.416667       0.166667       0.000000
      0.333333       0.166667       0.000000
      0.416667       0.083333       0.000000
      0.500000       0.083333       0.000000
      0.500000       0.166667       0.000000
      0.416667       0.166667       0.000000
      0.000000       0.166667       0.000000
      0.083333       0.166667       0.000000
      0.083333       0.250000       0.000000
      0.000000       0.250000       0.000000
      0.083333       0.166667       0.000000
      0.166667       0.166667       0.000000
      0.166667       0.250000       0.000000
      0.083333       0.250000       0.000000
      0.000000       0.250000       0.000000
      0.083333       0.250000       0.000000
      0.083333       0.333333       0.000000
      0.000000       0.333333       0.000000
      0.083333       0.250000       0.000000
      0.166667       0.250000       0.000000
      0.166667       0.333333       0.000000
      0.083333       0.333333       0.000000
      0.166667       0.166667       0.000000
      0.250000       0.166667       0.000000
      0.250000       0.250000       0.000000
      0.166667       0.250000       0.000000
      0.250000       0.166667       0.000000
      0.333333       0.166667       0.000000
      0.333333       0.250000       0.000000
      0.250000       0.250000       0.000000
      0.166667       0.250000       0.000000
      0.250000       0.250000       0.000000
      0.250000       0.333333       0.000000
      0.166667       0.333333       0.000000
      0.250000       0.250000       0.000000
      0.333333       0.250000       0.000000
      0.333333       0.333333       0.000000
      0.250000       0.333333       0.000000
      0.333333       0.166667       0.000000
      0.416667       0.166667       0.000000
      0.416667       0.250000       0.000000
      0.333333       0.250000       0.000000
      0.416667       0.166667       0.000000
      0.500000       0.166667       0.000000
      0.500000       0.250000       0.000000
      0.416667       0.250000       0.000000
      0.333333       0.250000       0.000000
      0.416667       0.250000       0.000000
      0.416667       0.333333       0.000000
      0.333333       0.333333       0.000000
      0.416667       0.250000       0.000000
      0.500000       0.250000       0.000000
      0.500000       0.333333       0.000000
      0.416667       0.333333       0.000000
      0.000000       0.333333       0.000000
      0.083333       0.333333       0.000000
      0.083333       0.416667       0.000000
     -0.000000       0.416667       0.000000
      0.083333       0.333333       0.000000
      0.166667       0.333333       0.000000
      0.166667       0.416667       0.000000
      0.083333       0.416667       0.000000
     -0.000000       0.416667       0.000000
      0.083333       0.416667       0.000000
      0.083333       0.500000       0.000000
      0.000000       0.500000       0.000000
      0.083333       0.416667       0.000000
      0.166667       0.416667       0.000000
      0.166667       0.500000       0.000000
      0.083333       0.500000       0.000000
      0.166667       0.333333       0.000000
      0.250000       0.333333       0.000000
      0.250000       0.416667       0.000000
      0.166667       0.416667       0.000000
      0.250000       0.333333       0.000000
      0.333333       0.333333       0.000000
      0.333333       0.416667       0.000000
      0.250000       0.416667       0.000000
      0.166667       0.416667       0.000000
      0.250000       0.416667       0.000000
      0.250000       0.500000       0.000000
      0.166667       0.500000       0.000000
      0.250000       0.416667       0.000000
      0.333333       0.416667       0.000000
      0.333333       0.500000       0.000000
      0.250000       0.500000       0.000000
      0.333333       0.333333       0.000000
      0.375000       0.333333       0.000000
      0.375000       0.375000       0.000000
      0.333333       0.375000       0.000000
      0.375000       0.333333       0.000000
      0.416667       0.333333       0.000000
      0.416667       0.375000       0.000000
      0.375000       0.375000       0.000000
      0.333333       0.375000       0.000000
      0.375000       0.375000       0.000000
      0.375000       0.416667       0.000000
      0.333333       0.416667       0.000000
      0.375000       0.375000       0.000000
      0.416667       0.375000       0.000000
      0.416667       0.416667       0.000000
      0.375000       0.416667       0.000000
      0.416667       0.333333       0.000000
      0.458333       0.333333       0.000000
      0.458333       0.375000       0.000000
      0.416667       0.375000       0.000000
      0.458333       0.333333       0.000000
      0.500000       0.333333       0.000000
      0.500000       0.375000       0.000000
      0.458333       0.375000       0.000000
      0.416667       0.375000       0.000000
      0.458333       0.375000       0.000000
      0.458333       0.416667       0.000000
      0.416667       0.416667       0.000000
      0.458333       0.375000       0.000000
      0.500000       0.375000       0.000000
      0.500000       0.416667       0.000000
      0.458333       0.416667       0.000000
      0.333333       0.416667       0.000000
      0.375000       0.416667       0.000000
      0.375000       0.458333       0.000000
      0.333333       0.458333       0.000000
      0.375000       0.416667       0.000000
      0.416667       0.416667       0.000000
      0.416667       0.458333       0.000000
      0.375000       0.458333       0.000000
      0.333333       0.458333       0.000000
      0.375000       0.458333       0.000000
      0.375000       0.500000       0.000000
      0.333333       0.500000       0.000000
      0.375000       0.458333       0.000000
      0.416667       0.458333       0.000000
      0.416667       0.500000       0.000000
      0.375000       0.500000       0.000000
      0.416667       0.416667       0.000000
      0.437500       0.416667       0.000000
      0.437500       0.437500       0.000000
      0.416667       0.437500       0.000000
      0.437500       0.416667       0.000000
      0.458333       0.416667       0.000000
      0.458333       0.437500       0.000000
      0.437500       0.437500       0.000000
      0.416667       0.437500       0.000000
      0.437500       0.437500       0.000000
      0.437500       0.458333       0.000000
      0.416667       0.458333       0.000000
      0.437500       0.437500       0.000000
      0.458333       0.437500       0.000000
      0.458333       0.458333       0.000000
      0.437500       0.458333       0.000000
      0.458333       0.416667       0.000000
      0.479167       0.416667       0.000000
      0.479167       0.437500       0.000000
      0.458333       0.437500       0.000000
      0.479167       0.416667       0.000000
      0.500000       0.416667       0.000000
      0.500000       0.437500       0.000000
      0.479167       0.437500       0.000000
      0.458333       0.437500       0.000000
      0.479167       0.437500       0.000000
      0.479167       0.458333       0.000000
      0.458333       0.458333       0.000000
      0.479167       0.437500       0.000000
      0.500000       0.437500       0.000000
      0.500000       0.458333       0.000000
      0.479167       0.458333       0.000000
      0.416667       0.458333       0.000000
      0.437500       0.458333       0.000000
      0.437500       0.479167       0.000000
      0.416667       0.479167       0.000000
      0.437500       0.458333       0.000000
      0.458333       0.458333       0.000000
      0.458333       0.479167       0.000000
      0.437500       0.479167       0.000000
      0.416667       0.479167       0.000000
      0.437500       0.479167       0.000000
      0.437500       0.500000       0.000000
      0.416667       0.500000       0.000000
[...]
POINT_DATA  1152
VECTORS U float 
      0.000000       0.000000       0.000000
      0.000000       0.000000       0.000000
      0.000072      -0.000017       0.000000
      0.000053      -0.000019       0.000000
      0.000000       0.000000       0.000000
      0.000000       0.000000       0.000000
      0.000093       0.000014       0.000000
      0.000072      -0.000017       0.000000
      0.000053      -0.000019       0.000000
      0.000072      -0.000017       0.000000
      0.000078      -0.000045       0.000000
      0.000052      -0.000090       0.000000
      0.000072      -0.000017       0.000000
      0.000093       0.000014       0.000000
      0.000101       0.000017       0.000000
      0.000078      -0.000045       0.000000
      0.000000       0.000000       0.000000
      0.000000       0.000000       0.000000
      0.000111       0.000055       0.000000
      0.000093       0.000014       0.000000
      0.000000       0.000000       0.000000
      0.000000       0.000000       0.000000
      0.000122       0.000108       0.000000
      0.000111       0.000055       0.000000
      0.000093       0.000014       0.000000
      0.000111       0.000055       0.000000
      0.000126       0.000099       0.000000
      0.000101       0.000017       0.000000
      0.000111       0.000055       0.000000
      0.000122       0.000108       0.000000
      0.000141       0.000212       0.000000
      0.000126       0.000099       0.000000
      0.000000       0.000000       0.000000
      0.000000       0.000000       0.000000
      0.000114       0.000173       0.000000
      0.000122       0.000108       0.000000
      0.000000       0.000000       0.000000
      0.000000       0.000000       0.000000
      0.000080       0.000242       0.000000
      0.000114       0.000173       0.000000
      0.000122       0.000108       0.000000
      0.000114       0.000173       0.000000
      0.000127       0.000359       0.000000
      0.000141       0.000212       0.000000
      0.000114       0.000173       0.000000
      0.000080       0.000242       0.000000
      0.000066       0.000520       0.000000
      0.000127       0.000359       0.000000
      0.000052      -0.000090       0.000000
      0.000078      -0.000045       0.000000
      0.000002      -0.000076       0.000000
     -0.000021      -0.000169       0.000000
      0.000078      -0.000045       0.000000
      0.000101       0.000017       0.000000
      0.000023       0.000013       0.000000
      0.000002      -0.000076       0.000000
     -0.000021      -0.000169       0.000000
      0.000002      -0.000076       0.000000
     -0.000141      -0.000103       0.000000
     -0.000156      -0.000230       0.000000
      0.000002      -0.000076       0.000000
      0.000023       0.000013       0.000000
     -0.000129       0.000005       0.000000
     -0.000141      -0.000103       0.000000
      0.000101       0.000017       0.000000
      0.000126       0.000099       0.000000
      0.000049       0.000129       0.000000
      0.000023       0.000013       0.000000
      0.000126       0.000099       0.000000
      0.000141       0.000212       0.000000
      0.000070       0.000303       0.000000
      0.000049       0.000129       0.000000
      0.000023       0.000013       0.000000
      0.000049       0.000129       0.000000
     -0.000114       0.000144       0.000000
     -0.000129       0.000005       0.000000
      0.000049       0.000129       0.000000
      0.000070       0.000303       0.000000
     -0.000093       0.000365       0.000000
     -0.000114       0.000144       0.000000
      0.000141       0.000212       0.000000
      0.000127       0.000359       0.000000
      0.000060       0.000548       0.000000
      0.000070       0.000303       0.000000
      0.000127       0.000359       0.000000
      0.000066       0.000520       0.000000
     -0.000020       0.000833       0.000000
      0.000060       0.000548       0.000000
      0.000070       0.000303       0.000000
      0.000060       0.000548       0.000000
     -0.000089       0.000722       0.000000
     -0.000093       0.000365       0.000000
      0.000060       0.000548       0.000000
     -0.000020       0.000833       0.000000
     -0.000173       0.001187       0.000000
     -0.000089       0.000722       0.000000
     -0.000156      -0.000230       0.000000
     -0.000141      -0.000103       0.000000
     -0.000317      -0.000118       0.000000
     -0.000319      -0.000257       0.000000
     -0.000141      -0.000103       0.000000
     -0.000129       0.000005       0.000000
     -0.000327       0.000002       0.000000
     -0.000317      -0.000118       0.000000
     -0.000319      -0.000257       0.000000
     -0.000317      -0.000118       0.000000
     -0.000476      -0.000116       0.000000
     -0.000474      -0.000259       0.000000
     -0.000317      -0.000118       0.000000
     -0.000327       0.000002       0.000000
     -0.000505       0.000015       0.000000
     -0.000476      -0.000116       0.000000
     -0.000129       0.000005       0.000000
     -0.000114       0.000144       0.000000
     -0.000346       0.000150       0.000000
     -0.000327       0.000002       0.000000
     -0.000114       0.000144       0.000000
     -0.000093       0.000365       0.000000
     -0.000365       0.000392       0.000000
     -0.000346       0.000150       0.000000
     -0.000327       0.000002       0.000000
     -0.000346       0.000150       0.000000
     -0.000582       0.000177       0.000000
     -0.000505       0.000015       0.000000
     -0.000346       0.000150       0.000000
     -0.000365       0.000392       0.000000
     -0.000716       0.000430       0.000000
     -0.000582       0.000177       0.000000
     -0.000093       0.000365       0.000000
     -0.000085       0.000525       0.000000
     -0.000207       0.000560       0.000000
     -0.000215       0.000382       0.000000
     -0.000085       0.000525       0.000000
     -0.000089       0.000722       0.000000
     -0.000204       0.000790       0.000000
     -0.000207       0.000560       0.000000
     -0.000215       0.000382       0.000000
     -0.000207       0.000560       0.000000
     -0.000369       0.000580       0.000000
     -0.000365       0.000392       0.000000
     -0.000207       0.000560       0.000000
     -0.000204       0.000790       0.000000
     -0.000366       0.000837       0.000000
     -0.000369       0.000580       0.000000
     -0.000089       0.000722       0.000000
     -0.000114       0.000949       0.000000
     -0.000222       0.001075       0.000000
     -0.000204       0.000790       0.000000
     -0.000114       0.000949       0.000000
     -0.000173       0.001187       0.000000
     -0.000281       0.001386       0.000000
     -0.000222       0.001075       0.000000
     -0.000204       0.000790       0.000000
     -0.000222       0.001075       0.000000
     -0.000370       0.001187       0.000000
     -0.000366       0.000837       0.000000
     -0.000222       0.001075       0.000000
     -0.000281       0.001386       0.000000
     -0.000425       0.001608       0.000000
     -0.000370       0.001187       0.000000
     -0.000365       0.000392       0.000000
     -0.000369       0.000580       0.000000
     -0.000575       0.000593       0.000000
     -0.000540       0.000404       0.000000
     -0.000369       0.000580       0.000000
     -0.000366       0.000837       0.000000
     -0.000602       0.000859       0.000000
     -0.000575       0.000593       0.000000
     -0.000540       0.000404       0.000000
     -0.000575       0.000593       0.000000
     -0.000805       0.000621       0.000000
     -0.000716       0.000430       0.000000
     -0.000575       0.000593       0.000000
     -0.000602       0.000859       0.000000
     -0.000913       0.000887       0.000000
     -0.000805       0.000621       0.000000
     -0.000366       0.000837       0.000000
     -0.000365       0.001000       0.000000
     -0.000472       0.001023       0.000000
     -0.000473       0.000850       0.000000
     -0.000365       0.001000       0.000000
     -0.000370       0.001187       0.000000
     -0.000471       0.001231       0.000000
     -0.000472       0.001023       0.000000
     -0.000473       0.000850       0.000000
     -0.000472       0.001023       0.000000
     -0.000607       0.001037       0.000000
     -0.000602       0.000859       0.000000
     -0.000472       0.001023       0.000000
     -0.000471       0.001231       0.000000
     -0.000605       0.001261       0.000000
     -0.000607       0.001037       0.000000
     -0.000370       0.001187       0.000000
     -0.000388       0.001394       0.000000
     -0.000482       0.001473       0.000000
     -0.000471       0.001231       0.000000
     -0.000388       0.001394       0.000000
     -0.000425       0.001608       0.000000
     -0.000519       0.001735       0.000000
     -0.000482       0.001473       0.000000
     -0.000471       0.001231       0.000000
     -0.000482       0.001473       0.000000
     -0.000605       0.001546       0.000000
     -0.000605       0.001261       0.000000
     -0.000482       0.001473       0.000000
     -0.000519       0.001735       0.000000
     -0.000637       0.001884       0.000000
     -0.000605       0.001546       0.000000
     -0.000602       0.000859       0.000000
     -0.000607       0.001037       0.000000
     -0.000778       0.001046       0.000000
     -0.000752       0.000868       0.000000
     -0.000607       0.001037       0.000000
     -0.000605       0.001261       0.000000
     -0.000793       0.001274       0.000000
     -0.000778       0.001046       0.000000
     -0.000752       0.000868       0.000000
     -0.000778       0.001046       0.000000
     -0.000974       0.001065       0.000000
     -0.000913       0.000887       0.000000
     -0.000778       0.001046       0.000000
     -0.000793       0.001274       0.000000
     -0.001044       0.001292       0.000000
     -0.000974       0.001065       0.000000
     -0.000605       0.001261       0.000000
     -0.000603       0.001395       0.000000
     -0.000688       0.001410       0.000000
     -0.000691       0.001269       0.000000
     -0.000603       0.001395       0.000000
     -0.000605       0.001546       0.000000
     -0.000685       0.001576       0.000000
     -0.000688       0.001410       0.000000
     -0.000691       0.001269       0.000000
     -0.000688       0.001410       0.000000
     -0.000794       0.001418       0.000000
     -0.000793       0.001274       0.000000
     -0.000688       0.001410       0.000000
     -0.000685       0.001576       0.000000
     -0.000788       0.001596       0.000000
     -0.000794       0.001418       0.000000
     -0.000605       0.001546       0.000000
     -0.000614       0.001712       0.000000
     -0.000688       0.001769       0.000000
     -0.000685       0.001576       0.000000
     -0.000614       0.001712       0.000000
     -0.000637       0.001884       0.000000
     -0.000711       0.001976       0.000000
     -0.000688       0.001769       0.000000
     -0.000685       0.001576       0.000000
     -0.000688       0.001769       0.000000
     -0.000782       0.001823       0.000000
     -0.000788       0.001596       0.000000
     -0.000688       0.001769       0.000000
     -0.000711       0.001976       0.000000
     -0.000802       0.002092       0.000000
     -0.000782       0.001823       0.000000
     -0.000793       0.001274       0.000000
     -0.000794       0.001418       0.000000
     -0.000928       0.001423       0.000000
     -0.000913       0.001279       0.000000
     -0.000794       0.001418       0.000000
     -0.000788       0.001596       0.000000
     -0.000934       0.001603       0.000000
     -0.000928       0.001423       0.000000
     -0.000913       0.001279       0.000000
     -0.000928       0.001423       0.000000
     -0.001084       0.001436       0.000000
     -0.001044       0.001292       0.000000
     -0.000928       0.001423       0.000000
     -0.000934       0.001603       0.000000
     -0.001133       0.001618       0.000000
     -0.001084       0.001436       0.000000
     -0.000788       0.001596       0.000000
     -0.000782       0.001823       0.000000
     -0.000920       0.001863       0.000000
     -0.000934       0.001603       0.000000
     -0.000782       0.001823       0.000000
     -0.000802       0.002092       0.000000
     -0.000930       0.002275       0.000000
     -0.000920       0.001863       0.000000
     -0.000934       0.001603       0.000000
     -0.000920       0.001863       0.000000
     -0.001202       0.001893       0.000000
     -0.001133       0.001618       0.000000
     -0.000920       0.001863       0.000000
     -0.000930       0.002275       0.000000
     -0.001313       0.002869       0.000000
     -0.001202       0.001893       0.000000
      0.000000       0.000000       0.000000
      0.000000       0.000000       0.000000
      0.000019       0.000304       0.000000
      0.000080       0.000242       0.000000
      0.000000       0.000000       0.000000
      0.000000       0.000000       0.000000
     -0.000063       0.000353       0.000000
      0.000019       0.000304       0.000000
      0.000080       0.000242       0.000000
      0.000019       0.000304       0.000000
     -0.000047       0.000664       0.000000
      0.000066       0.000520       0.000000
      0.000019       0.000304       0.000000
     -0.000063       0.000353       0.000000
     -0.000197       0.000773       0.000000
     -0.000047       0.000664       0.000000
      0.000000       0.000000       0.000000
      0.000000       0.000000       0.000000
     -0.000157       0.000391       0.000000
     -0.000063       0.000353       0.000000
      0.000000       0.000000       0.000000
      0.000000       0.000000       0.000000
     -0.000266       0.000433       0.000000
     -0.000157       0.000391       0.000000
     -0.000063       0.000353       0.000000
     -0.000157       0.000391       0.000000
     -0.000367       0.000853       0.000000
     -0.000197       0.000773       0.000000
     -0.000157       0.000391       0.000000
     -0.000266       0.000433       0.000000
     -0.000554       0.000937       0.000000
     -0.000367       0.000853       0.000000
      0.000000       0.000000       0.000000
      0.000000       0.000000       0.000000
     -0.000416       0.000523       0.000000
     -0.000266       0.000433       0.000000
      0.000000       0.000000       0.000000
      0.000000       0.000000       0.000000
     -0.000645       0.000791       0.000000
     -0.000416       0.000523       0.000000
     -0.000266       0.000433       0.000000
     -0.000416       0.000523       0.000000
     -0.000764       0.001075       0.000000
     -0.000554       0.000937       0.000000
     -0.000416       0.000523       0.000000
     -0.000645       0.000791       0.000000
     -0.000983       0.001314       0.000000
     -0.000764       0.001075       0.000000
      0.000066       0.000520       0.000000
     -0.000047       0.000664       0.000000
     -0.000180       0.001085       0.000000
     -0.000020       0.000833       0.000000
     -0.000047       0.000664       0.000000
     -0.000197       0.000773       0.000000
     -0.000387       0.001258       0.000000
     -0.000180       0.001085       0.000000
     -0.000020       0.000833       0.000000
     -0.000180       0.001085       0.000000
     -0.000384       0.001585       0.000000
     -0.000173       0.001187       0.000000
     -0.000180       0.001085       0.000000
     -0.000387       0.001258       0.000000
     -0.000629       0.001800       0.000000
     -0.000384       0.001585       0.000000
     -0.000197       0.000773       0.000000
     -0.000367       0.000853       0.000000
     -0.000605       0.001367       0.000000
     -0.000387       0.001258       0.000000
     -0.000367       0.000853       0.000000
     -0.000554       0.000937       0.000000
     -0.000823       0.001461       0.000000
     -0.000605       0.001367       0.000000
     -0.000387       0.001258       0.000000
     -0.000605       0.001367       0.000000
     -0.000850       0.001900       0.000000
     -0.000629       0.001800       0.000000
     -0.000605       0.001367       0.000000
     -0.000823       0.001461       0.000000
     -0.001057       0.001974       0.000000
     -0.000850       0.001900       0.000000
     -0.000554       0.000937       0.000000
     -0.000764       0.001075       0.000000
     -0.001038       0.001590       0.000000
     -0.000823       0.001461       0.000000
     -0.000764       0.001075       0.000000
     -0.000983       0.001314       0.000000
     -0.001241       0.001783       0.000000
     -0.001038       0.001590       0.000000
     -0.000823       0.001461       0.000000
     -0.001038       0.001590       0.000000
     -0.001258       0.002070       0.000000
     -0.001057       0.001974       0.000000
     -0.001038       0.001590       0.000000
     -0.001241       0.001783       0.000000
     -0.001445       0.002213       0.000000
     -0.001258       0.002070       0.000000
     -0.000629       0.001800       0.000000
     -0.000850       0.001900       0.000000
     -0.001058       0.002416       0.000000
     -0.000895       0.002363       0.000000
     -0.000850       0.001900       0.000000
     -0.001057       0.001974       0.000000
     -0.001229       0.002461       0.000000
     -0.001058       0.002416       0.000000
     -0.000895       0.002363       0.000000
     -0.001058       0.002416       0.000000
     -0.001153       0.002894       0.000000
     -0.001045       0.002874       0.000000
     -0.001058       0.002416       0.000000
     -0.001229       0.002461       0.000000
     -0.001303       0.002923       0.000000
     -0.001153       0.002894       0.000000
     -0.001057       0.001974       0.000000
     -0.001258       0.002070       0.000000
     -0.001409       0.002521       0.000000
     -0.001229       0.002461       0.000000
     -0.001258       0.002070       0.000000
     -0.001445       0.002213       0.000000
     -0.001584       0.002607       0.000000
     -0.001409       0.002521       0.000000
     -0.001229       0.002461       0.000000
     -0.001409       0.002521       0.000000
     -0.001475       0.002956       0.000000
     -0.001303       0.002923       0.000000
     -0.001409       0.002521       0.000000
     -0.001584       0.002607       0.000000
     -0.001647       0.002983       0.000000
     -0.001475       0.002956       0.000000
     -0.000173       0.001187       0.000000
     -0.000267       0.001407       0.000000
     -0.000390       0.001668       0.000000
     -0.000281       0.001386       0.000000
     -0.000267       0.001407       0.000000
     -0.000384       0.001585       0.000000
     -0.000522       0.001877       0.000000
     -0.000390       0.001668       0.000000
     -0.000281       0.001386       0.000000
     -0.000390       0.001668       0.000000
     -0.000555       0.001980       0.000000
     -0.000425       0.001608       0.000000
     -0.000390       0.001668       0.000000
     -0.000522       0.001877       0.000000
     -0.000696       0.002202       0.000000
     -0.000555       0.001980       0.000000
     -0.000384       0.001585       0.000000
     -0.000508       0.001713       0.000000
     -0.000650       0.002007       0.000000
     -0.000522       0.001877       0.000000
     -0.000508       0.001713       0.000000
     -0.000629       0.001800       0.000000
     -0.000764       0.002083       0.000000
     -0.000650       0.002007       0.000000
     -0.000522       0.001877       0.000000
     -0.000650       0.002007       0.000000
     -0.000806       0.002310       0.000000