# vtk DataFile Version 2.0
time_10.vtk
ASCII
DATASET UNSTRUCTURED_GRID
POINTS  1152 float
      0.000000       0.000000       0.000000
      0.083333       0.000000       0.000000
      0.083333       0.083333       0.000000
      0.000000       0.083333       0.000000
      0.083333       0.000000       0.000000
      0.166667       0.000000       0.000000
      0.166667       0.083333       0.000000
      0.083333       0.083333       0.000000
      0.000000       0.083333       0.000000
      0.083333       0.083333       0.000000
      0.083333       0.166667       0.000000
      0.000000       0.166667       0.000000
      0.083333       0.083333       0.000000
      0.166667       0.083333       0.000000
      0.166667       0.166667       0.000000
      0.083333       0.166667       0.000000
      0.166667       0.000000       0.000000
      0.250000       0.000000       0.000000
      0.250000       0.083333       0.000000
      0.166667       0.083333       0.000000
      0.250000       0.000000       0.000000
      0.333333       0.000000       0.000000
      0.333333       0.083333       0.000000
      0.250000       0.083333       0.000000
      0.166667       0.083333       0.000000
      0.250000       0.083333       0.000000
      0.250000       0.166667       0.000000
      0.166667       0.166667       0.000000
      0.250000       0.083333       0.000000
      0.333333       0.083333       0.000000
      0.333333       0.166667       0.000000
      0.250000       0.166667       0.000000
      0.333333       0.000000       0.000000
      0.416667      -0.000000       0.000000
      0.416667       0.083333       0.000000
      0.333333       0.083333       0.000000
      0.416667      -0.000000       0.000000
      0.500000       0.000000       0.000000
      0.500000       0.083333       0.000000
      0.416667       0.083333       0.000000
      0.333333       0.083333       0.000000
      0.416667       0.083333       0.000000
      0.416667       0.166667       0.000000
      0.333333       0.166667       0.000000
      0.416667       0.083333       0.000000
      0.500000       0.083333       0.000000
      0.500000       0.166667       0.000000
      0.416667       0.166667       0.000000
      0.000000       0.166667       0.000000
      0.083333       0.166667       0.000000
      0.083333       0.250000       0.000000
      0.000000       0.250000       0.000000
      0.083333       0.166667       0.000000
      0.166667       0.166667       0.000000
      0.166667       0.250000       0.000000
      0.083333       0.250000       0.000000
      0.000000       0.250000       0.000000
      0.083333       0.250000       0.000000
      0.083333       0.333333       0.000000
      0.000000       0.333333       0.000000
      0.083333       0.250000       0.000000
      0.166667       0.250000       0.000000
      0.166667       0.333333       0.000000
      0.083333       0.333333       0.000000
      0.166667       0.166667       0.000000
      0.250000       0.166667       0.000000
      0.250000       0.250000       0.000000
      0.166667       0.250000       0.000000
      0.250000       0.166667       0.000000
      0.333333       0.166667       0.000000
      0.333333       0.250000       0.000000
      0.250000       0.250000       0.000000
      0.166667       0.250000       0.000000
      0.250000       0.250000       0.000000
      0.250000       0.333333       0.000000
      0.166667       0.333333       0.000000
      0.250000       0.250000       0.000000
      0.333333       0.250000       0.000000
      0.333333       0.333333       0.000000
      0.250000       0.333333       0.000000
      0.333333       0.166667       0.000000
      0.416667       0.166667       0.000000
      0.416667       0.250000       0.000000
      0.333333       0.250000       0.000000
      0.416667       0.166667       0.000000
      0.500000       0.166667       0.000000
      0.500000       0.250000       0.000000
      0.416667       0.250000       0.000000
      0.333333       0.250000       0.000000
      0.416667       0.250000       0.000000
      0.416667       0.333333       0.000000
      0.333333       0.333333       0.000000
      0.416667       0.250000       0.000000
      0.500000       0.250000       0.000000
      0.500000       0.333333       0.000000
      0.416667       0.333333       0.000000
      0.000000       0.333333       0.000000
      0.083333       0.333333       0.000000
      0.083333       0.416667       0.000000
     -0.000000       0.416667       0.000000
      0.083333       0.333333       0.000000
      0.166667       0.333333       0.000000
      0.166667       0.416667       0.000000
      0.083333       0.416667       0.000000
     -0.000000       0.416667       0.000000
      0.083333       0.416667       0.000000
      0.083333       0.500000       0.000000
      0.000000       0.500000       0.000000
      0.083333       0.416667       0.000000
      0.166667       0.416667       0.000000
      0.166667       0.500000       0.000000
      0.083333       0.500000       0.000000
      0.166667       0.333333       0.000000
      0.250000       0.333333       0.000000
      0.250000       0.416667       0.000000
      0.166667       0.416667       0.000000
      0.250000       0.333333       0.000000
      0.333333       0.333333       0.000000
      0.333333       0.416667       0.000000
      0.250000       0.416667       0.000000
      0.166667       0.416667       0.000000
      0.250000       0.416667       0.000000
      0.250000       0.500000       0.000000
      0.166667       0.500000       0.000000
      0.250000       0.416667       0.000000
      0.333333       0.416667       0.000000
      0.333333       0.500000       0.000000
      0.250000       0.500000       0.000000
      0.333333       0.333333       0.000000
      0.375000       0.333333       0.000000
      0.375000       0.375000       0.000000
      0.333333       0.375000       0.000000
      0.375000       0.333333       0.000000
      0.416667       0.333333       0.000000
      0.416667       0.375000       0.000000
      0.375000       0.375000       0.000000
      0.333333       0.375000       0.000000
      0.375000       0.375000       0.000000
      0.375000       0.416667       0.000000
      0.333333       0.416667       0.000000
      0.375000       0.375000       0.000000
      0.416667       0.375000       0.000000
      0.416667       0.416667       0.000000
      0.375000       0.416667       0.000000
      0.416667       0.333333       0.000000
      0.458333       0.333333       0.000000
      0.458333       0.375000       0.000000
      0.416667       0.375000       0.000000
      0.458333       0.333333       0.000000
      0.500000       0.333333       0.000000
      0.500000       0.375000       0.000000
      0.458333       0.375000       0.000000
      0.416667       0.375000       0.000000
      0.458333       0.375000       0.000000
      0.458333       0.416667       0.000000
      0.416667       0.416667       0.000000
      0.458333       0.375000       0.000000
      0.500000       0.375000       0.000000
      0.500000       0.416667       0.000000
      0.458333       0.416667       0.000000
      0.333333       0.416667       0.000000
      0.375000       0.416667       0.000000
      0.375000       0.458333       0.000000
      0.333333       0.458333       0.000000
      0.375000       0.416667       0.000000
      0.416667       0.416667       0.000000
      0.416667       0.458333       0.000000
      0.375000       0.458333       0.000000
      0.333333       0.458333       0.000000
      0.375000       0.458333       0.000000
      0.375000       0.500000       0.000000
      0.333333       0.500000       0.000000
      0.375000       0.458333       0.000000
      0.416667       0.458333       0.000000
      0.416667       0.500000       0.000000
      0.375000       0.500000       0.000000
      0.416667       0.416667       0.000000
      0.437500       0.416667       0.000000
      0.437500       0.437500       0.000000
      0.416667       0.437500       0.000000
      0.437500       0.416667       0.000000
      0.458333       0.416667       0.000000
      0.458333       0.437500       0.000000
      0.437500       0.437500       0.000000
      0.416667       0.437500       0.000000
      0.437500       0.437500       0.000000
      0.437500       0.458333       0.000000
      0.416667       0.458333       0.000000
      0.437500       0.437500       0.000000
      0.458333       0.437500       0.000000
      0.458333       0.458333       0.000000
      0.437500       0.458333       0.000000
      0.458333       0.416667       0.000000
      0.479167       0.416667       0.000000
      0.479167       0.437500       0.000000
      0.458333       0.437500       0.000000
      0.479167       0.416667       0.000000
      0.500000       0.416667       0.000000
      0.500000       0.437500       0.000000
      0.479167       0.437500       0.000000
      0.458333       0.437500       0.000000
      0.479167       0.437500       0.000000
      0.479167       0.458333       0.000000
      0.458333       0.458333       0.000000
      0.479167       0.437500       0.000000
      0.500000       0.437500       0.000000
      0.500000       0.458333       0.000000
      0.479167       0.458333       0.000000
      0.416667       0.458333       0.000000
      0.437500       0.458333       0.000000
      0.437500       0.479167       0.000000
      0.416667       0.479167       0.000000
      0.437500       0.458333       0.000000
      0.458333       0.458333       0.000000
      0.458333       0.479167       0.000000
      0.437500       0.479167       0.000000
      0.416667       0.479167       0.000000
      0.437500       0.479167       0.000000
      0.437500       0.500000       0.000000
      0.416667       0.500000       0.000000
[...]
POINT_DATA  1152
VECTORS U float 
      0.000000       0.000000       0.000000
      0.000000       0.000000       0.000000
      0.000073      -0.000015       0.000000
      0.000054      -0.000016       0.000000
      0.000000       0.000000       0.000000
      0.000000       0.000000       0.000000
      0.000093       0.000014       0.000000
      0.000073      -0.000015       0.000000
      0.000054      -0.000016       0.000000
      0.000073      -0.000015       0.000000
      0.000080      -0.000041       0.000000
      0.000056      -0.000084       0.000000
      0.000073      -0.000015       0.000000
      0.000093       0.000014       0.000000
      0.000103       0.000019       0.000000
      0.000080      -0.000041       0.000000
      0.000000       0.000000       0.000000
      0.000000       0.000000       0.000000
      0.000110       0.000055       0.000000
      0.000093       0.000014       0.000000
      0.000000       0.000000       0.000000
      0.000000       0.000000       0.000000
      0.000120       0.000107       0.000000
      0.000110       0.000055       0.000000
      0.000093       0.000014       0.000000
      0.000110       0.000055       0.000000
      0.000126       0.000099       0.000000
      0.000103       0.000019       0.000000
      0.000110       0.000055       0.000000
      0.000120       0.000107       0.000000
      0.000140       0.000210       0.000000
      0.000126       0.000099       0.000000
      0.000000       0.000000       0.000000
      0.000000       0.000000       0.000000
      0.000112       0.000170       0.000000
      0.000120       0.000107       0.000000
      0.000000       0.000000       0.000000
      0.000000       0.000000       0.000000
      0.000077       0.000237       0.000000
      0.000112       0.000170       0.000000
      0.000120       0.000107       0.000000
      0.000112       0.000170       0.000000
      0.000125       0.000354       0.000000
      0.000140       0.000210       0.000000
      0.000112       0.000170       0.000000
      0.000077       0.000237       0.000000
      0.000064       0.000509       0.000000
      0.000125       0.000354       0.000000
      0.000056      -0.000084       0.000000
      0.000080      -0.000041       0.000000
      0.000008      -0.000071       0.000000
     -0.000014      -0.000161       0.000000
      0.000080      -0.000041       0.000000
      0.000103       0.000019       0.000000
      0.000029       0.000016       0.000000
      0.000008      -0.000071       0.000000
     -0.000014      -0.000161       0.000000
      0.000008      -0.000071       0.000000
     -0.000130      -0.000097       0.000000
     -0.000145      -0.000220       0.000000
      0.000008      -0.000071       0.000000
      0.000029       0.000016       0.000000
     -0.000119       0.000008       0.000000
     -0.000130      -0.000097       0.000000
      0.000103       0.000019       0.000000
      0.000126       0.000099       0.000000
      0.000054       0.000130       0.000000
      0.000029       0.000016       0.000000
      0.000126       0.000099       0.000000
      0.000140       0.000210       0.000000
      0.000074       0.000301       0.000000
      0.000054       0.000130       0.000000
      0.000029       0.000016       0.000000
      0.000054       0.000130       0.000000
     -0.000103       0.000145       0.000000
     -0.000119       0.000008       0.000000
      0.000054       0.000130       0.000000
      0.000074       0.000301       0.000000
     -0.000082       0.000364       0.000000
     -0.000103       0.000145       0.000000
      0.000140       0.000210       0.000000
      0.000125       0.000354       0.000000
      0.000062       0.000541       0.000000
      0.000074       0.000301       0.000000
      0.000125       0.000354       0.000000
      0.000064       0.000509       0.000000
     -0.000019       0.000816       0.000000
      0.000062       0.000541       0.000000
      0.000074       0.000301       0.000000
      0.000062       0.000541       0.000000
     -0.000079       0.000714       0.000000
     -0.000082       0.000364       0.000000
      0.000062       0.000541       0.000000
     -0.000019       0.000816       0.000000
     -0.000165       0.001165       0.000000
     -0.000079       0.000714       0.000000
     -0.000145      -0.000220       0.000000
     -0.000130      -0.000097       0.000000
     -0.000301      -0.000111       0.000000
     -0.000304      -0.000247       0.000000
     -0.000130      -0.000097       0.000000
     -0.000119       0.000008       0.000000
     -0.000310       0.000006       0.000000
     -0.000301      -0.000111       0.000000
     -0.000304      -0.000247       0.000000
     -0.000301      -0.000111       0.000000
     -0.000456      -0.000110       0.000000
     -0.000454      -0.000248       0.000000
     -0.000301      -0.000111       0.000000
     -0.000310       0.000006       0.000000
     -0.000485       0.000019       0.000000
     -0.000456      -0.000110       0.000000
     -0.000119       0.000008       0.000000
     -0.000103       0.000145       0.000000
     -0.000329       0.000152       0.000000
     -0.000310       0.000006       0.000000
     -0.000103       0.000145       0.000000
     -0.000082       0.000364       0.000000
     -0.000346       0.000391       0.000000
     -0.000329       0.000152       0.000000
     -0.000310       0.000006       0.000000
     -0.000329       0.000152       0.000000
     -0.000560       0.000178       0.000000
     -0.000485       0.000019       0.000000
     -0.000329       0.000152       0.000000
     -0.000346       0.000391       0.000000
     -0.000691       0.000427       0.000000
     -0.000560       0.000178       0.000000
     -0.000082       0.000364       0.000000
     -0.000075       0.000521       0.000000
     -0.000192       0.000556       0.000000
     -0.000200       0.000381       0.000000
     -0.000075       0.000521       0.000000
     -0.000079       0.000714       0.000000
     -0.000189       0.000784       0.000000
     -0.000192       0.000556       0.000000
     -0.000200       0.000381       0.000000
     -0.000192       0.000556       0.000000
     -0.000349       0.000576       0.000000
     -0.000346       0.000391       0.000000
     -0.000192       0.000556       0.000000
     -0.000189       0.000784       0.000000
     -0.000345       0.000831       0.000000
     -0.000349       0.000576       0.000000
     -0.000079       0.000714       0.000000
     -0.000106       0.000936       0.000000
     -0.000208       0.001062       0.000000
     -0.000189       0.000784       0.000000
     -0.000106       0.000936       0.000000
     -0.000165       0.001165       0.000000
     -0.000269       0.001363       0.000000
     -0.000208       0.001062       0.000000
     -0.000189       0.000784       0.000000
     -0.000208       0.001062       0.000000
     -0.000349       0.001177       0.000000
     -0.000345       0.000831       0.000000
     -0.000208       0.001062       0.000000
     -0.000269       0.001363       0.000000
     -0.000406       0.001587       0.000000
     -0.000349       0.001177       0.000000
     -0.000346       0.000391       0.000000
     -0.000349       0.000576       0.000000
     -0.000551       0.000589       0.000000
     -0.000518       0.000402       0.000000
     -0.000349       0.000576       0.000000
     -0.000345       0.000831       0.000000
     -0.000575       0.000853       0.000000
     -0.000551       0.000589       0.000000
     -0.000518       0.000402       0.000000
     -0.000551       0.000589       0.000000
     -0.000779       0.000616       0.000000
     -0.000691       0.000427       0.000000
     -0.000551       0.000589       0.000000
     -0.000575       0.000853       0.000000
     -0.000884       0.000880       0.000000
     -0.000779       0.000616       0.000000
     -0.000345       0.000831       0.000000
     -0.000344       0.000992       0.000000
     -0.000447       0.001016       0.000000
     -0.000449       0.000844       0.000000
     -0.000344       0.000992       0.000000
     -0.000349       0.001177       0.000000
     -0.000446       0.001223       0.000000
     -0.000447       0.001016       0.000000
     -0.000449       0.000844       0.000000
     -0.000447       0.001016       0.000000
     -0.000579       0.001030       0.000000
     -0.000575       0.000853       0.000000
     -0.000447       0.001016       0.000000
     -0.000446       0.001223       0.000000
     -0.000575       0.001254       0.000000
     -0.000579       0.001030       0.000000
     -0.000349       0.001177       0.000000
     -0.000368       0.001380       0.000000
     -0.000457       0.001463       0.000000
     -0.000446       0.001223       0.000000
     -0.000368       0.001380       0.000000
     -0.000406       0.001587       0.000000
     -0.000496       0.001716       0.000000
     -0.000457       0.001463       0.000000
     -0.000446       0.001223       0.000000
     -0.000457       0.001463       0.000000
     -0.000574       0.001539       0.000000
     -0.000575       0.001254       0.000000
     -0.000457       0.001463       0.000000
     -0.000496       0.001716       0.000000
     -0.000609       0.001870       0.000000
     -0.000574       0.001539       0.000000
     -0.000575       0.000853       0.000000
     -0.000579       0.001030       0.000000
     -0.000748       0.001038       0.000000
     -0.000724       0.000862       0.000000
     -0.000579       0.001030       0.000000
     -0.000575       0.001254       0.000000
     -0.000761       0.001266       0.000000
     -0.000748       0.001038       0.000000
     -0.000724       0.000862       0.000000
     -0.000748       0.001038       0.000000
     -0.000944       0.001056       0.000000
     -0.000884       0.000880       0.000000
     -0.000748       0.001038       0.000000
     -0.000761       0.001266       0.000000
     -0.001013       0.001284       0.000000
     -0.000944       0.001056       0.000000
     -0.000575       0.001254       0.000000
     -0.000573       0.001388       0.000000
     -0.000656       0.001404       0.000000
     -0.000660       0.001262       0.000000
     -0.000573       0.001388       0.000000
     -0.000574       0.001539       0.000000
     -0.000652       0.001571       0.000000
     -0.000656       0.001404       0.000000
     -0.000660       0.001262       0.000000
     -0.000656       0.001404       0.000000
     -0.000760       0.001412       0.000000
     -0.000761       0.001266       0.000000
     -0.000656       0.001404       0.000000
     -0.000652       0.001571       0.000000
     -0.000753       0.001592       0.000000
     -0.000760       0.001412       0.000000
     -0.000574       0.001539       0.000000
     -0.000585       0.001703       0.000000
     -0.000656       0.001763       0.000000
     -0.000652       0.001571       0.000000
     -0.000585       0.001703       0.000000
     -0.000609       0.001870       0.000000
     -0.000680       0.001964       0.000000
     -0.000656       0.001763       0.000000
     -0.000652       0.001571       0.000000
     -0.000656       0.001763       0.000000
     -0.000746       0.001820       0.000000
     -0.000753       0.001592       0.000000
     -0.000656       0.001763       0.000000
     -0.000680       0.001964       0.000000
     -0.000768       0.002083       0.000000
     -0.000746       0.001820       0.000000
     -0.000761       0.001266       0.000000
     -0.000760       0.001412       0.000000
     -0.000895       0.001416       0.000000
     -0.000882       0.001272       0.000000
     -0.000760       0.001412       0.000000
     -0.000753       0.001592       0.000000
     -0.000899       0.001599       0.000000
     -0.000895       0.001416       0.000000
     -0.000882       0.001272       0.000000
     -0.000895       0.001416       0.000000
     -0.001052       0.001428       0.000000
     -0.001013       0.001284       0.000000
     -0.000895       0.001416       0.000000
     -0.000899       0.001599       0.000000
     -0.001100       0.001612       0.000000
     -0.001052       0.001428       0.000000
     -0.000753       0.001592       0.000000
     -0.000746       0.001820       0.000000
     -0.000884       0.001861       0.000000
     -0.000899       0.001599       0.000000
     -0.000746       0.001820       0.000000
     -0.000768       0.002083       0.000000
     -0.000893       0.002258       0.000000
     -0.000884       0.001861       0.000000
     -0.000899       0.001599       0.000000
     -0.000884       0.001861       0.000000
     -0.001163       0.001886       0.000000
     -0.001100       0.001612       0.000000
     -0.000884       0.001861       0.000000
     -0.000893       0.002258       0.000000
     -0.001237       0.002746       0.000000
     -0.001163       0.001886       0.000000
      0.000000       0.000000       0.000000
      0.000000       0.000000       0.000000
      0.000017       0.000296       0.000000
      0.000077       0.000237       0.000000
      0.000000       0.000000       0.000000
      0.000000       0.000000       0.000000
     -0.000062       0.000341       0.000000
      0.000017       0.000296       0.000000
      0.000077       0.000237       0.000000
      0.000017       0.000296       0.000000
     -0.000047       0.000646       0.000000
      0.000064       0.000509       0.000000
      0.000017       0.000296       0.000000
     -0.000062       0.000341       0.000000
     -0.000191       0.000747       0.000000
     -0.000047       0.000646       0.000000
      0.000000       0.000000       0.000000
      0.000000       0.000000       0.000000
     -0.000152       0.000376       0.000000
     -0.000062       0.000341       0.000000
      0.000000       0.000000       0.000000
      0.000000       0.000000       0.000000
     -0.000256       0.000416       0.000000
     -0.000152       0.000376       0.000000
     -0.000062       0.000341       0.000000
     -0.000152       0.000376       0.000000
     -0.000355       0.000821       0.000000
     -0.000191       0.000747       0.000000
     -0.000152       0.000376       0.000000
     -0.000256       0.000416       0.000000
     -0.000533       0.000898       0.000000
     -0.000355       0.000821       0.000000
      0.000000       0.000000       0.000000
      0.000000       0.000000       0.000000
     -0.000399       0.000500       0.000000
     -0.000256       0.000416       0.000000
      0.000000       0.000000       0.000000
      0.000000       0.000000       0.000000
     -0.000618       0.000754       0.000000
     -0.000399       0.000500       0.000000
     -0.000256       0.000416       0.000000
     -0.000399       0.000500       0.000000
     -0.000733       0.001027       0.000000
     -0.000533       0.000898       0.000000
     -0.000399       0.000500       0.000000
     -0.000618       0.000754       0.000000
     -0.000942       0.001254       0.000000
     -0.000733       0.001027       0.000000
      0.000064       0.000509       0.000000
     -0.000047       0.000646       0.000000
     -0.000175       0.001055       0.000000
     -0.000019       0.000816       0.000000
     -0.000047       0.000646       0.000000
     -0.000191       0.000747       0.000000
     -0.000374       0.001214       0.000000
     -0.000175       0.001055       0.000000
     -0.000019       0.000816       0.000000
     -0.000175       0.001055       0.000000
     -0.000371       0.001539       0.000000
     -0.000165       0.001165       0.000000
     -0.000175       0.001055       0.000000
     -0.000374       0.001214       0.000000
     -0.000603       0.001732       0.000000
     -0.000371       0.001539       0.000000
     -0.000191       0.000747       0.000000
     -0.000355       0.000821       0.000000
     -0.000582       0.001313       0.000000
     -0.000374       0.001214       0.000000
     -0.000355       0.000821       0.000000
     -0.000533       0.000898       0.000000
     -0.000789       0.001400       0.000000
     -0.000582       0.001313       0.000000
     -0.000374       0.001214       0.000000
     -0.000582       0.001313       0.000000
     -0.000813       0.001822       0.000000
     -0.000603       0.001732       0.000000
     -0.000582       0.001313       0.000000
     -0.000789       0.001400       0.000000
     -0.001010       0.001890       0.000000
     -0.000813       0.001822       0.000000
     -0.000533       0.000898       0.000000
     -0.000733       0.001027       0.000000
     -0.000994       0.001520       0.000000
     -0.000789       0.001400       0.000000
     -0.000733       0.001027       0.000000
     -0.000942       0.001254       0.000000
     -0.001188       0.001704       0.000000
     -0.000994       0.001520       0.000000
     -0.000789       0.001400       0.000000
     -0.000994       0.001520       0.000000
     -0.001202       0.001980       0.000000
     -0.001010       0.001890       0.000000
     -0.000994       0.001520       0.000000
     -0.001188       0.001704       0.000000
     -0.001381       0.002116       0.000000
     -0.001202       0.001980       0.000000
     -0.000603       0.001732       0.000000
     -0.000813       0.001822       0.000000
     -0.001007       0.002314       0.000000
     -0.000853       0.002267       0.000000
     -0.000813       0.001822       0.000000
     -0.001010       0.001890       0.000000
     -0.001171       0.002356       0.000000
     -0.001007       0.002314       0.000000
     -0.000853       0.002267       0.000000
     -0.001007       0.002314       0.000000
     -0.001097       0.002771       0.000000
     -0.000992       0.002752       0.000000
     -0.001007       0.002314       0.000000
     -0.001171       0.002356       0.000000
     -0.001242       0.002799       0.000000
     -0.001097       0.002771       0.000000
     -0.001010       0.001890       0.000000
     -0.001202       0.001980       0.000000
     -0.001345       0.002414       0.000000
     -0.001171       0.002356       0.000000
     -0.001202       0.001980       0.000000
     -0.001381       0.002116       0.000000
     -0.001514       0.002495       0.000000
     -0.001345       0.002414       0.000000
     -0.001171       0.002356       0.000000
     -0.001345       0.002414       0.000000
     -0.001407       0.002831       0.000000
     -0.001242       0.002799       0.000000
     -0.001345       0.002414       0.000000
     -0.001514       0.002495       0.000000
     -0.001573       0.002858       0.000000
     -0.001407       0.002831       0.000000
     -0.000165       0.001165       0.000000
     -0.000258       0.001373       0.000000
     -0.000376       0.001629       0.000000
     -0.000269       0.001363       0.000000
     -0.000258       0.001373       0.000000
     -0.000371       0.001539       0.000000
     -0.000504       0.001819       0.000000
     -0.000376       0.001629       0.000000
     -0.000269       0.001363       0.000000
     -0.000376       0.001629       0.000000
     -0.000535       0.001932       0.000000
     -0.000406       0.001587       0.000000
     -0.000376       0.001629       0.000000
     -0.000504       0.001819       0.000000
     -0.000668       0.002129       0.000000
     -0.000535       0.001932       0.000000
     -0.000371       0.001539       0.000000
     -0.000489       0.001655       0.000000
     -0.000624       0.001935       0.000000
     -0.000504       0.001819       0.000000
     -0.000489       0.001655       0.000000
     -0.000603       0.001732       0.000000
     -0.000731       0.002002       0.000000
     -0.000624       0.001935       0.000000
     -0.000504       0.001819       0.000000
     -0.000624       0.001935       0.000000
     -0.000770       0.002222       0.000000