# vtk DataFile Version 2.0
time_10.vtk
ASCII
DATASET UNSTRUCTURED_GRID
POINTS  1152 float
      0.000000       0.000000       0.000000
      0.083333       0.000000       0.000000
      0.083333       0.083333       0.000000
      0.000000       0.083333       0.000000
      0.083333       0.000000       0.000000
      0.166667       0.000000       0.000000
      0.166667       0.083333       0.000000
      0.083333       0.083333       0.000000
      0.000000       0.083333       0.000000
      0.083333       0.083333       0.000000
      0.083333       0.166667       0.000000
      0.000000       0.166667       0.000000
      0.083333       0.083333       0.000000
      0.166667       0.083333       0.000000
      0.166667       0.166667       0.000000
      0.083333       0.166667       0.000000
      0.166667       0.000000       0.000000
      0.250000       0.000000       0.000000
      0.250000       0.083333       0.000000
      0.166667       0.083333       0.000000
      0.250000       0.000000       0.000000
      0.333333       0.000000       0.000000
      0.333333       0.083333       0.000000
      0.250000       0.083333       0.000000
      0.166667       0.083333       0.000000
      0.250000       0.083333       0.000000
      0.250000       0.166667       0.000000
      0.166667       0.166667       0.000000
      0.250000       0.083333       0.000000
      0.333333       0.083333       0.000000
      0.333333       0.166667       0.000000
      0.250000       0.166667       0.000000
      0.333333       0.000000       0.000000
      0.416667       0.000000       0.000000
      0.416667       0.083333       0.000000
      0.333333       0.083333       0.000000
      0.416667       0.000000       0.000000
      0.500000       0.000000       0.000000
      0.500000       0.083333       0.000000
      0.416667       0.083333       0.000000
      0.333333       0.083333       0.000000
      0.416667       0.083333       0.000000
      0.416667       0.166667       0.000000
      0.333333       0.166667       0.000000
      0.416667       0.083333       0.000000
      0.500000       0.083333       0.000000
      0.500000       0.166667       0.000000
      0.416667       0.166667       0.000000
      0.000000       0.166667       0.000000
      0.083333       0.166667       0.000000
      0.083333       0.250000       0.000000
      0.000000       0.250000       0.000000
      0.083333       0.166667       0.000000
      0.166667       0.166667       0.000000
      0.166667       0.250000       0.000000
      0.083333       0.250000       0.000000
      0.000000       0.250000       0.000000
      0.083333       0.250000       0.000000
      0.083333       0.333333       0.000000
      0.000000       0.333333       0.000000
      0.083333       0.250000       0.000000
      0.166667       0.250000       0.000000
      0.166667       0.333333       0.000000
      0.083333       0.333333       0.000000
      0.166667       0.166667       0.000000
      0.250000       0.166667       0.000000
      0.250000       0.250000       0.000000
      0.166667       0.250000       0.000000
      0.250000       0.166667       0.000000
      0.333333       0.166667       0.000000
      0.333333       0.250000       0.000000
      0.250000       0.250000       0.000000
      0.166667       0.250000       0.000000
      0.250000       0.250000       0.000000
      0.250000       0.333333       0.000000
      0.166667       0.333333       0.000000
      0.250000       0.250000       0.000000
      0.333333       0.250000       0.000000
      0.333333       0.333333       0.000000
      0.250000       0.333333       0.000000
      0.333333       0.166667       0.000000
      0.416667       0.166667       0.000000
      0.416667       0.250000       0.000000
      0.333333       0.250000       0.000000
      0.416667       0.166667       0.000000
      0.500000       0.166667       0.000000
      0.500000       0.250000       0.000000
      0.416667       0.250000       0.000000
      0.333333       0.250000       0.000000
      0.416667       0.250000       0.000000
      0.416667       0.333333       0.000000
      0.333333       0.333333       0.000000
      0.416667       0.250000       0.000000
      0.500000       0.250000       0.000000
      0.500000       0.333333       0.000000
      0.416667       0.333333       0.000000
      0.000000       0.333333       0.000000
      0.083333       0.333333       0.000000
      0.083333       0.416667       0.000000
      0.000000       0.416667       0.000000
      0.083333       0.333333       0.000000
      0.166667       0.333333       0.000000
      0.166667       0.416667       0.000000
      0.083333       0.416667       0.000000
      0.000000       0.416667       0.000000
      0.083333       0.416667       0.000000
      0.083333       0.500000       0.000000
      0.000000       0.500000       0.000000
      0.083333       0.416667       0.000000
      0.166667       0.416667       0.000000
      0.166667       0.500000       0.000000
      0.083333       0.500000       0.000000
      0.166667       0.333333       0.000000
      0.250000       0.333333       0.000000
      0.250000       0.416667       0.000000
      0.166667       0.416667       0.000000
      0.250000       0.333333       0.000000
      0.333333       0.333333       0.000000
      0.333333       0.416667       0.000000
      0.250000       0.416667       0.000000
      0.166667       0.416667       0.000000
      0.250000       0.416667       0.000000
      0.250000       0.500000       0.000000
      0.166667       0.500000       0.000000
      0.250000       0.416667       0.000000
      0.333333       0.416667       0.000000
      0.333333       0.500000       0.000000
      0.250000       0.500000       0.000000
      0.333333       0.333333       0.000000
      0.375000       0.333333       0.000000
      0.375000       0.375000       0.000000
      0.333333       0.375000       0.000000
      0.375000       0.333333       0.000000
      0.416667       0.333333       0.000000
      0.416667       0.375000       0.000000
      0.375000       0.375000       0.000000
      0.333333       0.375000       0.000000
      0.375000       0.375000       0.000000
      0.375000       0.416667       0.000000
      0.333333       0.416667       0.000000
      0.375000       0.375000       0.000000
      0.416667       0.375000       0.000000
      0.416667       0.416667       0.000000
      0.375000       0.416667       0.000000
      0.416667       0.333333       0.000000
      0.458333       0.333333       0.000000
      0.458333       0.375000       0.000000
      0.416667       0.375000       0.000000
      0.458333       0.333333       0.000000
      0.500000       0.333333       0.000000
      0.500000       0.375000       0.000000
      0.458333       0.375000       0.000000
      0.416667       0.375000       0.000000
      0.458333       0.375000       0.000000
      0.458333       0.416667       0.000000
      0.416667       0.416667       0.000000
      0.458333       0.375000       0.000000
      0.500000       0.375000       0.000000
      0.500000       0.416667       0.000000
      0.458333       0.416667       0.000000
      0.333333       0.416667       0.000000
      0.375000       0.416667       0.000000
      0.375000       0.458333       0.000000
      0.333333       0.458333       0.000000
      0.375000       0.416667       0.000000
      0.416667       0.416667       0.000000
      0.416667       0.458333       0.000000
      0.375000       0.458333       0.000000
      0.333333       0.458333       0.000000
      0.375000       0.458333       0.000000
      0.375000       0.500000       0.000000
      0.333333       0.500000       0.000000
      0.375000       0.458333       0.000000
      0.416667       0.458333       0.000000
      0.416667       0.500000       0.000000
      0.375000       0.500000       0.000000
      0.416667       0.416667       0.000000
      0.437500       0.416667       0.000000
      0.437500       0.437500       0.000000
      0.416667       0.437500       0.000000
      0.437500       0.416667       0.000000
      0.458333       0.416667       0.000000
      0.458333       0.437500       0.000000
      0.437500       0.437500       0.000000
      0.416667       0.437500       0.000000
      0.437500       0.437500       0.000000
      0.437500       0.458333       0.000000
      0.416667       0.458333       0.000000
      0.437500       0.437500       0.000000
      0.458333       0.437500       0.000000
      0.458333       0.458333       0.000000
      0.437500       0.458333       0.000000
      0.458333       0.416667       0.000000
      0.479167       0.416667       0.000000
      0.479167       0.437500       0.000000
      0.458333       0.437500       0.000000
      0.479167       0.416667       0.000000
      0.500000       0.416667       0.000000
      0.500000       0.437500       0.000000
      0.479167       0.437500       0.000000
      0.458333       0.437500       0.000000
      0.479167       0.437500       0.000000
      0.479167       0.458333       0.000000
      0.458333       0.458333       0.000000
      0.479167       0.437500       0.000000
      0.500000       0.437500       0.000000
      0.500000       0.458333       0.000000
      0.479167       0.458333       0.000000
      0.416667       0.458333       0.000000
      0.437500       0.458333       0.000000
      0.437500       0.479167       0.000000
      0.416667       0.479167       0.000000
      0.437500       0.458333       0.000000
      0.458333       0.458333       0.000000
      0.458333       0.479167       0.000000
      0.437500       0.479167       0.000000
      0.416667       0.479167       0.000000
      0.437500       0.479167       0.000000
      0.437500       0.500000       0.000000
      0.416667       0.500000       0.000000
[...]
POINT_DATA  1152
VECTORS U float 
      0.000000       0.000000       0.000000
      0.000000       0.000000       0.000000
      0.000072      -0.000017       0.000000
      0.000052      -0.000020       0.000000
      0.000000       0.000000       0.000000
      0.000000       0.000000       0.000000
      0.000092       0.000013       0.000000
      0.000072      -0.000017       0.000000
      0.000052      -0.000020       0.000000
      0.000072      -0.000017       0.000000
      0.000076      -0.000045       0.000000
      0.000051      -0.000091       0.000000
      0.000072      -0.000017       0.000000
      0.000092       0.000013       0.000000
      0.000099       0.000016       0.000000
      0.000076      -0.000045       0.000000
      0.000000       0.000000       0.000000
      0.000000       0.000000       0.000000
      0.000111       0.000054       0.000000
      0.000092       0.000013       0.000000
      0.000000       0.000000       0.000000
      0.000000       0.000000       0.000000
      0.000122       0.000108       0.000000
      0.000111       0.000054       0.000000
      0.000092       0.000013       0.000000
      0.000111       0.000054       0.000000
      0.000124       0.000097       0.000000
      0.000099       0.000016       0.000000
      0.000111       0.000054       0.000000
      0.000122       0.000108       0.000000
      0.000140       0.000211       0.000000
      0.000124       0.000097       0.000000
      0.000000       0.000000       0.000000
      0.000000       0.000000       0.000000
      0.000114       0.000173       0.000000
      0.000122       0.000108       0.000000
      0.000000       0.000000       0.000000
      0.000000       0.000000       0.000000
      0.000081       0.000242       0.000000
      0.000114       0.000173       0.000000
      0.000122       0.000108       0.000000
      0.000114       0.000173       0.000000
      0.000127       0.000358       0.000000
      0.000140       0.000211       0.000000
      0.000114       0.000173       0.000000
      0.000081       0.000242       0.000000
      0.000066       0.000520       0.000000
      0.000127       0.000358       0.000000
      0.000051      -0.000091       0.000000
      0.000076      -0.000045       0.000000
     -0.000000      -0.000077       0.000000
     -0.000024      -0.000170       0.000000
      0.000076      -0.000045       0.000000
      0.000099       0.000016       0.000000
      0.000021       0.000011       0.000000
     -0.000000      -0.000077       0.000000
     -0.000024      -0.000170       0.000000
     -0.000000      -0.000077       0.000000
     -0.000144      -0.000105       0.000000
     -0.000158      -0.000231       0.000000
     -0.000000      -0.000077       0.000000
      0.000021       0.000011       0.000000
     -0.000132       0.000003       0.000000
     -0.000144      -0.000105       0.000000
      0.000099       0.000016       0.000000
      0.000124       0.000097       0.000000
      0.000047       0.000127       0.000000
      0.000021       0.000011       0.000000
      0.000124       0.000097       0.000000
      0.000140       0.000211       0.000000
      0.000068       0.000301       0.000000
      0.000047       0.000127       0.000000
      0.000021       0.000011       0.000000
      0.000047       0.000127       0.000000
     -0.000116       0.000141       0.000000
     -0.000132       0.000003       0.000000
      0.000047       0.000127       0.000000
      0.000068       0.000301       0.000000
     -0.000096       0.000362       0.000000
     -0.000116       0.000141       0.000000
      0.000140       0.000211       0.000000
      0.000127       0.000358       0.000000
      0.000059       0.000546       0.000000
      0.000068       0.000301       0.000000
      0.000127       0.000358       0.000000
      0.000066       0.000520       0.000000
     -0.000020       0.000832       0.000000
      0.000059       0.000546       0.000000
      0.000068       0.000301       0.000000
      0.000059       0.000546       0.000000
     -0.000091       0.000717       0.000000
     -0.000096       0.000362       0.000000
      0.000059       0.000546       0.000000
     -0.000020       0.000832       0.000000
     -0.000174       0.001184       0.000000
     -0.000091       0.000717       0.000000
     -0.000158      -0.000231       0.000000
     -0.000144      -0.000105       0.000000
     -0.000320      -0.000119       0.000000
     -0.000322      -0.000258       0.000000
     -0.000144      -0.000105       0.000000
     -0.000132       0.000003       0.000000
     -0.000329       0.000000       0.000000
     -0.000320      -0.000119       0.000000
     -0.000322      -0.000258       0.000000
     -0.000320      -0.000119       0.000000
     -0.000478      -0.000118       0.000000
     -0.000476      -0.000260       0.000000
     -0.000320      -0.000119       0.000000
     -0.000329       0.000000       0.000000
     -0.000507       0.000014       0.000000
     -0.000478      -0.000118       0.000000
     -0.000132       0.000003       0.000000
     -0.000116       0.000141       0.000000
     -0.000349       0.000148       0.000000
     -0.000329       0.000000       0.000000
     -0.000116       0.000141       0.000000
     -0.000096       0.000362       0.000000
     -0.000368       0.000389       0.000000
     -0.000349       0.000148       0.000000
     -0.000329       0.000000       0.000000
     -0.000349       0.000148       0.000000
     -0.000584       0.000175       0.000000
     -0.000507       0.000014       0.000000
     -0.000349       0.000148       0.000000
     -0.000368       0.000389       0.000000
     -0.000717       0.000426       0.000000
     -0.000584       0.000175       0.000000
     -0.000096       0.000362       0.000000
     -0.000088       0.000521       0.000000
     -0.000211       0.000555       0.000000
     -0.000218       0.000379       0.000000
     -0.000088       0.000521       0.000000
     -0.000091       0.000717       0.000000
     -0.000208       0.000785       0.000000
     -0.000211       0.000555       0.000000
     -0.000218       0.000379       0.000000
     -0.000211       0.000555       0.000000
     -0.000373       0.000575       0.000000
     -0.000368       0.000389       0.000000
     -0.000211       0.000555       0.000000
     -0.000208       0.000785       0.000000
     -0.000371       0.000831       0.000000
     -0.000373       0.000575       0.000000
     -0.000091       0.000717       0.000000
     -0.000116       0.000945       0.000000
     -0.000225       0.001068       0.000000
     -0.000208       0.000785       0.000000
     -0.000116       0.000945       0.000000
     -0.000174       0.001184       0.000000
     -0.000283       0.001380       0.000000
     -0.000225       0.001068       0.000000
     -0.000208       0.000785       0.000000
     -0.000225       0.001068       0.000000
     -0.000375       0.001178       0.000000
     -0.000371       0.000831       0.000000
     -0.000225       0.001068       0.000000
     -0.000283       0.001380       0.000000
     -0.000428       0.001599       0.000000
     -0.000375       0.001178       0.000000
     -0.000368       0.000389       0.000000
     -0.000373       0.000575       0.000000
     -0.000579       0.000589       0.000000
     -0.000543       0.000401       0.000000
     -0.000373       0.000575       0.000000
     -0.000371       0.000831       0.000000
     -0.000606       0.000852       0.000000
     -0.000579       0.000589       0.000000
     -0.000543       0.000401       0.000000
     -0.000579       0.000589       0.000000
     -0.000807       0.000617       0.000000
     -0.000717       0.000426       0.000000
     -0.000579       0.000589       0.000000
     -0.000606       0.000852       0.000000
     -0.000914       0.000881       0.000000
     -0.000807       0.000617       0.000000
     -0.000371       0.000831       0.000000
     -0.000370       0.000992       0.000000
     -0.000477       0.001015       0.000000
     -0.000478       0.000844       0.000000
     -0.000370       0.000992       0.000000
     -0.000375       0.001178       0.000000
     -0.000477       0.001220       0.000000
     -0.000477       0.001015       0.000000
     -0.000478       0.000844       0.000000
     -0.000477       0.001015       0.000000
     -0.000612       0.001028       0.000000
     -0.000606       0.000852       0.000000
     -0.000477       0.001015       0.000000
     -0.000477       0.001220       0.000000
     -0.000611       0.001249       0.000000
     -0.000612       0.001028       0.000000
     -0.000375       0.001178       0.000000
     -0.000392       0.001384       0.000000
     -0.000487       0.001461       0.000000
     -0.000477       0.001220       0.000000
     -0.000392       0.001384       0.000000
     -0.000428       0.001599       0.000000
     -0.000522       0.001723       0.000000
     -0.000487       0.001461       0.000000
     -0.000477       0.001220       0.000000
     -0.000487       0.001461       0.000000
     -0.000611       0.001531       0.000000
     -0.000611       0.001249       0.000000
     -0.000487       0.001461       0.000000
     -0.000522       0.001723       0.000000
     -0.000641       0.001868       0.000000
     -0.000611       0.001531       0.000000
     -0.000606       0.000852       0.000000
     -0.000612       0.001028       0.000000
     -0.000781       0.001038       0.000000
     -0.000755       0.000862       0.000000
     -0.000612       0.001028       0.000000
     -0.000611       0.001249       0.000000
     -0.000797       0.001262       0.000000
     -0.000781       0.001038       0.000000
     -0.000755       0.000862       0.000000
     -0.000781       0.001038       0.000000
     -0.000975       0.001056       0.000000
     -0.000914       0.000881       0.000000
     -0.000781       0.001038       0.000000
     -0.000797       0.001262       0.000000
     -0.001044       0.001280       0.000000
     -0.000975       0.001056       0.000000
     -0.000611       0.001249       0.000000
     -0.000609       0.001382       0.000000
     -0.000694       0.001396       0.000000
     -0.000696       0.001257       0.000000
     -0.000609       0.001382       0.000000
     -0.000611       0.001531       0.000000
     -0.000691       0.001560       0.000000
     -0.000694       0.001396       0.000000
     -0.000696       0.001257       0.000000
     -0.000694       0.001396       0.000000
     -0.000799       0.001404       0.000000
     -0.000797       0.001262       0.000000
     -0.000694       0.001396       0.000000
     -0.000691       0.001560       0.000000
     -0.000794       0.001579       0.000000
     -0.000799       0.001404       0.000000
     -0.000611       0.001531       0.000000
     -0.000620       0.001696       0.000000
     -0.000695       0.001750       0.000000
     -0.000691       0.001560       0.000000
     -0.000620       0.001696       0.000000
     -0.000641       0.001868       0.000000
     -0.000716       0.001956       0.000000
     -0.000695       0.001750       0.000000
     -0.000691       0.001560       0.000000
     -0.000695       0.001750       0.000000
     -0.000788       0.001802       0.000000
     -0.000794       0.001579       0.000000
     -0.000695       0.001750       0.000000
     -0.000716       0.001956       0.000000
     -0.000808       0.002069       0.000000
     -0.000788       0.001802       0.000000
     -0.000797       0.001262       0.000000
     -0.000799       0.001404       0.000000
     -0.000930       0.001409       0.000000
     -0.000915       0.001268       0.000000
     -0.000799       0.001404       0.000000
     -0.000794       0.001579       0.000000
     -0.000938       0.001586       0.000000
     -0.000930       0.001409       0.000000
     -0.000915       0.001268       0.000000
     -0.000930       0.001409       0.000000
     -0.001083       0.001421       0.000000
     -0.001044       0.001280       0.000000
     -0.000930       0.001409       0.000000
     -0.000938       0.001586       0.000000
     -0.001131       0.001599       0.000000
     -0.001083       0.001421       0.000000
     -0.000794       0.001579       0.000000
     -0.000788       0.001802       0.000000
     -0.000926       0.001840       0.000000
     -0.000938       0.001586       0.000000
     -0.000788       0.001802       0.000000
     -0.000808       0.002069       0.000000
     -0.000937       0.002249       0.000000
     -0.000926       0.001840       0.000000
     -0.000938       0.001586       0.000000
     -0.000926       0.001840       0.000000
     -0.001201       0.001868       0.000000
     -0.001131       0.001599       0.000000
     -0.000926       0.001840       0.000000
     -0.000937       0.002249       0.000000
     -0.001338       0.002890       0.000000
     -0.001201       0.001868       0.000000
      0.000000       0.000000       0.000000
      0.000000       0.000000       0.000000
      0.000019       0.000305       0.000000
      0.000081       0.000242       0.000000
      0.000000       0.000000       0.000000
      0.000000       0.000000       0.000000
     -0.000062       0.000354       0.000000
      0.000019       0.000305       0.000000
      0.000081       0.000242       0.000000
      0.000019       0.000305       0.000000
     -0.000046       0.000666       0.000000
      0.000066       0.000520       0.000000
      0.000019       0.000305       0.000000
     -0.000062       0.000354       0.000000
     -0.000197       0.000776       0.000000
     -0.000046       0.000666       0.000000
      0.000000       0.000000       0.000000
      0.000000       0.000000       0.000000
     -0.000157       0.000393       0.000000
     -0.000062       0.000354       0.000000
      0.000000       0.000000       0.000000
      0.000000       0.000000       0.000000
     -0.000266       0.000436       0.000000
     -0.000157       0.000393       0.000000
     -0.000062       0.000354       0.000000
     -0.000157       0.000393       0.000000
     -0.000368       0.000858       0.000000
     -0.000197       0.000776       0.000000
     -0.000157       0.000393       0.000000
     -0.000266       0.000436       0.000000
     -0.000557       0.000943       0.000000
     -0.000368       0.000858       0.000000
      0.000000       0.000000       0.000000
      0.000000       0.000000       0.000000
     -0.000418       0.000527       0.000000
     -0.000266       0.000436       0.000000
      0.000000       0.000000       0.000000
      0.000000       0.000000       0.000000
     -0.000649       0.000797       0.000000
     -0.000418       0.000527       0.000000
     -0.000266       0.000436       0.000000
     -0.000418       0.000527       0.000000
     -0.000768       0.001083       0.000000
     -0.000557       0.000943       0.000000
     -0.000418       0.000527       0.000000
     -0.000649       0.000797       0.000000
     -0.000989       0.001323       0.000000
     -0.000768       0.001083       0.000000
      0.000066       0.000520       0.000000
     -0.000046       0.000666       0.000000
     -0.000180       0.001087       0.000000
     -0.000020       0.000832       0.000000
     -0.000046       0.000666       0.000000
     -0.000197       0.000776       0.000000
     -0.000388       0.001263       0.000000
     -0.000180       0.001087       0.000000
     -0.000020       0.000832       0.000000
     -0.000180       0.001087       0.000000
     -0.000384       0.001588       0.000000
     -0.000174       0.001184       0.000000
     -0.000180       0.001087       0.000000
     -0.000388       0.001263       0.000000
     -0.000631       0.001809       0.000000
     -0.000384       0.001588       0.000000
     -0.000197       0.000776       0.000000
     -0.000368       0.000858       0.000000
     -0.000608       0.001375       0.000000
     -0.000388       0.001263       0.000000
     -0.000368       0.000858       0.000000
     -0.000557       0.000943       0.000000
     -0.000828       0.001471       0.000000
     -0.000608       0.001375       0.000000
     -0.000388       0.001263       0.000000
     -0.000608       0.001375       0.000000
     -0.000855       0.001912       0.000000
     -0.000631       0.001809       0.000000
     -0.000608       0.001375       0.000000
     -0.000828       0.001471       0.000000
     -0.001064       0.001988       0.000000
     -0.000855       0.001912       0.000000
     -0.000557       0.000943       0.000000
     -0.000768       0.001083       0.000000
     -0.001045       0.001601       0.000000
     -0.000828       0.001471       0.000000
     -0.000768       0.001083       0.000000
     -0.000989       0.001323       0.000000
     -0.001249       0.001797       0.000000
     -0.001045       0.001601       0.000000
     -0.000828       0.001471       0.000000
     -0.001045       0.001601       0.000000
     -0.001266       0.002085       0.000000
     -0.001064       0.001988       0.000000
     -0.001045       0.001601       0.000000
     -0.001249       0.001797       0.000000
     -0.001455       0.002229       0.000000
     -0.001266       0.002085       0.000000
     -0.000631       0.001809       0.000000
     -0.000855       0.001912       0.000000
     -0.001066       0.002432       0.000000
     -0.000902       0.002378       0.000000
     -0.000855       0.001912       0.000000
     -0.001064       0.001988       0.000000
     -0.001238       0.002478       0.000000
     -0.001066       0.002432       0.000000
     -0.000902       0.002378       0.000000
     -0.001066       0.002432       0.000000
     -0.001164       0.002913       0.000000
     -0.001055       0.002894       0.000000
     -0.001066       0.002432       0.000000
     -0.001238       0.002478       0.000000
     -0.001314       0.002942       0.000000
     -0.001164       0.002913       0.000000
     -0.001064       0.001988       0.000000
     -0.001266       0.002085       0.000000
     -0.001420       0.002539       0.000000
     -0.001238       0.002478       0.000000
     -0.001266       0.002085       0.000000
     -0.001455       0.002229       0.000000
     -0.001596       0.002625       0.000000
     -0.001420       0.002539       0.000000
     -0.001238       0.002478       0.000000
     -0.001420       0.002539       0.000000
     -0.001486       0.002975       0.000000
     -0.001314       0.002942       0.000000
     -0.001420       0.002539       0.000000
     -0.001596       0.002625       0.000000
     -0.001659       0.003003       0.000000
     -0.001486       0.002975       0.000000
     -0.000174       0.001184       0.000000
     -0.000267       0.001406       0.000000
     -0.000390       0.001667       0.000000
     -0.000283       0.001380       0.000000
     -0.000267       0.001406       0.000000
     -0.000384       0.001588       0.000000
     -0.000523       0.001881       0.000000
     -0.000390       0.001667       0.000000
     -0.000283       0.001380       0.000000
     -0.000390       0.001667       0.000000
     -0.000556       0.001978       0.000000
     -0.000428       0.001599       0.000000
     -0.000390       0.001667       0.000000
     -0.000523       0.001881       0.000000
     -0.000698       0.002209       0.000000
     -0.000556       0.001978       0.000000
     -0.000384       0.001588       0.000000
     -0.000509       0.001719       0.000000
     -0.000653       0.002016       0.000000
     -0.000523       0.001881       0.000000
     -0.000509       0.001719       0.000000
     -0.000631       0.001809       0.000000
     -0.000768       0.002095       0.000000
     -0.000653       0.002016       0.000000
     -0.000523       0.001881       0.000000
     -0.000653       0.002016       0.000000
     -0.000811       0.002322       0.000000