# vtk DataFile Version 2.0
time_10.vtk
ASCII
DATASET UNSTRUCTURED_GRID
POINTS  1152 float
      0.000000       0.000000       0.000000
      0.083333       0.000000       0.000000
      0.083333       0.083333       0.000000
      0.000000       0.083333       0.000000
      0.083333       0.000000       0.000000
      0.166667       0.000000       0.000000
      0.166667       0.083333       0.000000
      0.083333       0.083333       0.000000
      0.000000       0.083333       0.000000
      0.083333       0.083333       0.000000
      0.083333       0.166667       0.000000
      0.000000       0.166667       0.000000
      0.083333       0.083333       0.000000
      0.166667       0.083333       0.000000
      0.166667       0.166667       0.000000
      0.083333       0.166667       0.000000
      0.166667       0.000000       0.000000
      0.250000       0.000000       0.000000
      0.250000       0.083333       0.000000
      0.166667       0.083333       0.000000
      0.250000       0.000000       0.000000
      0.333333       0.000000       0.000000
      0.333333       0.083333       0.000000
      0.250000       0.083333       0.000000
      0.166667       0.083333       0.000000
      0.250000       0.083333       0.000000
      0.250000       0.166667       0.000000
      0.166667       0.166667       0.000000
      0.250000       0.083333       0.000000
      0.333333       0.083333       0.000000
      0.333333       0.166667       0.000000
      0.250000       0.166667       0.000000
      0.333333       0.000000       0.000000
      0.416667       0.000000       0.000000
      0.416667       0.083333       0.000000
      0.333333       0.083333       0.000000
      0.416667       0.000000       0.000000
      0.500000       0.000000       0.000000
      0.500000       0.083333       0.000000
      0.416667       0.083333       0.000000
      0.333333       0.083333       0.000000
      0.416667       0.083333       0.000000
      0.416667       0.166667       0.000000
      0.333333       0.166667       0.000000
      0.416667       0.083333       0.000000
      0.500000       0.083333       0.000000
      0.500000       0.166667       0.000000
      0.416667       0.166667       0.000000
      0.000000       0.166667       0.000000
      0.083333       0.166667       0.000000
      0.083333       0.250000       0.000000
      0.000000       0.250000       0.000000
      0.083333       0.166667       0.000000
      0.166667       0.166667       0.000000
      0.166667       0.250000       0.000000
      0.083333       0.250000       0.000000
      0.000000       0.250000       0.000000
      0.083333       0.250000       0.000000
      0.083333       0.333333       0.000000
      0.000000       0.333333       0.000000
      0.083333       0.250000       0.000000
      0.166667       0.250000       0.000000
      0.166667       0.333333       0.000000
      0.083333       0.333333       0.000000
      0.166667       0.166667       0.000000
      0.250000       0.166667       0.000000
      0.250000       0.250000       0.000000
      0.166667       0.250000       0.000000
      0.250000       0.166667       0.000000
      0.333333       0.166667       0.000000
      0.333333       0.250000       0.000000
      0.250000       0.250000       0.000000
      0.166667       0.250000       0.000000
      0.250000       0.250000       0.000000
      0.250000       0.333333       0.000000
      0.166667       0.333333       0.000000
      0.250000       0.250000       0.000000
      0.333333       0.250000       0.000000
      0.333333       0.333333       0.000000
      0.250000       0.333333       0.000000
      0.333333       0.166667       0.000000
      0.416667       0.166667       0.000000
      0.416667       0.250000       0.000000
      0.333333       0.250000       0.000000
      0.416667       0.166667       0.000000
      0.500000       0.166667       0.000000
      0.500000       0.250000       0.000000
      0.416667       0.250000       0.000000
      0.333333       0.250000       0.000000
      0.416667       0.250000       0.000000
      0.416667       0.333333       0.000000
      0.333333       0.333333       0.000000
      0.416667       0.250000       0.000000
      0.500000       0.250000       0.000000
      0.500000       0.333333       0.000000
      0.416667       0.333333       0.000000
      0.000000       0.333333       0.000000
      0.083333       0.333333       0.000000
      0.083333       0.416667       0.000000
      0.000000       0.416667       0.000000
      0.083333       0.333333       0.000000
      0.166667       0.333333       0.000000
      0.166667       0.416667       0.000000
      0.083333       0.416667       0.000000
      0.000000       0.416667       0.000000
      0.083333       0.416667       0.000000
      0.083333       0.500000       0.000000
      0.000000       0.500000       0.000000
      0.083333       0.416667       0.000000
      0.166667       0.416667       0.000000
      0.166667       0.500000       0.000000
      0.083333       0.500000       0.000000
      0.166667       0.333333       0.000000
      0.250000       0.333333       0.000000
      0.250000       0.416667       0.000000
      0.166667       0.416667       0.000000
      0.250000       0.333333       0.000000
      0.333333       0.333333       0.000000
      0.333333       0.416667       0.000000
      0.250000       0.416667       0.000000
      0.166667       0.416667       0.000000
      0.250000       0.416667       0.000000
      0.250000       0.500000       0.000000
      0.166667       0.500000       0.000000
      0.250000       0.416667       0.000000
      0.333333       0.416667       0.000000
      0.333333       0.500000       0.000000
      0.250000       0.500000       0.000000
      0.333333       0.333333       0.000000
      0.375000       0.333333       0.000000
      0.375000       0.375000       0.000000
      0.333333       0.375000       0.000000
      0.375000       0.333333       0.000000
      0.416667       0.333333       0.000000
      0.416667       0.375000       0.000000
      0.375000       0.375000       0.000000
      0.333333       0.375000       0.000000
      0.375000       0.375000       0.000000
      0.375000       0.416667       0.000000
      0.333333       0.416667       0.000000
      0.375000       0.375000       0.000000
      0.416667       0.375000       0.000000
      0.416667       0.416667       0.000000
      0.375000       0.416667       0.000000
      0.416667       0.333333       0.000000
      0.458333       0.333333       0.000000
      0.458333       0.375000       0.000000
      0.416667       0.375000       0.000000
      0.458333       0.333333       0.000000
      0.500000       0.333333       0.000000
      0.500000       0.375000       0.000000
      0.458333       0.375000       0.000000
      0.416667       0.375000       0.000000
      0.458333       0.375000       0.000000
      0.458333       0.416667       0.000000
      0.416667       0.416667       0.000000
      0.458333       0.375000       0.000000
      0.500000       0.375000       0.000000
      0.500000       0.416667       0.000000
      0.458333       0.416667       0.000000
      0.333333       0.416667       0.000000
      0.375000       0.416667       0.000000
      0.375000       0.458333       0.000000
      0.333333       0.458333       0.000000
      0.375000       0.416667       0.000000
      0.416667       0.416667       0.000000
      0.416667       0.458333       0.000000
      0.375000       0.458333       0.000000
      0.333333       0.458333       0.000000
      0.375000       0.458333       0.000000
      0.375000       0.500000       0.000000
      0.333333       0.500000       0.000000
      0.375000       0.458333       0.000000
      0.416667       0.458333       0.000000
      0.416667       0.500000       0.000000
      0.375000       0.500000       0.000000
      0.416667       0.416667       0.000000
      0.437500       0.416667       0.000000
      0.437500       0.437500       0.000000
      0.416667       0.437500       0.000000
      0.437500       0.416667       0.000000
      0.458333       0.416667       0.000000
      0.458333       0.437500       0.000000
      0.437500       0.437500       0.000000
      0.416667       0.437500       0.000000
      0.437500       0.437500       0.000000
      0.437500       0.458333       0.000000
      0.416667       0.458333       0.000000
      0.437500       0.437500       0.000000
      0.458333       0.437500       0.000000
      0.458333       0.458333       0.000000
      0.437500       0.458333       0.000000
      0.458333       0.416667       0.000000
      0.479167       0.416667       0.000000
      0.479167       0.437500       0.000000
      0.458333       0.437500       0.000000
      0.479167       0.416667       0.000000
      0.500000       0.416667       0.000000
      0.500000       0.437500       0.000000
      0.479167       0.437500       0.000000
      0.458333       0.437500       0.000000
      0.479167       0.437500       0.000000
      0.479167       0.458333       0.000000
      0.458333       0.458333       0.000000
      0.479167       0.437500       0.000000
      0.500000       0.437500       0.000000
      0.500000       0.458333       0.000000
      0.479167       0.458333       0.000000
      0.416667       0.458333       0.000000
      0.437500       0.458333       0.000000
      0.437500       0.479167       0.000000
      0.416667       0.479167       0.000000
      0.437500       0.458333       0.000000
      0.458333       0.458333       0.000000
      0.458333       0.479167       0.000000
      0.437500       0.479167       0.000000
      0.416667       0.479167       0.000000
      0.437500       0.479167       0.000000
      0.437500       0.500000       0.000000
      0.416667       0.500000       0.000000
[...]
POINT_DATA  1152
VECTORS U float 
      0.000000       0.000000       0.000000
      0.000000       0.000000       0.000000
      0.000073      -0.000015       0.000000
      0.000054      -0.000017       0.000000
      0.000000       0.000000       0.000000
      0.000000       0.000000       0.000000
      0.000093       0.000014       0.000000
      0.000073      -0.000015       0.000000
      0.000054      -0.000017       0.000000
      0.000073      -0.000015       0.000000
      0.000080      -0.000042       0.000000
      0.000056      -0.000085       0.000000
      0.000073      -0.000015       0.000000
      0.000093       0.000014       0.000000
      0.000103       0.000018       0.000000
      0.000080      -0.000042       0.000000
      0.000000       0.000000       0.000000
      0.000000       0.000000       0.000000
      0.000111       0.000055       0.000000
      0.000093       0.000014       0.000000
      0.000000       0.000000       0.000000
      0.000000       0.000000       0.000000
      0.000120       0.000107       0.000000
      0.000111       0.000055       0.000000
      0.000093       0.000014       0.000000
      0.000111       0.000055       0.000000
      0.000126       0.000099       0.000000
      0.000103       0.000018       0.000000
      0.000111       0.000055       0.000000
      0.000120       0.000107       0.000000
      0.000140       0.000211       0.000000
      0.000126       0.000099       0.000000
      0.000000       0.000000       0.000000
      0.000000       0.000000       0.000000
      0.000112       0.000171       0.000000
      0.000120       0.000107       0.000000
      0.000000       0.000000       0.000000
      0.000000       0.000000       0.000000
      0.000078       0.000238       0.000000
      0.000112       0.000171       0.000000
      0.000120       0.000107       0.000000
      0.000112       0.000171       0.000000
      0.000126       0.000355       0.000000
      0.000140       0.000211       0.000000
      0.000112       0.000171       0.000000
      0.000078       0.000238       0.000000
      0.000064       0.000511       0.000000
      0.000126       0.000355       0.000000
      0.000056      -0.000085       0.000000
      0.000080      -0.000042       0.000000
      0.000008      -0.000072       0.000000
     -0.000015      -0.000162       0.000000
      0.000080      -0.000042       0.000000
      0.000103       0.000018       0.000000
      0.000029       0.000015       0.000000
      0.000008      -0.000072       0.000000
     -0.000015      -0.000162       0.000000
      0.000008      -0.000072       0.000000
     -0.000132      -0.000098       0.000000
     -0.000146      -0.000221       0.000000
      0.000008      -0.000072       0.000000
      0.000029       0.000015       0.000000
     -0.000120       0.000008       0.000000
     -0.000132      -0.000098       0.000000
      0.000103       0.000018       0.000000
      0.000126       0.000099       0.000000
      0.000053       0.000130       0.000000
      0.000029       0.000015       0.000000
      0.000126       0.000099       0.000000
      0.000140       0.000211       0.000000
      0.000073       0.000302       0.000000
      0.000053       0.000130       0.000000
      0.000029       0.000015       0.000000
      0.000053       0.000130       0.000000
     -0.000104       0.000145       0.000000
     -0.000120       0.000008       0.000000
      0.000053       0.000130       0.000000
      0.000073       0.000302       0.000000
     -0.000084       0.000365       0.000000
     -0.000104       0.000145       0.000000
      0.000140       0.000211       0.000000
      0.000126       0.000355       0.000000
      0.000062       0.000543       0.000000
      0.000073       0.000302       0.000000
      0.000126       0.000355       0.000000
      0.000064       0.000511       0.000000
     -0.000019       0.000820       0.000000
      0.000062       0.000543       0.000000
      0.000073       0.000302       0.000000
      0.000062       0.000543       0.000000
     -0.000080       0.000716       0.000000
     -0.000084       0.000365       0.000000
      0.000062       0.000543       0.000000
     -0.000019       0.000820       0.000000
     -0.000166       0.001170       0.000000
     -0.000080       0.000716       0.000000
     -0.000146      -0.000221       0.000000
     -0.000132      -0.000098       0.000000
     -0.000304      -0.000112       0.000000
     -0.000306      -0.000248       0.000000
     -0.000132      -0.000098       0.000000
     -0.000120       0.000008       0.000000
     -0.000313       0.000005       0.000000
     -0.000304      -0.000112       0.000000
     -0.000306      -0.000248       0.000000
     -0.000304      -0.000112       0.000000
     -0.000459      -0.000111       0.000000
     -0.000457      -0.000250       0.000000
     -0.000304      -0.000112       0.000000
     -0.000313       0.000005       0.000000
     -0.000488       0.000019       0.000000
     -0.000459      -0.000111       0.000000
     -0.000120       0.000008       0.000000
     -0.000104       0.000145       0.000000
     -0.000331       0.000152       0.000000
     -0.000313       0.000005       0.000000
     -0.000104       0.000145       0.000000
     -0.000084       0.000365       0.000000
     -0.000349       0.000392       0.000000
     -0.000331       0.000152       0.000000
     -0.000313       0.000005       0.000000
     -0.000331       0.000152       0.000000
     -0.000563       0.000178       0.000000
     -0.000488       0.000019       0.000000
     -0.000331       0.000152       0.000000
     -0.000349       0.000392       0.000000
     -0.000695       0.000428       0.000000
     -0.000563       0.000178       0.000000
     -0.000084       0.000365       0.000000
     -0.000076       0.000523       0.000000
     -0.000194       0.000558       0.000000
     -0.000202       0.000382       0.000000
     -0.000076       0.000523       0.000000
     -0.000080       0.000716       0.000000
     -0.000192       0.000786       0.000000
     -0.000194       0.000558       0.000000
     -0.000202       0.000382       0.000000
     -0.000194       0.000558       0.000000
     -0.000352       0.000577       0.000000
     -0.000349       0.000392       0.000000
     -0.000194       0.000558       0.000000
     -0.000192       0.000786       0.000000
     -0.000348       0.000833       0.000000
     -0.000352       0.000577       0.000000
     -0.000080       0.000716       0.000000
     -0.000107       0.000939       0.000000
     -0.000210       0.001066       0.000000
     -0.000192       0.000786       0.000000
     -0.000107       0.000939       0.000000
     -0.000166       0.001170       0.000000
     -0.000271       0.001368       0.000000
     -0.000210       0.001066       0.000000
     -0.000192       0.000786       0.000000
     -0.000210       0.001066       0.000000
     -0.000352       0.001180       0.000000
     -0.000348       0.000833       0.000000
     -0.000210       0.001066       0.000000
     -0.000271       0.001368       0.000000
     -0.000409       0.001592       0.000000
     -0.000352       0.001180       0.000000
     -0.000349       0.000392       0.000000
     -0.000352       0.000577       0.000000
     -0.000555       0.000590       0.000000
     -0.000521       0.000403       0.000000
     -0.000352       0.000577       0.000000
     -0.000348       0.000833       0.000000
     -0.000579       0.000855       0.000000
     -0.000555       0.000590       0.000000
     -0.000521       0.000403       0.000000
     -0.000555       0.000590       0.000000
     -0.000783       0.000617       0.000000
     -0.000695       0.000428       0.000000
     -0.000555       0.000590       0.000000
     -0.000579       0.000855       0.000000
     -0.000888       0.000882       0.000000
     -0.000783       0.000617       0.000000
     -0.000348       0.000833       0.000000
     -0.000347       0.000995       0.000000
     -0.000450       0.001019       0.000000
     -0.000453       0.000846       0.000000
     -0.000347       0.000995       0.000000
     -0.000352       0.001180       0.000000
     -0.000450       0.001225       0.000000
     -0.000450       0.001019       0.000000
     -0.000453       0.000846       0.000000
     -0.000450       0.001019       0.000000
     -0.000583       0.001032       0.000000
     -0.000579       0.000855       0.000000
     -0.000450       0.001019       0.000000
     -0.000450       0.001225       0.000000
     -0.000580       0.001256       0.000000
     -0.000583       0.001032       0.000000
     -0.000352       0.001180       0.000000
     -0.000371       0.001384       0.000000
     -0.000461       0.001466       0.000000
     -0.000450       0.001225       0.000000
     -0.000371       0.001384       0.000000
     -0.000409       0.001592       0.000000
     -0.000499       0.001721       0.000000
     -0.000461       0.001466       0.000000
     -0.000450       0.001225       0.000000
     -0.000461       0.001466       0.000000
     -0.000579       0.001542       0.000000
     -0.000580       0.001256       0.000000
     -0.000461       0.001466       0.000000
     -0.000499       0.001721       0.000000
     -0.000613       0.001875       0.000000
     -0.000579       0.001542       0.000000
     -0.000579       0.000855       0.000000
     -0.000583       0.001032       0.000000
     -0.000753       0.001041       0.000000
     -0.000728       0.000864       0.000000
     -0.000583       0.001032       0.000000
     -0.000580       0.001256       0.000000
     -0.000766       0.001269       0.000000
     -0.000753       0.001041       0.000000
     -0.000728       0.000864       0.000000
     -0.000753       0.001041       0.000000
     -0.000949       0.001059       0.000000
     -0.000888       0.000882       0.000000
     -0.000753       0.001041       0.000000
     -0.000766       0.001269       0.000000
     -0.001018       0.001286       0.000000
     -0.000949       0.001059       0.000000
     -0.000580       0.001256       0.000000
     -0.000578       0.001391       0.000000
     -0.000661       0.001407       0.000000
     -0.000665       0.001265       0.000000
     -0.000578       0.001391       0.000000
     -0.000579       0.001542       0.000000
     -0.000657       0.001574       0.000000
     -0.000661       0.001407       0.000000
     -0.000665       0.001265       0.000000
     -0.000661       0.001407       0.000000
     -0.000766       0.001415       0.000000
     -0.000766       0.001269       0.000000
     -0.000661       0.001407       0.000000
     -0.000657       0.001574       0.000000
     -0.000759       0.001595       0.000000
     -0.000766       0.001415       0.000000
     -0.000579       0.001542       0.000000
     -0.000589       0.001707       0.000000
     -0.000661       0.001766       0.000000
     -0.000657       0.001574       0.000000
     -0.000589       0.001707       0.000000
     -0.000613       0.001875       0.000000
     -0.000685       0.001969       0.000000
     -0.000661       0.001766       0.000000
     -0.000657       0.001574       0.000000
     -0.000661       0.001766       0.000000
     -0.000752       0.001823       0.000000
     -0.000759       0.001595       0.000000
     -0.000661       0.001766       0.000000
     -0.000685       0.001969       0.000000
     -0.000773       0.002088       0.000000
     -0.000752       0.001823       0.000000
     -0.000766       0.001269       0.000000
     -0.000766       0.001415       0.000000
     -0.000900       0.001419       0.000000
     -0.000887       0.001274       0.000000
     -0.000766       0.001415       0.000000
     -0.000759       0.001595       0.000000
     -0.000905       0.001602       0.000000
     -0.000900       0.001419       0.000000
     -0.000887       0.001274       0.000000
     -0.000900       0.001419       0.000000
     -0.001058       0.001430       0.000000
     -0.001018       0.001286       0.000000
     -0.000900       0.001419       0.000000
     -0.000905       0.001602       0.000000
     -0.001105       0.001614       0.000000
     -0.001058       0.001430       0.000000
     -0.000759       0.001595       0.000000
     -0.000752       0.001823       0.000000
     -0.000890       0.001864       0.000000
     -0.000905       0.001602       0.000000
     -0.000752       0.001823       0.000000
     -0.000773       0.002088       0.000000
     -0.000900       0.002265       0.000000
     -0.000890       0.001864       0.000000
     -0.000905       0.001602       0.000000
     -0.000890       0.001864       0.000000
     -0.001169       0.001887       0.000000
     -0.001105       0.001614       0.000000
     -0.000890       0.001864       0.000000
     -0.000900       0.002265       0.000000
     -0.001253       0.002766       0.000000
     -0.001169       0.001887       0.000000
      0.000000       0.000000       0.000000
      0.000000       0.000000       0.000000
      0.000017       0.000297       0.000000
      0.000078       0.000238       0.000000
      0.000000       0.000000       0.000000
      0.000000       0.000000       0.000000
     -0.000062       0.000343       0.000000
      0.000017       0.000297       0.000000
      0.000078       0.000238       0.000000
      0.000017       0.000297       0.000000
     -0.000047       0.000649       0.000000
      0.000064       0.000511       0.000000
      0.000017       0.000297       0.000000
     -0.000062       0.000343       0.000000
     -0.000193       0.000752       0.000000
     -0.000047       0.000649       0.000000
      0.000000       0.000000       0.000000
      0.000000       0.000000       0.000000
     -0.000153       0.000379       0.000000
     -0.000062       0.000343       0.000000
      0.000000       0.000000       0.000000
      0.000000       0.000000       0.000000
     -0.000258       0.000419       0.000000
     -0.000153       0.000379       0.000000
     -0.000062       0.000343       0.000000
     -0.000153       0.000379       0.000000
     -0.000357       0.000826       0.000000
     -0.000193       0.000752       0.000000
     -0.000153       0.000379       0.000000
     -0.000258       0.000419       0.000000
     -0.000537       0.000904       0.000000
     -0.000357       0.000826       0.000000
      0.000000       0.000000       0.000000
      0.000000       0.000000       0.000000
     -0.000402       0.000503       0.000000
     -0.000258       0.000419       0.000000
      0.000000       0.000000       0.000000
      0.000000       0.000000       0.000000
     -0.000623       0.000760       0.000000
     -0.000402       0.000503       0.000000
     -0.000258       0.000419       0.000000
     -0.000402       0.000503       0.000000
     -0.000738       0.001035       0.000000
     -0.000537       0.000904       0.000000
     -0.000402       0.000503       0.000000
     -0.000623       0.000760       0.000000
     -0.000949       0.001264       0.000000
     -0.000738       0.001035       0.000000
      0.000064       0.000511       0.000000
     -0.000047       0.000649       0.000000
     -0.000176       0.001060       0.000000
     -0.000019       0.000820       0.000000
     -0.000047       0.000649       0.000000
     -0.000193       0.000752       0.000000
     -0.000377       0.001221       0.000000
     -0.000176       0.001060       0.000000
     -0.000019       0.000820       0.000000
     -0.000176       0.001060       0.000000
     -0.000374       0.001547       0.000000
     -0.000166       0.001170       0.000000
     -0.000176       0.001060       0.000000
     -0.000377       0.001221       0.000000
     -0.000608       0.001744       0.000000
     -0.000374       0.001547       0.000000
     -0.000193       0.000752       0.000000
     -0.000357       0.000826       0.000000
     -0.000586       0.001322       0.000000
     -0.000377       0.001221       0.000000
     -0.000357       0.000826       0.000000
     -0.000537       0.000904       0.000000
     -0.000794       0.001410       0.000000
     -0.000586       0.001322       0.000000
     -0.000377       0.001221       0.000000
     -0.000586       0.001322       0.000000
     -0.000819       0.001835       0.000000
     -0.000608       0.001744       0.000000
     -0.000586       0.001322       0.000000
     -0.000794       0.001410       0.000000
     -0.001017       0.001904       0.000000
     -0.000819       0.001835       0.000000
     -0.000537       0.000904       0.000000
     -0.000738       0.001035       0.000000
     -0.001001       0.001531       0.000000
     -0.000794       0.001410       0.000000
     -0.000738       0.001035       0.000000
     -0.000949       0.001264       0.000000
     -0.001197       0.001716       0.000000
     -0.001001       0.001531       0.000000
     -0.000794       0.001410       0.000000
     -0.001001       0.001531       0.000000
     -0.001211       0.001995       0.000000
     -0.001017       0.001904       0.000000
     -0.001001       0.001531       0.000000
     -0.001197       0.001716       0.000000
     -0.001391       0.002131       0.000000
     -0.001211       0.001995       0.000000
     -0.000608       0.001744       0.000000
     -0.000819       0.001835       0.000000
     -0.001015       0.002330       0.000000
     -0.000860       0.002283       0.000000
     -0.000819       0.001835       0.000000
     -0.001017       0.001904       0.000000
     -0.001181       0.002373       0.000000
     -0.001015       0.002330       0.000000
     -0.000860       0.002283       0.000000
     -0.001015       0.002330       0.000000
     -0.001106       0.002791       0.000000
     -0.001000       0.002772       0.000000
     -0.001015       0.002330       0.000000
     -0.001181       0.002373       0.000000
     -0.001251       0.002819       0.000000
     -0.001106       0.002791       0.000000
     -0.001017       0.001904       0.000000
     -0.001211       0.001995       0.000000
     -0.001356       0.002431       0.000000
     -0.001181       0.002373       0.000000
     -0.001211       0.001995       0.000000
     -0.001391       0.002131       0.000000
     -0.001525       0.002513       0.000000
     -0.001356       0.002431       0.000000
     -0.001181       0.002373       0.000000
     -0.001356       0.002431       0.000000
     -0.001418       0.002851       0.000000
     -0.001251       0.002819       0.000000
     -0.001356       0.002431       0.000000
     -0.001525       0.002513       0.000000
     -0.001585       0.002878       0.000000
     -0.001418       0.002851       0.000000
     -0.000166       0.001170       0.000000
     -0.000259       0.001380       0.000000
     -0.000379       0.001636       0.000000
     -0.000271       0.001368       0.000000
     -0.000259       0.001380       0.000000
     -0.000374       0.001547       0.000000
     -0.000507       0.001829       0.000000
     -0.000379       0.001636       0.000000
     -0.000271       0.001368       0.000000
     -0.000379       0.001636       0.000000
     -0.000539       0.001941       0.000000
     -0.000409       0.001592       0.000000
     -0.000379       0.001636       0.000000
     -0.000507       0.001829       0.000000
     -0.000673       0.002142       0.000000
     -0.000539       0.001941       0.000000
     -0.000374       0.001547       0.000000
     -0.000493       0.001665       0.000000
     -0.000629       0.001947       0.000000
     -0.000507       0.001829       0.000000
     -0.000493       0.001665       0.000000
     -0.000608       0.001744       0.000000
     -0.000736       0.002015       0.000000
     -0.000629       0.001947       0.000000
     -0.000507       0.001829       0.000000
     -0.000629       0.001947       0.000000
     -0.000776       0.002236       0.000000