# vtk DataFile Version 2.0
time_10.vtk
ASCII
DATASET UNSTRUCTURED_GRID
POINTS  1152 float
      0.000000       0.000000       0.000000
      0.083333       0.000000       0.000000
      0.083333       0.083333       0.000000
      0.000000       0.083333       0.000000
      0.083333       0.000000       0.000000
      0.166667       0.000000       0.000000
      0.166667       0.083333       0.000000
      0.083333       0.083333       0.000000
      0.000000       0.083333       0.000000
      0.083333       0.083333       0.000000
      0.083333       0.166667       0.000000
      0.000000       0.166667       0.000000
      0.083333       0.083333       0.000000
      0.166667       0.083333       0.000000
      0.166667       0.166667       0.000000
      0.083333       0.166667       0.000000
      0.166667       0.000000       0.000000
      0.250000       0.000000       0.000000
      0.250000       0.083333       0.000000
      0.166667       0.083333       0.000000
      0.250000       0.000000       0.000000
      0.333333       0.000000       0.000000
      0.333333       0.083333       0.000000
      0.250000       0.083333       0.000000
      0.166667       0.083333       0.000000
      0.250000       0.083333       0.000000
      0.250000       0.166667       0.000000
      0.166667       0.166667       0.000000
      0.250000       0.083333       0.000000
      0.333333       0.083333       0.000000
      0.333333       0.166667       0.000000
      0.250000       0.166667       0.000000
      0.333333       0.000000       0.000000
      0.416667      -0.000000       0.000000
      0.416667       0.083333       0.000000
      0.333333       0.083333       0.000000
      0.416667      -0.000000       0.000000
      0.500000       0.000000       0.000000
      0.500000       0.083333       0.000000
      0.416667       0.083333       0.000000
      0.333333       0.083333       0.000000
      0.416667       0.083333       0.000000
      0.416667       0.166667       0.000000
      0.333333       0.166667       0.000000
      0.416667       0.083333       0.000000
      0.500000       0.083333       0.000000
      0.500000       0.166667       0.000000
      0.416667       0.166667       0.000000
      0.000000       0.166667       0.000000
      0.083333       0.166667       0.000000
      0.083333       0.250000       0.000000
      0.000000       0.250000       0.000000
      0.083333       0.166667       0.000000
      0.166667       0.166667       0.000000
      0.166667       0.250000       0.000000
      0.083333       0.250000       0.000000
      0.000000       0.250000       0.000000
      0.083333       0.250000       0.000000
      0.083333       0.333333       0.000000
      0.000000       0.333333       0.000000
      0.083333       0.250000       0.000000
      0.166667       0.250000       0.000000
      0.166667       0.333333       0.000000
      0.083333       0.333333       0.000000
      0.166667       0.166667       0.000000
      0.250000       0.166667       0.000000
      0.250000       0.250000       0.000000
      0.166667       0.250000       0.000000
      0.250000       0.166667       0.000000
      0.333333       0.166667       0.000000
      0.333333       0.250000       0.000000
      0.250000       0.250000       0.000000
      0.166667       0.250000       0.000000
      0.250000       0.250000       0.000000
      0.250000       0.333333       0.000000
      0.166667       0.333333       0.000000
      0.250000       0.250000       0.000000
      0.333333       0.250000       0.000000
      0.333333       0.333333       0.000000
      0.250000       0.333333       0.000000
      0.333333       0.166667       0.000000
      0.416667       0.166667       0.000000
      0.416667       0.250000       0.000000
      0.333333       0.250000       0.000000
      0.416667       0.166667       0.000000
      0.500000       0.166667       0.000000
      0.500000       0.250000       0.000000
      0.416667       0.250000       0.000000
      0.333333       0.250000       0.000000
      0.416667       0.250000       0.000000
      0.416667       0.333333       0.000000
      0.333333       0.333333       0.000000
      0.416667       0.250000       0.000000
      0.500000       0.250000       0.000000
      0.500000       0.333333       0.000000
      0.416667       0.333333       0.000000
      0.000000       0.333333       0.000000
      0.083333       0.333333       0.000000
      0.083333       0.416667       0.000000
     -0.000000       0.416667       0.000000
      0.083333       0.333333       0.000000
      0.166667       0.333333       0.000000
      0.166667       0.416667       0.000000
      0.083333       0.416667       0.000000
     -0.000000       0.416667       0.000000
      0.083333       0.416667       0.000000
      0.083333       0.500000       0.000000
      0.000000       0.500000       0.000000
      0.083333       0.416667       0.000000
      0.166667       0.416667       0.000000
      0.166667       0.500000       0.000000
      0.083333       0.500000       0.000000
      0.166667       0.333333       0.000000
      0.250000       0.333333       0.000000
      0.250000       0.416667       0.000000
      0.166667       0.416667       0.000000
      0.250000       0.333333       0.000000
      0.333333       0.333333       0.000000
      0.333333       0.416667       0.000000
      0.250000       0.416667       0.000000
      0.166667       0.416667       0.000000
      0.250000       0.416667       0.000000
      0.250000       0.500000       0.000000
      0.166667       0.500000       0.000000
      0.250000       0.416667       0.000000
      0.333333       0.416667       0.000000
      0.333333       0.500000       0.000000
      0.250000       0.500000       0.000000
      0.333333       0.333333       0.000000
      0.375000       0.333333       0.000000
      0.375000       0.375000       0.000000
      0.333333       0.375000       0.000000
      0.375000       0.333333       0.000000
      0.416667       0.333333       0.000000
      0.416667       0.375000       0.000000
      0.375000       0.375000       0.000000
      0.333333       0.375000       0.000000
      0.375000       0.375000       0.000000
      0.375000       0.416667       0.000000
      0.333333       0.416667       0.000000
      0.375000       0.375000       0.000000
      0.416667       0.375000       0.000000
      0.416667       0.416667       0.000000
      0.375000       0.416667       0.000000
      0.416667       0.333333       0.000000
      0.458333       0.333333       0.000000
      0.458333       0.375000       0.000000
      0.416667       0.375000       0.000000
      0.458333       0.333333       0.000000
      0.500000       0.333333       0.000000
      0.500000       0.375000       0.000000
      0.458333       0.375000       0.000000
      0.416667       0.375000       0.000000
      0.458333       0.375000       0.000000
      0.458333       0.416667       0.000000
      0.416667       0.416667       0.000000
      0.458333       0.375000       0.000000
      0.500000       0.375000       0.000000
      0.500000       0.416667       0.000000
      0.458333       0.416667       0.000000
      0.333333       0.416667       0.000000
      0.375000       0.416667       0.000000
      0.375000       0.458333       0.000000
      0.333333       0.458333       0.000000
      0.375000       0.416667       0.000000
      0.416667       0.416667       0.000000
      0.416667       0.458333       0.000000
      0.375000       0.458333       0.000000
      0.333333       0.458333       0.000000
      0.375000       0.458333       0.000000
      0.375000       0.500000       0.000000
      0.333333       0.500000       0.000000
      0.375000       0.458333       0.000000
      0.416667       0.458333       0.000000
      0.416667       0.500000       0.000000
      0.375000       0.500000       0.000000
      0.416667       0.416667       0.000000
      0.437500       0.416667       0.000000
      0.437500       0.437500       0.000000
      0.416667       0.437500       0.000000
      0.437500       0.416667       0.000000
      0.458333       0.416667       0.000000
      0.458333       0.437500       0.000000
      0.437500       0.437500       0.000000
      0.416667       0.437500       0.000000
      0.437500       0.437500       0.000000
      0.437500       0.458333       0.000000
      0.416667       0.458333       0.000000
      0.437500       0.437500       0.000000
      0.458333       0.437500       0.000000
      0.458333       0.458333       0.000000
      0.437500       0.458333       0.000000
      0.458333       0.416667       0.000000
      0.479167       0.416667       0.000000
      0.479167       0.437500       0.000000
      0.458333       0.437500       0.000000
      0.479167       0.416667       0.000000
      0.500000       0.416667       0.000000
      0.500000       0.437500       0.000000
      0.479167       0.437500       0.000000
      0.458333       0.437500       0.000000
      0.479167       0.437500       0.000000
      0.479167       0.458333       0.000000
      0.458333       0.458333       0.000000
      0.479167       0.437500       0.000000
      0.500000       0.437500       0.000000
      0.500000       0.458333       0.000000
      0.479167       0.458333       0.000000
      0.416667       0.458333       0.000000
      0.437500       0.458333       0.000000
      0.437500       0.479167       0.000000
      0.416667       0.479167       0.000000
      0.437500       0.458333       0.000000
      0.458333       0.458333       0.000000
      0.458333       0.479167       0.000000
      0.437500       0.479167       0.000000
      0.416667       0.479167       0.000000
      0.437500       0.479167       0.000000
      0.437500       0.500000       0.000000
      0.416667       0.500000       0.000000
[...]
POINT_DATA  1152
VECTORS U float 
      0.000000       0.000000       0.000000
      0.000000       0.000000       0.000000
      0.000072      -0.000014       0.000000
      0.000054      -0.000014       0.000000
      0.000000       0.000000       0.000000
      0.000000       0.000000       0.000000
      0.000091       0.000015       0.000000
      0.000072      -0.000014       0.000000
      0.000054      -0.000014       0.000000
      0.000072      -0.000014       0.000000
      0.000081      -0.000039       0.000000
      0.000057      -0.000080       0.000000
      0.000072      -0.000014       0.000000
      0.000091       0.000015       0.000000
      0.000103       0.000019       0.000000
      0.000081      -0.000039       0.000000
      0.000000       0.000000       0.000000
      0.000000       0.000000       0.000000
      0.000108       0.000054       0.000000
      0.000091       0.000015       0.000000
      0.000000       0.000000       0.000000
      0.000000       0.000000       0.000000
      0.000118       0.000105       0.000000
      0.000108       0.000054       0.000000
      0.000091       0.000015       0.000000
      0.000108       0.000054       0.000000
      0.000125       0.000098       0.000000
      0.000103       0.000019       0.000000
      0.000108       0.000054       0.000000
      0.000118       0.000105       0.000000
      0.000138       0.000207       0.000000
      0.000125       0.000098       0.000000
      0.000000       0.000000       0.000000
      0.000000       0.000000       0.000000
      0.000109       0.000167       0.000000
      0.000118       0.000105       0.000000
      0.000000       0.000000       0.000000
      0.000000       0.000000       0.000000
      0.000075       0.000231       0.000000
      0.000109       0.000167       0.000000
      0.000118       0.000105       0.000000
      0.000109       0.000167       0.000000
      0.000123       0.000346       0.000000
      0.000138       0.000207       0.000000
      0.000109       0.000167       0.000000
      0.000075       0.000231       0.000000
      0.000063       0.000497       0.000000
      0.000123       0.000346       0.000000
      0.000057      -0.000080       0.000000
      0.000081      -0.000039       0.000000
      0.000012      -0.000068       0.000000
     -0.000010      -0.000155       0.000000
      0.000081      -0.000039       0.000000
      0.000103       0.000019       0.000000
      0.000032       0.000017       0.000000
      0.000012      -0.000068       0.000000
     -0.000010      -0.000155       0.000000
      0.000012      -0.000068       0.000000
     -0.000123      -0.000093       0.000000
     -0.000137      -0.000212       0.000000
      0.000012      -0.000068       0.000000
      0.000032       0.000017       0.000000
     -0.000111       0.000010       0.000000
     -0.000123      -0.000093       0.000000
      0.000103       0.000019       0.000000
      0.000125       0.000098       0.000000
      0.000056       0.000129       0.000000
      0.000032       0.000017       0.000000
      0.000125       0.000098       0.000000
      0.000138       0.000207       0.000000
      0.000075       0.000296       0.000000
      0.000056       0.000129       0.000000
      0.000032       0.000017       0.000000
      0.000056       0.000129       0.000000
     -0.000096       0.000144       0.000000
     -0.000111       0.000010       0.000000
      0.000056       0.000129       0.000000
      0.000075       0.000296       0.000000
     -0.000076       0.000358       0.000000
     -0.000096       0.000144       0.000000
      0.000138       0.000207       0.000000
      0.000123       0.000346       0.000000
      0.000063       0.000530       0.000000
      0.000075       0.000296       0.000000
      0.000123       0.000346       0.000000
      0.000063       0.000497       0.000000
     -0.000017       0.000797       0.000000
      0.000063       0.000530       0.000000
      0.000075       0.000296       0.000000
      0.000063       0.000530       0.000000
     -0.000073       0.000700       0.000000
     -0.000076       0.000358       0.000000
      0.000063       0.000530       0.000000
     -0.000017       0.000797       0.000000
     -0.000158       0.001139       0.000000
     -0.000073       0.000700       0.000000
     -0.000137      -0.000212       0.000000
     -0.000123      -0.000093       0.000000
     -0.000289      -0.000106       0.000000
     -0.000291      -0.000238       0.000000
     -0.000123      -0.000093       0.000000
     -0.000111       0.000010       0.000000
     -0.000298       0.000008       0.000000
     -0.000289      -0.000106       0.000000
     -0.000291      -0.000238       0.000000
     -0.000289      -0.000106       0.000000
     -0.000440      -0.000105       0.000000
     -0.000438      -0.000240       0.000000
     -0.000289      -0.000106       0.000000
     -0.000298       0.000008       0.000000
     -0.000468       0.000021       0.000000
     -0.000440      -0.000105       0.000000
     -0.000111       0.000010       0.000000
     -0.000096       0.000144       0.000000
     -0.000316       0.000150       0.000000
     -0.000298       0.000008       0.000000
     -0.000096       0.000144       0.000000
     -0.000076       0.000358       0.000000
     -0.000332       0.000385       0.000000
     -0.000316       0.000150       0.000000
     -0.000298       0.000008       0.000000
     -0.000316       0.000150       0.000000
     -0.000541       0.000175       0.000000
     -0.000468       0.000021       0.000000
     -0.000316       0.000150       0.000000
     -0.000332       0.000385       0.000000
     -0.000668       0.000419       0.000000
     -0.000541       0.000175       0.000000
     -0.000076       0.000358       0.000000
     -0.000069       0.000512       0.000000
     -0.000182       0.000547       0.000000
     -0.000190       0.000375       0.000000
     -0.000069       0.000512       0.000000
     -0.000073       0.000700       0.000000
     -0.000179       0.000769       0.000000
     -0.000182       0.000547       0.000000
     -0.000190       0.000375       0.000000
     -0.000182       0.000547       0.000000
     -0.000334       0.000566       0.000000
     -0.000332       0.000385       0.000000
     -0.000182       0.000547       0.000000
     -0.000179       0.000769       0.000000
     -0.000330       0.000816       0.000000
     -0.000334       0.000566       0.000000
     -0.000073       0.000700       0.000000
     -0.000099       0.000917       0.000000
     -0.000198       0.001041       0.000000
     -0.000179       0.000769       0.000000
     -0.000099       0.000917       0.000000
     -0.000158       0.001139       0.000000
     -0.000258       0.001332       0.000000
     -0.000198       0.001041       0.000000
     -0.000179       0.000769       0.000000
     -0.000198       0.001041       0.000000
     -0.000334       0.001155       0.000000
     -0.000330       0.000816       0.000000
     -0.000198       0.001041       0.000000
     -0.000258       0.001332       0.000000
     -0.000391       0.001553       0.000000
     -0.000334       0.001155       0.000000
     -0.000332       0.000385       0.000000
     -0.000334       0.000566       0.000000
     -0.000531       0.000578       0.000000
     -0.000499       0.000395       0.000000
     -0.000334       0.000566       0.000000
     -0.000330       0.000816       0.000000
     -0.000554       0.000837       0.000000
     -0.000531       0.000578       0.000000
     -0.000499       0.000395       0.000000
     -0.000531       0.000578       0.000000
     -0.000754       0.000604       0.000000
     -0.000668       0.000419       0.000000
     -0.000531       0.000578       0.000000
     -0.000554       0.000837       0.000000
     -0.000856       0.000863       0.000000
     -0.000754       0.000604       0.000000
     -0.000330       0.000816       0.000000
     -0.000329       0.000974       0.000000
     -0.000428       0.000998       0.000000
     -0.000431       0.000829       0.000000
     -0.000329       0.000974       0.000000
     -0.000334       0.001155       0.000000
     -0.000427       0.001200       0.000000
     -0.000428       0.000998       0.000000
     -0.000431       0.000829       0.000000
     -0.000428       0.000998       0.000000
     -0.000557       0.001011       0.000000
     -0.000554       0.000837       0.000000
     -0.000428       0.000998       0.000000
     -0.000427       0.001200       0.000000
     -0.000553       0.001231       0.000000
     -0.000557       0.001011       0.000000
     -0.000334       0.001155       0.000000
     -0.000352       0.001353       0.000000
     -0.000438       0.001435       0.000000
     -0.000427       0.001200       0.000000
     -0.000352       0.001353       0.000000
     -0.000391       0.001553       0.000000
     -0.000477       0.001681       0.000000
     -0.000438       0.001435       0.000000
     -0.000427       0.001200       0.000000
     -0.000438       0.001435       0.000000
     -0.000552       0.001512       0.000000
     -0.000553       0.001231       0.000000
     -0.000438       0.001435       0.000000
     -0.000477       0.001681       0.000000
     -0.000586       0.001833       0.000000
     -0.000552       0.001512       0.000000
     -0.000554       0.000837       0.000000
     -0.000557       0.001011       0.000000
     -0.000722       0.001019       0.000000
     -0.000700       0.000846       0.000000
     -0.000557       0.001011       0.000000
     -0.000553       0.001231       0.000000
     -0.000735       0.001244       0.000000
     -0.000722       0.001019       0.000000
     -0.000700       0.000846       0.000000
     -0.000722       0.001019       0.000000
     -0.000915       0.001037       0.000000
     -0.000856       0.000863       0.000000
     -0.000722       0.001019       0.000000
     -0.000735       0.001244       0.000000
     -0.000981       0.001260       0.000000
     -0.000915       0.001037       0.000000
     -0.000553       0.001231       0.000000
     -0.000550       0.001364       0.000000
     -0.000631       0.001379       0.000000
     -0.000635       0.001239       0.000000
     -0.000550       0.001364       0.000000
     -0.000552       0.001512       0.000000
     -0.000627       0.001543       0.000000
     -0.000631       0.001379       0.000000
     -0.000635       0.001239       0.000000
     -0.000631       0.001379       0.000000
     -0.000733       0.001387       0.000000
     -0.000735       0.001244       0.000000
     -0.000631       0.001379       0.000000
     -0.000627       0.001543       0.000000
     -0.000726       0.001564       0.000000
     -0.000733       0.001387       0.000000
     -0.000552       0.001512       0.000000
     -0.000562       0.001672       0.000000
     -0.000631       0.001731       0.000000
     -0.000627       0.001543       0.000000
     -0.000562       0.001672       0.000000
     -0.000586       0.001833       0.000000
     -0.000655       0.001926       0.000000
     -0.000631       0.001731       0.000000
     -0.000627       0.001543       0.000000
     -0.000631       0.001731       0.000000
     -0.000719       0.001788       0.000000
     -0.000726       0.001564       0.000000
     -0.000631       0.001731       0.000000
     -0.000655       0.001926       0.000000
     -0.000740       0.002042       0.000000
     -0.000719       0.001788       0.000000
     -0.000735       0.001244       0.000000
     -0.000733       0.001387       0.000000
     -0.000865       0.001391       0.000000
     -0.000853       0.001249       0.000000
     -0.000733       0.001387       0.000000
     -0.000726       0.001564       0.000000
     -0.000868       0.001571       0.000000
     -0.000865       0.001391       0.000000
     -0.000853       0.001249       0.000000
     -0.000865       0.001391       0.000000
     -0.001020       0.001402       0.000000
     -0.000981       0.001260       0.000000
     -0.000865       0.001391       0.000000
     -0.000868       0.001571       0.000000
     -0.001065       0.001582       0.000000
     -0.001020       0.001402       0.000000
     -0.000726       0.001564       0.000000
     -0.000719       0.001788       0.000000
     -0.000853       0.001828       0.000000
     -0.000868       0.001571       0.000000
     -0.000719       0.001788       0.000000
     -0.000740       0.002042       0.000000
     -0.000862       0.002209       0.000000
     -0.000853       0.001828       0.000000
     -0.000868       0.001571       0.000000
     -0.000853       0.001828       0.000000
     -0.001123       0.001848       0.000000
     -0.001065       0.001582       0.000000
     -0.000853       0.001828       0.000000
     -0.000862       0.002209       0.000000
     -0.001186       0.002649       0.000000
     -0.001123       0.001848       0.000000
      0.000000       0.000000       0.000000
      0.000000       0.000000       0.000000
      0.000016       0.000288       0.000000
      0.000075       0.000231       0.000000
      0.000000       0.000000       0.000000
      0.000000       0.000000       0.000000
     -0.000061       0.000331       0.000000
      0.000016       0.000288       0.000000
      0.000075       0.000231       0.000000
      0.000016       0.000288       0.000000
     -0.000045       0.000628       0.000000
      0.000063       0.000497       0.000000
      0.000016       0.000288       0.000000
     -0.000061       0.000331       0.000000
     -0.000186       0.000725       0.000000
     -0.000045       0.000628       0.000000
      0.000000       0.000000       0.000000
      0.000000       0.000000       0.000000
     -0.000148       0.000365       0.000000
     -0.000061       0.000331       0.000000
      0.000000       0.000000       0.000000
      0.000000       0.000000       0.000000
     -0.000248       0.000401       0.000000
     -0.000148       0.000365       0.000000
     -0.000061       0.000331       0.000000
     -0.000148       0.000365       0.000000
     -0.000343       0.000794       0.000000
     -0.000186       0.000725       0.000000
     -0.000148       0.000365       0.000000
     -0.000248       0.000401       0.000000
     -0.000515       0.000867       0.000000
     -0.000343       0.000794       0.000000
      0.000000       0.000000       0.000000
      0.000000       0.000000       0.000000
     -0.000385       0.000481       0.000000
     -0.000248       0.000401       0.000000
      0.000000       0.000000       0.000000
      0.000000       0.000000       0.000000
     -0.000596       0.000725       0.000000
     -0.000385       0.000481       0.000000
     -0.000248       0.000401       0.000000
     -0.000385       0.000481       0.000000
     -0.000707       0.000989       0.000000
     -0.000515       0.000867       0.000000
     -0.000385       0.000481       0.000000
     -0.000596       0.000725       0.000000
     -0.000909       0.001207       0.000000
     -0.000707       0.000989       0.000000
      0.000063       0.000497       0.000000
     -0.000045       0.000628       0.000000
     -0.000170       0.001026       0.000000
     -0.000017       0.000797       0.000000
     -0.000045       0.000628       0.000000
     -0.000186       0.000725       0.000000
     -0.000362       0.001176       0.000000
     -0.000170       0.001026       0.000000
     -0.000017       0.000797       0.000000
     -0.000170       0.001026       0.000000
     -0.000359       0.001495       0.000000
     -0.000158       0.001139       0.000000
     -0.000170       0.001026       0.000000
     -0.000362       0.001176       0.000000
     -0.000582       0.001676       0.000000
     -0.000359       0.001495       0.000000
     -0.000186       0.000725       0.000000
     -0.000343       0.000794       0.000000
     -0.000561       0.001269       0.000000
     -0.000362       0.001176       0.000000
     -0.000343       0.000794       0.000000
     -0.000515       0.000867       0.000000
     -0.000760       0.001350       0.000000
     -0.000561       0.001269       0.000000
     -0.000362       0.001176       0.000000
     -0.000561       0.001269       0.000000
     -0.000782       0.001759       0.000000
     -0.000582       0.001676       0.000000
     -0.000561       0.001269       0.000000
     -0.000760       0.001350       0.000000
     -0.000972       0.001823       0.000000
     -0.000782       0.001759       0.000000
     -0.000515       0.000867       0.000000
     -0.000707       0.000989       0.000000
     -0.000958       0.001465       0.000000
     -0.000760       0.001350       0.000000
     -0.000707       0.000989       0.000000
     -0.000909       0.001207       0.000000
     -0.001145       0.001641       0.000000
     -0.000958       0.001465       0.000000
     -0.000760       0.001350       0.000000
     -0.000958       0.001465       0.000000
     -0.001157       0.001909       0.000000
     -0.000972       0.001823       0.000000
     -0.000958       0.001465       0.000000
     -0.001145       0.001641       0.000000
     -0.001331       0.002039       0.000000
     -0.001157       0.001909       0.000000
     -0.000582       0.001676       0.000000
     -0.000782       0.001759       0.000000
     -0.000968       0.002233       0.000000
     -0.000820       0.002190       0.000000
     -0.000782       0.001759       0.000000
     -0.000972       0.001823       0.000000
     -0.001126       0.002273       0.000000
     -0.000968       0.002233       0.000000
     -0.000820       0.002190       0.000000
     -0.000968       0.002233       0.000000
     -0.001054       0.002673       0.000000
     -0.000951       0.002655       0.000000
     -0.000968       0.002233       0.000000
     -0.001126       0.002273       0.000000
     -0.001194       0.002701       0.000000
     -0.001054       0.002673       0.000000
     -0.000972       0.001823       0.000000
     -0.001157       0.001909       0.000000
     -0.001294       0.002328       0.000000
     -0.001126       0.002273       0.000000
     -0.001157       0.001909       0.000000
     -0.001331       0.002039       0.000000
     -0.001457       0.002406       0.000000
     -0.001294       0.002328       0.000000
     -0.001126       0.002273       0.000000
     -0.001294       0.002328       0.000000
     -0.001354       0.002732       0.000000
     -0.001194       0.002701       0.000000
     -0.001294       0.002328       0.000000
     -0.001457       0.002406       0.000000
     -0.001514       0.002758       0.000000
     -0.001354       0.002732       0.000000
     -0.000158       0.001139       0.000000
     -0.000249       0.001338       0.000000
     -0.000364       0.001587       0.000000
     -0.000258       0.001332       0.000000
     -0.000249       0.001338       0.000000
     -0.000359       0.001495       0.000000
     -0.000487       0.001766       0.000000
     -0.000364       0.001587       0.000000
     -0.000258       0.001332       0.000000
     -0.000364       0.001587       0.000000
     -0.000517       0.001882       0.000000
     -0.000391       0.001553       0.000000
     -0.000364       0.001587       0.000000
     -0.000487       0.001766       0.000000
     -0.000644       0.002063       0.000000
     -0.000517       0.001882       0.000000
     -0.000359       0.001495       0.000000
     -0.000473       0.001604       0.000000
     -0.000602       0.001873       0.000000
     -0.000487       0.001766       0.000000
     -0.000473       0.001604       0.000000
     -0.000582       0.001676       0.000000
     -0.000703       0.001935       0.000000
     -0.000602       0.001873       0.000000
     -0.000487       0.001766       0.000000
     -0.000602       0.001873       0.000000
     -0.000741       0.002148       0.000000