# vtk DataFile Version 2.0
time_10.vtk
ASCII
DATASET UNSTRUCTURED_GRID
POINTS  1152 float
      0.000000       0.000000       0.000000
      0.083333       0.000000       0.000000
      0.083333       0.083333       0.000000
      0.000000       0.083333       0.000000
      0.083333       0.000000       0.000000
      0.166667       0.000000       0.000000
      0.166667       0.083333       0.000000
      0.083333       0.083333       0.000000
      0.000000       0.083333       0.000000
      0.083333       0.083333       0.000000
      0.083333       0.166667       0.000000
      0.000000       0.166667       0.000000
      0.083333       0.083333       0.000000
      0.166667       0.083333       0.000000
      0.166667       0.166667       0.000000
      0.083333       0.166667       0.000000
      0.166667       0.000000       0.000000
      0.250000       0.000000       0.000000
      0.250000       0.083333       0.000000
      0.166667       0.083333       0.000000
      0.250000       0.000000       0.000000
      0.333333       0.000000       0.000000
      0.333333       0.083333       0.000000
      0.250000       0.083333       0.000000
      0.166667       0.083333       0.000000
      0.250000       0.083333       0.000000
      0.250000       0.166667       0.000000
      0.166667       0.166667       0.000000
      0.250000       0.083333       0.000000
      0.333333       0.083333       0.000000
      0.333333       0.166667       0.000000
      0.250000       0.166667       0.000000
      0.333333       0.000000       0.000000
      0.416667       0.000000       0.000000
      0.416667       0.083333       0.000000
      0.333333       0.083333       0.000000
      0.416667       0.000000       0.000000
      0.500000       0.000000       0.000000
      0.500000       0.083333       0.000000
      0.416667       0.083333       0.000000
      0.333333       0.083333       0.000000
      0.416667       0.083333       0.000000
      0.416667       0.166667       0.000000
      0.333333       0.166667       0.000000
      0.416667       0.083333       0.000000
      0.500000       0.083333       0.000000
      0.500000       0.166667       0.000000
      0.416667       0.166667       0.000000
      0.000000       0.166667       0.000000
      0.083333       0.166667       0.000000
      0.083333       0.250000       0.000000
      0.000000       0.250000       0.000000
      0.083333       0.166667       0.000000
      0.166667       0.166667       0.000000
      0.166667       0.250000       0.000000
      0.083333       0.250000       0.000000
      0.000000       0.250000       0.000000
      0.083333       0.250000       0.000000
      0.083333       0.333333       0.000000
      0.000000       0.333333       0.000000
      0.083333       0.250000       0.000000
      0.166667       0.250000       0.000000
      0.166667       0.333333       0.000000
      0.083333       0.333333       0.000000
      0.166667       0.166667       0.000000
      0.250000       0.166667       0.000000
      0.250000       0.250000       0.000000
      0.166667       0.250000       0.000000
      0.250000       0.166667       0.000000
      0.333333       0.166667       0.000000
      0.333333       0.250000       0.000000
      0.250000       0.250000       0.000000
      0.166667       0.250000       0.000000
      0.250000       0.250000       0.000000
      0.250000       0.333333       0.000000
      0.166667       0.333333       0.000000
      0.250000       0.250000       0.000000
      0.333333       0.250000       0.000000
      0.333333       0.333333       0.000000
      0.250000       0.333333       0.000000
      0.333333       0.166667       0.000000
      0.416667       0.166667       0.000000
      0.416667       0.250000       0.000000
      0.333333       0.250000       0.000000
      0.416667       0.166667       0.000000
      0.500000       0.166667       0.000000
      0.500000       0.250000       0.000000
      0.416667       0.250000       0.000000
      0.333333       0.250000       0.000000
      0.416667       0.250000       0.000000
      0.416667       0.333333       0.000000
      0.333333       0.333333       0.000000
      0.416667       0.250000       0.000000
      0.500000       0.250000       0.000000
      0.500000       0.333333       0.000000
      0.416667       0.333333       0.000000
      0.000000       0.333333       0.000000
      0.083333       0.333333       0.000000
      0.083333       0.416667       0.000000
      0.000000       0.416667       0.000000
      0.083333       0.333333       0.000000
      0.166667       0.333333       0.000000
      0.166667       0.416667       0.000000
      0.083333       0.416667       0.000000
      0.000000       0.416667       0.000000
      0.083333       0.416667       0.000000
      0.083333       0.500000       0.000000
      0.000000       0.500000       0.000000
      0.083333       0.416667       0.000000
      0.166667       0.416667       0.000000
      0.166667       0.500000       0.000000
      0.083333       0.500000       0.000000
      0.166667       0.333333       0.000000
      0.250000       0.333333       0.000000
      0.250000       0.416667       0.000000
      0.166667       0.416667       0.000000
      0.250000       0.333333       0.000000
      0.333333       0.333333       0.000000
      0.333333       0.416667       0.000000
      0.250000       0.416667       0.000000
      0.166667       0.416667       0.000000
      0.250000       0.416667       0.000000
      0.250000       0.500000       0.000000
      0.166667       0.500000       0.000000
      0.250000       0.416667       0.000000
      0.333333       0.416667       0.000000
      0.333333       0.500000       0.000000
      0.250000       0.500000       0.000000
      0.333333       0.333333       0.000000
      0.375000       0.333333       0.000000
      0.375000       0.375000       0.000000
      0.333333       0.375000       0.000000
      0.375000       0.333333       0.000000
      0.416667       0.333333       0.000000
      0.416667       0.375000       0.000000
      0.375000       0.375000       0.000000
      0.333333       0.375000       0.000000
      0.375000       0.375000       0.000000
      0.375000       0.416667       0.000000
      0.333333       0.416667       0.000000
      0.375000       0.375000       0.000000
      0.416667       0.375000       0.000000
      0.416667       0.416667       0.000000
      0.375000       0.416667       0.000000
      0.416667       0.333333       0.000000
      0.458333       0.333333       0.000000
      0.458333       0.375000       0.000000
      0.416667       0.375000       0.000000
      0.458333       0.333333       0.000000
      0.500000       0.333333       0.000000
      0.500000       0.375000       0.000000
      0.458333       0.375000       0.000000
      0.416667       0.375000       0.000000
      0.458333       0.375000       0.000000
      0.458333       0.416667       0.000000
      0.416667       0.416667       0.000000
      0.458333       0.375000       0.000000
      0.500000       0.375000       0.000000
      0.500000       0.416667       0.000000
      0.458333       0.416667       0.000000
      0.333333       0.416667       0.000000
      0.375000       0.416667       0.000000
      0.375000       0.458333       0.000000
      0.333333       0.458333       0.000000
      0.375000       0.416667       0.000000
      0.416667       0.416667       0.000000
      0.416667       0.458333       0.000000
      0.375000       0.458333       0.000000
      0.333333       0.458333       0.000000
      0.375000       0.458333       0.000000
      0.375000       0.500000       0.000000
      0.333333       0.500000       0.000000
      0.375000       0.458333       0.000000
      0.416667       0.458333       0.000000
      0.416667       0.500000       0.000000
      0.375000       0.500000       0.000000
      0.416667       0.416667       0.000000
      0.437500       0.416667       0.000000
      0.437500       0.437500       0.000000
      0.416667       0.437500       0.000000
      0.437500       0.416667       0.000000
      0.458333       0.416667       0.000000
      0.458333       0.437500       0.000000
      0.437500       0.437500       0.000000
      0.416667       0.437500       0.000000
      0.437500       0.437500       0.000000
      0.437500       0.458333       0.000000
      0.416667       0.458333       0.000000
      0.437500       0.437500       0.000000
      0.458333       0.437500       0.000000
      0.458333       0.458333       0.000000
      0.437500       0.458333       0.000000
      0.458333       0.416667       0.000000
      0.479167       0.416667       0.000000
      0.479167       0.437500       0.000000
      0.458333       0.437500       0.000000
      0.479167       0.416667       0.000000
      0.500000       0.416667       0.000000
      0.500000       0.437500       0.000000
      0.479167       0.437500       0.000000
      0.458333       0.437500       0.000000
      0.479167       0.437500       0.000000
      0.479167       0.458333       0.000000
      0.458333       0.458333       0.000000
      0.479167       0.437500       0.000000
      0.500000       0.437500       0.000000
      0.500000       0.458333       0.000000
      0.479167       0.458333       0.000000
      0.416667       0.458333       0.000000
      0.437500       0.458333       0.000000
      0.437500       0.479167       0.000000
      0.416667       0.479167       0.000000
      0.437500       0.458333       0.000000
      0.458333       0.458333       0.000000
      0.458333       0.479167       0.000000
      0.437500       0.479167       0.000000
      0.416667       0.479167       0.000000
      0.437500       0.479167       0.000000
      0.437500       0.500000       0.000000
      0.416667       0.500000       0.000000
[...]
POINT_DATA  1152
VECTORS U float 
      0.000000       0.000000       0.000000
      0.000000       0.000000       0.000000
      0.000072      -0.000017       0.000000
      0.000052      -0.000020       0.000000
      0.000000       0.000000       0.000000
      0.000000       0.000000       0.000000
      0.000092       0.000013       0.000000
      0.000072      -0.000017       0.000000
      0.000052      -0.000020       0.000000
      0.000072      -0.000017       0.000000
      0.000077      -0.000045       0.000000
      0.000052      -0.000091       0.000000
      0.000072      -0.000017       0.000000
      0.000092       0.000013       0.000000
      0.000100       0.000016       0.000000
      0.000077      -0.000045       0.000000
      0.000000       0.000000       0.000000
      0.000000       0.000000       0.000000
      0.000111       0.000055       0.000000
      0.000092       0.000013       0.000000
      0.000000       0.000000       0.000000
      0.000000       0.000000       0.000000
      0.000122       0.000108       0.000000
      0.000111       0.000055       0.000000
      0.000092       0.000013       0.000000
      0.000111       0.000055       0.000000
      0.000125       0.000098       0.000000
      0.000100       0.000016       0.000000
      0.000111       0.000055       0.000000
      0.000122       0.000108       0.000000
      0.000140       0.000212       0.000000
      0.000125       0.000098       0.000000
      0.000000       0.000000       0.000000
      0.000000       0.000000       0.000000
      0.000114       0.000173       0.000000
      0.000122       0.000108       0.000000
      0.000000       0.000000       0.000000
      0.000000       0.000000       0.000000
      0.000080       0.000242       0.000000
      0.000114       0.000173       0.000000
      0.000122       0.000108       0.000000
      0.000114       0.000173       0.000000
      0.000127       0.000359       0.000000
      0.000140       0.000212       0.000000
      0.000114       0.000173       0.000000
      0.000080       0.000242       0.000000
      0.000066       0.000520       0.000000
      0.000127       0.000359       0.000000
      0.000052      -0.000091       0.000000
      0.000077      -0.000045       0.000000
      0.000001      -0.000077       0.000000
     -0.000022      -0.000170       0.000000
      0.000077      -0.000045       0.000000
      0.000100       0.000016       0.000000
      0.000023       0.000012       0.000000
      0.000001      -0.000077       0.000000
     -0.000022      -0.000170       0.000000
      0.000001      -0.000077       0.000000
     -0.000142      -0.000104       0.000000
     -0.000157      -0.000230       0.000000
      0.000001      -0.000077       0.000000
      0.000023       0.000012       0.000000
     -0.000131       0.000004       0.000000
     -0.000142      -0.000104       0.000000
      0.000100       0.000016       0.000000
      0.000125       0.000098       0.000000
      0.000048       0.000128       0.000000
      0.000023       0.000012       0.000000
      0.000125       0.000098       0.000000
      0.000140       0.000212       0.000000
      0.000069       0.000302       0.000000
      0.000048       0.000128       0.000000
      0.000023       0.000012       0.000000
      0.000048       0.000128       0.000000
     -0.000115       0.000143       0.000000
     -0.000131       0.000004       0.000000
      0.000048       0.000128       0.000000
      0.000069       0.000302       0.000000
     -0.000094       0.000364       0.000000
     -0.000115       0.000143       0.000000
      0.000140       0.000212       0.000000
      0.000127       0.000359       0.000000
      0.000059       0.000547       0.000000
      0.000069       0.000302       0.000000
      0.000127       0.000359       0.000000
      0.000066       0.000520       0.000000
     -0.000020       0.000833       0.000000
      0.000059       0.000547       0.000000
      0.000069       0.000302       0.000000
      0.000059       0.000547       0.000000
     -0.000090       0.000720       0.000000
     -0.000094       0.000364       0.000000
      0.000059       0.000547       0.000000
     -0.000020       0.000833       0.000000
     -0.000174       0.001186       0.000000
     -0.000090       0.000720       0.000000
     -0.000157      -0.000230       0.000000
     -0.000142      -0.000104       0.000000
     -0.000318      -0.000118       0.000000
     -0.000320      -0.000257       0.000000
     -0.000142      -0.000104       0.000000
     -0.000131       0.000004       0.000000
     -0.000328       0.000001       0.000000
     -0.000318      -0.000118       0.000000
     -0.000320      -0.000257       0.000000
     -0.000318      -0.000118       0.000000
     -0.000477      -0.000117       0.000000
     -0.000475      -0.000259       0.000000
     -0.000318      -0.000118       0.000000
     -0.000328       0.000001       0.000000
     -0.000506       0.000015       0.000000
     -0.000477      -0.000117       0.000000
     -0.000131       0.000004       0.000000
     -0.000115       0.000143       0.000000
     -0.000347       0.000149       0.000000
     -0.000328       0.000001       0.000000
     -0.000115       0.000143       0.000000
     -0.000094       0.000364       0.000000
     -0.000367       0.000391       0.000000
     -0.000347       0.000149       0.000000
     -0.000328       0.000001       0.000000
     -0.000347       0.000149       0.000000
     -0.000583       0.000176       0.000000
     -0.000506       0.000015       0.000000
     -0.000347       0.000149       0.000000
     -0.000367       0.000391       0.000000
     -0.000716       0.000428       0.000000
     -0.000583       0.000176       0.000000
     -0.000094       0.000364       0.000000
     -0.000087       0.000523       0.000000
     -0.000209       0.000558       0.000000
     -0.000216       0.000381       0.000000
     -0.000087       0.000523       0.000000
     -0.000090       0.000720       0.000000
     -0.000206       0.000788       0.000000
     -0.000209       0.000558       0.000000
     -0.000216       0.000381       0.000000
     -0.000209       0.000558       0.000000
     -0.000371       0.000578       0.000000
     -0.000367       0.000391       0.000000
     -0.000209       0.000558       0.000000
     -0.000206       0.000788       0.000000
     -0.000368       0.000834       0.000000
     -0.000371       0.000578       0.000000
     -0.000090       0.000720       0.000000
     -0.000115       0.000947       0.000000
     -0.000223       0.001072       0.000000
     -0.000206       0.000788       0.000000
     -0.000115       0.000947       0.000000
     -0.000174       0.001186       0.000000
     -0.000282       0.001383       0.000000
     -0.000223       0.001072       0.000000
     -0.000206       0.000788       0.000000
     -0.000223       0.001072       0.000000
     -0.000372       0.001183       0.000000
     -0.000368       0.000834       0.000000
     -0.000223       0.001072       0.000000
     -0.000282       0.001383       0.000000
     -0.000426       0.001604       0.000000
     -0.000372       0.001183       0.000000
     -0.000367       0.000391       0.000000
     -0.000371       0.000578       0.000000
     -0.000577       0.000591       0.000000
     -0.000541       0.000403       0.000000
     -0.000371       0.000578       0.000000
     -0.000368       0.000834       0.000000
     -0.000604       0.000856       0.000000
     -0.000577       0.000591       0.000000
     -0.000541       0.000403       0.000000
     -0.000577       0.000591       0.000000
     -0.000806       0.000619       0.000000
     -0.000716       0.000428       0.000000
     -0.000577       0.000591       0.000000
     -0.000604       0.000856       0.000000
     -0.000913       0.000884       0.000000
     -0.000806       0.000619       0.000000
     -0.000368       0.000834       0.000000
     -0.000368       0.000996       0.000000
     -0.000474       0.001020       0.000000
     -0.000475       0.000847       0.000000
     -0.000368       0.000996       0.000000
     -0.000372       0.001183       0.000000
     -0.000474       0.001226       0.000000
     -0.000474       0.001020       0.000000
     -0.000475       0.000847       0.000000
     -0.000474       0.001020       0.000000
     -0.000609       0.001033       0.000000
     -0.000604       0.000856       0.000000
     -0.000474       0.001020       0.000000
     -0.000474       0.001226       0.000000
     -0.000608       0.001256       0.000000
     -0.000609       0.001033       0.000000
     -0.000372       0.001183       0.000000
     -0.000390       0.001389       0.000000
     -0.000484       0.001468       0.000000
     -0.000474       0.001226       0.000000
     -0.000390       0.001389       0.000000
     -0.000426       0.001604       0.000000
     -0.000520       0.001730       0.000000
     -0.000484       0.001468       0.000000
     -0.000474       0.001226       0.000000
     -0.000484       0.001468       0.000000
     -0.000608       0.001540       0.000000
     -0.000608       0.001256       0.000000
     -0.000484       0.001468       0.000000
     -0.000520       0.001730       0.000000
     -0.000639       0.001877       0.000000
     -0.000608       0.001540       0.000000
     -0.000604       0.000856       0.000000
     -0.000609       0.001033       0.000000
     -0.000779       0.001042       0.000000
     -0.000753       0.000866       0.000000
     -0.000609       0.001033       0.000000
     -0.000608       0.001256       0.000000
     -0.000795       0.001269       0.000000
     -0.000779       0.001042       0.000000
     -0.000753       0.000866       0.000000
     -0.000779       0.001042       0.000000
     -0.000974       0.001061       0.000000
     -0.000913       0.000884       0.000000
     -0.000779       0.001042       0.000000
     -0.000795       0.001269       0.000000
     -0.001044       0.001286       0.000000
     -0.000974       0.001061       0.000000
     -0.000608       0.001256       0.000000
     -0.000606       0.001389       0.000000
     -0.000691       0.001404       0.000000
     -0.000693       0.001264       0.000000
     -0.000606       0.001389       0.000000
     -0.000608       0.001540       0.000000
     -0.000688       0.001569       0.000000
     -0.000691       0.001404       0.000000
     -0.000693       0.001264       0.000000
     -0.000691       0.001404       0.000000
     -0.000796       0.001412       0.000000
     -0.000795       0.001269       0.000000
     -0.000691       0.001404       0.000000
     -0.000688       0.001569       0.000000
     -0.000791       0.001588       0.000000
     -0.000796       0.001412       0.000000
     -0.000608       0.001540       0.000000
     -0.000617       0.001705       0.000000
     -0.000692       0.001760       0.000000
     -0.000688       0.001569       0.000000
     -0.000617       0.001705       0.000000
     -0.000639       0.001877       0.000000
     -0.000713       0.001967       0.000000
     -0.000692       0.001760       0.000000
     -0.000688       0.001569       0.000000
     -0.000692       0.001760       0.000000
     -0.000785       0.001814       0.000000
     -0.000791       0.001588       0.000000
     -0.000692       0.001760       0.000000
     -0.000713       0.001967       0.000000
     -0.000805       0.002082       0.000000
     -0.000785       0.001814       0.000000
     -0.000795       0.001269       0.000000
     -0.000796       0.001412       0.000000
     -0.000929       0.001416       0.000000
     -0.000914       0.001274       0.000000
     -0.000796       0.001412       0.000000
     -0.000791       0.001588       0.000000
     -0.000936       0.001595       0.000000
     -0.000929       0.001416       0.000000
     -0.000914       0.001274       0.000000
     -0.000929       0.001416       0.000000
     -0.001084       0.001428       0.000000
     -0.001044       0.001286       0.000000
     -0.000929       0.001416       0.000000
     -0.000936       0.001595       0.000000
     -0.001132       0.001608       0.000000
     -0.001084       0.001428       0.000000
     -0.000791       0.001588       0.000000
     -0.000785       0.001814       0.000000
     -0.000923       0.001852       0.000000
     -0.000936       0.001595       0.000000
     -0.000785       0.001814       0.000000
     -0.000805       0.002082       0.000000
     -0.000934       0.002263       0.000000
     -0.000923       0.001852       0.000000
     -0.000936       0.001595       0.000000
     -0.000923       0.001852       0.000000
     -0.001201       0.001880       0.000000
     -0.001132       0.001608       0.000000
     -0.000923       0.001852       0.000000
     -0.000934       0.002263       0.000000
     -0.001329       0.002879       0.000000
     -0.001201       0.001880       0.000000
      0.000000       0.000000       0.000000
      0.000000       0.000000       0.000000
      0.000019       0.000304       0.000000
      0.000080       0.000242       0.000000
      0.000000       0.000000       0.000000
      0.000000       0.000000       0.000000
     -0.000062       0.000353       0.000000
      0.000019       0.000304       0.000000
      0.000080       0.000242       0.000000
      0.000019       0.000304       0.000000
     -0.000047       0.000665       0.000000
      0.000066       0.000520       0.000000
      0.000019       0.000304       0.000000
     -0.000062       0.000353       0.000000
     -0.000197       0.000774       0.000000
     -0.000047       0.000665       0.000000
      0.000000       0.000000       0.000000
      0.000000       0.000000       0.000000
     -0.000157       0.000392       0.000000
     -0.000062       0.000353       0.000000
      0.000000       0.000000       0.000000
      0.000000       0.000000       0.000000
     -0.000266       0.000435       0.000000
     -0.000157       0.000392       0.000000
     -0.000062       0.000353       0.000000
     -0.000157       0.000392       0.000000
     -0.000368       0.000856       0.000000
     -0.000197       0.000774       0.000000
     -0.000157       0.000392       0.000000
     -0.000266       0.000435       0.000000
     -0.000556       0.000940       0.000000
     -0.000368       0.000856       0.000000
      0.000000       0.000000       0.000000
      0.000000       0.000000       0.000000
     -0.000417       0.000525       0.000000
     -0.000266       0.000435       0.000000
      0.000000       0.000000       0.000000
      0.000000       0.000000       0.000000
     -0.000647       0.000794       0.000000
     -0.000417       0.000525       0.000000
     -0.000266       0.000435       0.000000
     -0.000417       0.000525       0.000000
     -0.000766       0.001079       0.000000
     -0.000556       0.000940       0.000000
     -0.000417       0.000525       0.000000
     -0.000647       0.000794       0.000000
     -0.000986       0.001318       0.000000
     -0.000766       0.001079       0.000000
      0.000066       0.000520       0.000000
     -0.000047       0.000665       0.000000
     -0.000180       0.001086       0.000000
     -0.000020       0.000833       0.000000
     -0.000047       0.000665       0.000000
     -0.000197       0.000774       0.000000
     -0.000388       0.001260       0.000000
     -0.000180       0.001086       0.000000
     -0.000020       0.000833       0.000000
     -0.000180       0.001086       0.000000
     -0.000384       0.001587       0.000000
     -0.000174       0.001186       0.000000
     -0.000180       0.001086       0.000000
     -0.000388       0.001260       0.000000
     -0.000630       0.001804       0.000000
     -0.000384       0.001587       0.000000
     -0.000197       0.000774       0.000000
     -0.000368       0.000856       0.000000
     -0.000607       0.001371       0.000000
     -0.000388       0.001260       0.000000
     -0.000368       0.000856       0.000000
     -0.000556       0.000940       0.000000
     -0.000826       0.001466       0.000000
     -0.000607       0.001371       0.000000
     -0.000388       0.001260       0.000000
     -0.000607       0.001371       0.000000
     -0.000853       0.001906       0.000000
     -0.000630       0.001804       0.000000
     -0.000607       0.001371       0.000000
     -0.000826       0.001466       0.000000
     -0.001061       0.001981       0.000000
     -0.000853       0.001906       0.000000
     -0.000556       0.000940       0.000000
     -0.000766       0.001079       0.000000
     -0.001042       0.001596       0.000000
     -0.000826       0.001466       0.000000
     -0.000766       0.001079       0.000000
     -0.000986       0.001318       0.000000
     -0.001245       0.001790       0.000000
     -0.001042       0.001596       0.000000
     -0.000826       0.001466       0.000000
     -0.001042       0.001596       0.000000
     -0.001262       0.002077       0.000000
     -0.001061       0.001981       0.000000
     -0.001042       0.001596       0.000000
     -0.001245       0.001790       0.000000
     -0.001450       0.002221       0.000000
     -0.001262       0.002077       0.000000
     -0.000630       0.001804       0.000000
     -0.000853       0.001906       0.000000
     -0.001062       0.002424       0.000000
     -0.000899       0.002371       0.000000
     -0.000853       0.001906       0.000000
     -0.001061       0.001981       0.000000
     -0.001233       0.002469       0.000000
     -0.001062       0.002424       0.000000
     -0.000899       0.002371       0.000000
     -0.001062       0.002424       0.000000
     -0.001159       0.002904       0.000000
     -0.001050       0.002884       0.000000
     -0.001062       0.002424       0.000000
     -0.001233       0.002469       0.000000
     -0.001308       0.002933       0.000000
     -0.001159       0.002904       0.000000
     -0.001061       0.001981       0.000000
     -0.001262       0.002077       0.000000
     -0.001415       0.002530       0.000000
     -0.001233       0.002469       0.000000
     -0.001262       0.002077       0.000000
     -0.001450       0.002221       0.000000
     -0.001590       0.002616       0.000000
     -0.001415       0.002530       0.000000
     -0.001233       0.002469       0.000000
     -0.001415       0.002530       0.000000
     -0.001481       0.002966       0.000000
     -0.001308       0.002933       0.000000
     -0.001415       0.002530       0.000000
     -0.001590       0.002616       0.000000
     -0.001653       0.002993       0.000000
     -0.001481       0.002966       0.000000
     -0.000174       0.001186       0.000000
     -0.000267       0.001407       0.000000
     -0.000390       0.001668       0.000000
     -0.000282       0.001383       0.000000
     -0.000267       0.001407       0.000000
     -0.000384       0.001587       0.000000
     -0.000523       0.001879       0.000000
     -0.000390       0.001668       0.000000
     -0.000282       0.001383       0.000000
     -0.000390       0.001668       0.000000
     -0.000556       0.001979       0.000000
     -0.000426       0.001604       0.000000
     -0.000390       0.001668       0.000000
     -0.000523       0.001879       0.000000
     -0.000697       0.002206       0.000000
     -0.000556       0.001979       0.000000
     -0.000384       0.001587       0.000000
     -0.000509       0.001716       0.000000
     -0.000652       0.002012       0.000000
     -0.000523       0.001879       0.000000
     -0.000509       0.001716       0.000000
     -0.000630       0.001804       0.000000
     -0.000766       0.002089       0.000000
     -0.000652       0.002012       0.000000
     -0.000523       0.001879       0.000000
     -0.000652       0.002012       0.000000
     -0.000809       0.002316       0.000000