# vtk DataFile Version 2.0
time_10.vtk
ASCII
DATASET UNSTRUCTURED_GRID
POINTS  1152 float
      0.000000       0.000000       0.000000
      0.083333       0.000000       0.000000
      0.083333       0.083333       0.000000
      0.000000       0.083333       0.000000
      0.083333       0.000000       0.000000
      0.166667       0.000000       0.000000
      0.166667       0.083333       0.000000
      0.083333       0.083333       0.000000
      0.000000       0.083333       0.000000
      0.083333       0.083333       0.000000
      0.083333       0.166667       0.000000
      0.000000       0.166667       0.000000
      0.083333       0.083333       0.000000
      0.166667       0.083333       0.000000
      0.166667       0.166667       0.000000
      0.083333       0.166667       0.000000
      0.166667       0.000000       0.000000
      0.250000       0.000000       0.000000
      0.250000       0.083333       0.000000
      0.166667       0.083333       0.000000
      0.250000       0.000000       0.000000
      0.333333       0.000000       0.000000
      0.333333       0.083333       0.000000
      0.250000       0.083333       0.000000
      0.166667       0.083333       0.000000
      0.250000       0.083333       0.000000
      0.250000       0.166667       0.000000
      0.166667       0.166667       0.000000
      0.250000       0.083333       0.000000
      0.333333       0.083333       0.000000
      0.333333       0.166667       0.000000
      0.250000       0.166667       0.000000
      0.333333       0.000000       0.000000
      0.416667       0.000000       0.000000
      0.416667       0.083333       0.000000
      0.333333       0.083333       0.000000
      0.416667       0.000000       0.000000
      0.500000       0.000000       0.000000
      0.500000       0.083333       0.000000
      0.416667       0.083333       0.000000
      0.333333       0.083333       0.000000
      0.416667       0.083333       0.000000
      0.416667       0.166667       0.000000
      0.333333       0.166667       0.000000
      0.416667       0.083333       0.000000
      0.500000       0.083333       0.000000
      0.500000       0.166667       0.000000
      0.416667       0.166667       0.000000
      0.000000       0.166667       0.000000
      0.083333       0.166667       0.000000
      0.083333       0.250000       0.000000
      0.000000       0.250000       0.000000
      0.083333       0.166667       0.000000
      0.166667       0.166667       0.000000
      0.166667       0.250000       0.000000
      0.083333       0.250000       0.000000
      0.000000       0.250000       0.000000
      0.083333       0.250000       0.000000
      0.083333       0.333333       0.000000
      0.000000       0.333333       0.000000
      0.083333       0.250000       0.000000
      0.166667       0.250000       0.000000
      0.166667       0.333333       0.000000
      0.083333       0.333333       0.000000
      0.166667       0.166667       0.000000
      0.250000       0.166667       0.000000
      0.250000       0.250000       0.000000
      0.166667       0.250000       0.000000
      0.250000       0.166667       0.000000
      0.333333       0.166667       0.000000
      0.333333       0.250000       0.000000
      0.250000       0.250000       0.000000
      0.166667       0.250000       0.000000
      0.250000       0.250000       0.000000
      0.250000       0.333333       0.000000
      0.166667       0.333333       0.000000
      0.250000       0.250000       0.000000
      0.333333       0.250000       0.000000
      0.333333       0.333333       0.000000
      0.250000       0.333333       0.000000
      0.333333       0.166667       0.000000
      0.416667       0.166667       0.000000
      0.416667       0.250000       0.000000
      0.333333       0.250000       0.000000
      0.416667       0.166667       0.000000
      0.500000       0.166667       0.000000
      0.500000       0.250000       0.000000
      0.416667       0.250000       0.000000
      0.333333       0.250000       0.000000
      0.416667       0.250000       0.000000
      0.416667       0.333333       0.000000
      0.333333       0.333333       0.000000
      0.416667       0.250000       0.000000
      0.500000       0.250000       0.000000
      0.500000       0.333333       0.000000
      0.416667       0.333333       0.000000
      0.000000       0.333333       0.000000
      0.083333       0.333333       0.000000
      0.083333       0.416667       0.000000
      0.000000       0.416667       0.000000
      0.083333       0.333333       0.000000
      0.166667       0.333333       0.000000
      0.166667       0.416667       0.000000
      0.083333       0.416667       0.000000
      0.000000       0.416667       0.000000
      0.083333       0.416667       0.000000
      0.083333       0.500000       0.000000
      0.000000       0.500000       0.000000
      0.083333       0.416667       0.000000
      0.166667       0.416667       0.000000
      0.166667       0.500000       0.000000
      0.083333       0.500000       0.000000
      0.166667       0.333333       0.000000
      0.250000       0.333333       0.000000
      0.250000       0.416667       0.000000
      0.166667       0.416667       0.000000
      0.250000       0.333333       0.000000
      0.333333       0.333333       0.000000
      0.333333       0.416667       0.000000
      0.250000       0.416667       0.000000
      0.166667       0.416667       0.000000
      0.250000       0.416667       0.000000
      0.250000       0.500000       0.000000
      0.166667       0.500000       0.000000
      0.250000       0.416667       0.000000
      0.333333       0.416667       0.000000
      0.333333       0.500000       0.000000
      0.250000       0.500000       0.000000
      0.333333       0.333333       0.000000
      0.375000       0.333333       0.000000
      0.375000       0.375000       0.000000
      0.333333       0.375000       0.000000
      0.375000       0.333333       0.000000
      0.416667       0.333333       0.000000
      0.416667       0.375000       0.000000
      0.375000       0.375000       0.000000
      0.333333       0.375000       0.000000
      0.375000       0.375000       0.000000
      0.375000       0.416667       0.000000
      0.333333       0.416667       0.000000
      0.375000       0.375000       0.000000
      0.416667       0.375000       0.000000
      0.416667       0.416667       0.000000
      0.375000       0.416667       0.000000
      0.416667       0.333333       0.000000
      0.458333       0.333333       0.000000
      0.458333       0.375000       0.000000
      0.416667       0.375000       0.000000
      0.458333       0.333333       0.000000
      0.500000       0.333333       0.000000
      0.500000       0.375000       0.000000
      0.458333       0.375000       0.000000
      0.416667       0.375000       0.000000
      0.458333       0.375000       0.000000
      0.458333       0.416667       0.000000
      0.416667       0.416667       0.000000
      0.458333       0.375000       0.000000
      0.500000       0.375000       0.000000
      0.500000       0.416667       0.000000
      0.458333       0.416667       0.000000
      0.333333       0.416667       0.000000
      0.375000       0.416667       0.000000
      0.375000       0.458333       0.000000
      0.333333       0.458333       0.000000
      0.375000       0.416667       0.000000
      0.416667       0.416667       0.000000
      0.416667       0.458333       0.000000
      0.375000       0.458333       0.000000
      0.333333       0.458333       0.000000
      0.375000       0.458333       0.000000
      0.375000       0.500000       0.000000
      0.333333       0.500000       0.000000
      0.375000       0.458333       0.000000
      0.416667       0.458333       0.000000
      0.416667       0.500000       0.000000
      0.375000       0.500000       0.000000
      0.416667       0.416667       0.000000
      0.437500       0.416667       0.000000
      0.437500       0.437500       0.000000
      0.416667       0.437500       0.000000
      0.437500       0.416667       0.000000
      0.458333       0.416667       0.000000
      0.458333       0.437500       0.000000
      0.437500       0.437500       0.000000
      0.416667       0.437500       0.000000
      0.437500       0.437500       0.000000
      0.437500       0.458333       0.000000
      0.416667       0.458333       0.000000
      0.437500       0.437500       0.000000
      0.458333       0.437500       0.000000
      0.458333       0.458333       0.000000
      0.437500       0.458333       0.000000
      0.458333       0.416667       0.000000
      0.479167       0.416667       0.000000
      0.479167       0.437500       0.000000
      0.458333       0.437500       0.000000
      0.479167       0.416667       0.000000
      0.500000       0.416667       0.000000
      0.500000       0.437500       0.000000
      0.479167       0.437500       0.000000
      0.458333       0.437500       0.000000
      0.479167       0.437500       0.000000
      0.479167       0.458333       0.000000
      0.458333       0.458333       0.000000
      0.479167       0.437500       0.000000
      0.500000       0.437500       0.000000
      0.500000       0.458333       0.000000
      0.479167       0.458333       0.000000
      0.416667       0.458333       0.000000
      0.437500       0.458333       0.000000
      0.437500       0.479167       0.000000
      0.416667       0.479167       0.000000
      0.437500       0.458333       0.000000
      0.458333       0.458333       0.000000
      0.458333       0.479167       0.000000
      0.437500       0.479167       0.000000
      0.416667       0.479167       0.000000
      0.437500       0.479167       0.000000
      0.437500       0.500000       0.000000
      0.416667       0.500000       0.000000
[...]
POINT_DATA  1152
VECTORS U float 
      0.000000       0.000000       0.000000
      0.000000       0.000000       0.000000
      0.000073      -0.000016       0.000000
      0.000054      -0.000017       0.000000
      0.000000       0.000000       0.000000
      0.000000       0.000000       0.000000
      0.000093       0.000014       0.000000
      0.000073      -0.000016       0.000000
      0.000054      -0.000017       0.000000
      0.000073      -0.000016       0.000000
      0.000080      -0.000042       0.000000
      0.000055      -0.000086       0.000000
      0.000073      -0.000016       0.000000
      0.000093       0.000014       0.000000
      0.000103       0.000018       0.000000
      0.000080      -0.000042       0.000000
      0.000000       0.000000       0.000000
      0.000000       0.000000       0.000000
      0.000111       0.000055       0.000000
      0.000093       0.000014       0.000000
      0.000000       0.000000       0.000000
      0.000000       0.000000       0.000000
      0.000121       0.000108       0.000000
      0.000111       0.000055       0.000000
      0.000093       0.000014       0.000000
      0.000111       0.000055       0.000000
      0.000126       0.000099       0.000000
      0.000103       0.000018       0.000000
      0.000111       0.000055       0.000000
      0.000121       0.000108       0.000000
      0.000141       0.000211       0.000000
      0.000126       0.000099       0.000000
      0.000000       0.000000       0.000000
      0.000000       0.000000       0.000000
      0.000113       0.000172       0.000000
      0.000121       0.000108       0.000000
      0.000000       0.000000       0.000000
      0.000000       0.000000       0.000000
      0.000078       0.000239       0.000000
      0.000113       0.000172       0.000000
      0.000121       0.000108       0.000000
      0.000113       0.000172       0.000000
      0.000126       0.000356       0.000000
      0.000141       0.000211       0.000000
      0.000113       0.000172       0.000000
      0.000078       0.000239       0.000000
      0.000064       0.000513       0.000000
      0.000126       0.000356       0.000000
      0.000055      -0.000086       0.000000
      0.000080      -0.000042       0.000000
      0.000007      -0.000072       0.000000
     -0.000016      -0.000163       0.000000
      0.000080      -0.000042       0.000000
      0.000103       0.000018       0.000000
      0.000028       0.000015       0.000000
      0.000007      -0.000072       0.000000
     -0.000016      -0.000163       0.000000
      0.000007      -0.000072       0.000000
     -0.000133      -0.000099       0.000000
     -0.000148      -0.000223       0.000000
      0.000007      -0.000072       0.000000
      0.000028       0.000015       0.000000
     -0.000122       0.000008       0.000000
     -0.000133      -0.000099       0.000000
      0.000103       0.000018       0.000000
      0.000126       0.000099       0.000000
      0.000053       0.000130       0.000000
      0.000028       0.000015       0.000000
      0.000126       0.000099       0.000000
      0.000141       0.000211       0.000000
      0.000073       0.000303       0.000000
      0.000053       0.000130       0.000000
      0.000028       0.000015       0.000000
      0.000053       0.000130       0.000000
     -0.000106       0.000145       0.000000
     -0.000122       0.000008       0.000000
      0.000053       0.000130       0.000000
      0.000073       0.000303       0.000000
     -0.000085       0.000366       0.000000
     -0.000106       0.000145       0.000000
      0.000141       0.000211       0.000000
      0.000126       0.000356       0.000000
      0.000061       0.000544       0.000000
      0.000073       0.000303       0.000000
      0.000126       0.000356       0.000000
      0.000064       0.000513       0.000000
     -0.000019       0.000823       0.000000
      0.000061       0.000544       0.000000
      0.000073       0.000303       0.000000
      0.000061       0.000544       0.000000
     -0.000082       0.000718       0.000000
     -0.000085       0.000366       0.000000
      0.000061       0.000544       0.000000
     -0.000019       0.000823       0.000000
     -0.000168       0.001174       0.000000
     -0.000082       0.000718       0.000000
     -0.000148      -0.000223       0.000000
     -0.000133      -0.000099       0.000000
     -0.000306      -0.000113       0.000000
     -0.000308      -0.000250       0.000000
     -0.000133      -0.000099       0.000000
     -0.000122       0.000008       0.000000
     -0.000315       0.000005       0.000000
     -0.000306      -0.000113       0.000000
     -0.000308      -0.000250       0.000000
     -0.000306      -0.000113       0.000000
     -0.000463      -0.000112       0.000000
     -0.000461      -0.000252       0.000000
     -0.000306      -0.000113       0.000000
     -0.000315       0.000005       0.000000
     -0.000491       0.000018       0.000000
     -0.000463      -0.000112       0.000000
     -0.000122       0.000008       0.000000
     -0.000106       0.000145       0.000000
     -0.000334       0.000152       0.000000
     -0.000315       0.000005       0.000000
     -0.000106       0.000145       0.000000
     -0.000085       0.000366       0.000000
     -0.000352       0.000393       0.000000
     -0.000334       0.000152       0.000000
     -0.000315       0.000005       0.000000
     -0.000334       0.000152       0.000000
     -0.000567       0.000178       0.000000
     -0.000491       0.000018       0.000000
     -0.000334       0.000152       0.000000
     -0.000352       0.000393       0.000000
     -0.000699       0.000429       0.000000
     -0.000567       0.000178       0.000000
     -0.000085       0.000366       0.000000
     -0.000078       0.000524       0.000000
     -0.000197       0.000559       0.000000
     -0.000204       0.000382       0.000000
     -0.000078       0.000524       0.000000
     -0.000082       0.000718       0.000000
     -0.000194       0.000788       0.000000
     -0.000197       0.000559       0.000000
     -0.000204       0.000382       0.000000
     -0.000197       0.000559       0.000000
     -0.000355       0.000579       0.000000
     -0.000352       0.000393       0.000000
     -0.000197       0.000559       0.000000
     -0.000194       0.000788       0.000000
     -0.000352       0.000835       0.000000
     -0.000355       0.000579       0.000000
     -0.000082       0.000718       0.000000
     -0.000108       0.000942       0.000000
     -0.000212       0.001069       0.000000
     -0.000194       0.000788       0.000000
     -0.000108       0.000942       0.000000
     -0.000168       0.001174       0.000000
     -0.000273       0.001373       0.000000
     -0.000212       0.001069       0.000000
     -0.000194       0.000788       0.000000
     -0.000212       0.001069       0.000000
     -0.000355       0.001183       0.000000
     -0.000352       0.000835       0.000000
     -0.000212       0.001069       0.000000
     -0.000273       0.001373       0.000000
     -0.000412       0.001597       0.000000
     -0.000355       0.001183       0.000000
     -0.000352       0.000393       0.000000
     -0.000355       0.000579       0.000000
     -0.000559       0.000592       0.000000
     -0.000525       0.000404       0.000000
     -0.000355       0.000579       0.000000
     -0.000352       0.000835       0.000000
     -0.000583       0.000857       0.000000
     -0.000559       0.000592       0.000000
     -0.000525       0.000404       0.000000
     -0.000559       0.000592       0.000000
     -0.000787       0.000619       0.000000
     -0.000699       0.000429       0.000000
     -0.000559       0.000592       0.000000
     -0.000583       0.000857       0.000000
     -0.000893       0.000884       0.000000
     -0.000787       0.000619       0.000000
     -0.000352       0.000835       0.000000
     -0.000350       0.000997       0.000000
     -0.000454       0.001021       0.000000
     -0.000456       0.000848       0.000000
     -0.000350       0.000997       0.000000
     -0.000355       0.001183       0.000000
     -0.000454       0.001228       0.000000
     -0.000454       0.001021       0.000000
     -0.000456       0.000848       0.000000
     -0.000454       0.001021       0.000000
     -0.000588       0.001035       0.000000
     -0.000583       0.000857       0.000000
     -0.000454       0.001021       0.000000
     -0.000454       0.001228       0.000000
     -0.000585       0.001259       0.000000
     -0.000588       0.001035       0.000000
     -0.000355       0.001183       0.000000
     -0.000374       0.001387       0.000000
     -0.000465       0.001470       0.000000
     -0.000454       0.001228       0.000000
     -0.000374       0.001387       0.000000
     -0.000412       0.001597       0.000000
     -0.000503       0.001726       0.000000
     -0.000465       0.001470       0.000000
     -0.000454       0.001228       0.000000
     -0.000465       0.001470       0.000000
     -0.000584       0.001546       0.000000
     -0.000585       0.001259       0.000000
     -0.000465       0.001470       0.000000
     -0.000503       0.001726       0.000000
     -0.000618       0.001880       0.000000
     -0.000584       0.001546       0.000000
     -0.000583       0.000857       0.000000
     -0.000588       0.001035       0.000000
     -0.000758       0.001043       0.000000
     -0.000733       0.000866       0.000000
     -0.000588       0.001035       0.000000
     -0.000585       0.001259       0.000000
     -0.000772       0.001272       0.000000
     -0.000758       0.001043       0.000000
     -0.000733       0.000866       0.000000
     -0.000758       0.001043       0.000000
     -0.000954       0.001061       0.000000
     -0.000893       0.000884       0.000000
     -0.000758       0.001043       0.000000
     -0.000772       0.001272       0.000000
     -0.001023       0.001289       0.000000
     -0.000954       0.001061       0.000000
     -0.000585       0.001259       0.000000
     -0.000582       0.001394       0.000000
     -0.000666       0.001410       0.000000
     -0.000669       0.001267       0.000000
     -0.000582       0.001394       0.000000
     -0.000584       0.001546       0.000000
     -0.000662       0.001577       0.000000
     -0.000666       0.001410       0.000000
     -0.000669       0.001267       0.000000
     -0.000666       0.001410       0.000000
     -0.000771       0.001418       0.000000
     -0.000772       0.001272       0.000000
     -0.000666       0.001410       0.000000
     -0.000662       0.001577       0.000000
     -0.000764       0.001598       0.000000
     -0.000771       0.001418       0.000000
     -0.000584       0.001546       0.000000
     -0.000594       0.001711       0.000000
     -0.000666       0.001770       0.000000
     -0.000662       0.001577       0.000000
     -0.000594       0.001711       0.000000
     -0.000618       0.001880       0.000000
     -0.000690       0.001974       0.000000
     -0.000666       0.001770       0.000000
     -0.000662       0.001577       0.000000
     -0.000666       0.001770       0.000000
     -0.000758       0.001827       0.000000
     -0.000764       0.001598       0.000000
     -0.000666       0.001770       0.000000
     -0.000690       0.001974       0.000000
     -0.000779       0.002093       0.000000
     -0.000758       0.001827       0.000000
     -0.000772       0.001272       0.000000
     -0.000771       0.001418       0.000000
     -0.000906       0.001422       0.000000
     -0.000892       0.001277       0.000000
     -0.000771       0.001418       0.000000
     -0.000764       0.001598       0.000000
     -0.000911       0.001605       0.000000
     -0.000906       0.001422       0.000000
     -0.000892       0.001277       0.000000
     -0.000906       0.001422       0.000000
     -0.001063       0.001433       0.000000
     -0.001023       0.001289       0.000000
     -0.000906       0.001422       0.000000
     -0.000911       0.001605       0.000000
     -0.001111       0.001617       0.000000
     -0.001063       0.001433       0.000000
     -0.000764       0.001598       0.000000
     -0.000758       0.001827       0.000000
     -0.000896       0.001868       0.000000
     -0.000911       0.001605       0.000000
     -0.000758       0.001827       0.000000
     -0.000779       0.002093       0.000000
     -0.000906       0.002271       0.000000
     -0.000896       0.001868       0.000000
     -0.000911       0.001605       0.000000
     -0.000896       0.001868       0.000000
     -0.001176       0.001891       0.000000
     -0.001111       0.001617       0.000000
     -0.000896       0.001868       0.000000
     -0.000906       0.002271       0.000000
     -0.001265       0.002785       0.000000
     -0.001176       0.001891       0.000000
      0.000000       0.000000       0.000000
      0.000000       0.000000       0.000000
      0.000017       0.000299       0.000000
      0.000078       0.000239       0.000000
      0.000000       0.000000       0.000000
      0.000000       0.000000       0.000000
     -0.000062       0.000345       0.000000
      0.000017       0.000299       0.000000
      0.000078       0.000239       0.000000
      0.000017       0.000299       0.000000
     -0.000047       0.000652       0.000000
      0.000064       0.000513       0.000000
      0.000017       0.000299       0.000000
     -0.000062       0.000345       0.000000
     -0.000194       0.000756       0.000000
     -0.000047       0.000652       0.000000
      0.000000       0.000000       0.000000
      0.000000       0.000000       0.000000
     -0.000154       0.000381       0.000000
     -0.000062       0.000345       0.000000
      0.000000       0.000000       0.000000
      0.000000       0.000000       0.000000
     -0.000260       0.000421       0.000000
     -0.000154       0.000381       0.000000
     -0.000062       0.000345       0.000000
     -0.000154       0.000381       0.000000
     -0.000359       0.000832       0.000000
     -0.000194       0.000756       0.000000
     -0.000154       0.000381       0.000000
     -0.000260       0.000421       0.000000
     -0.000540       0.000911       0.000000
     -0.000359       0.000832       0.000000
      0.000000       0.000000       0.000000
      0.000000       0.000000       0.000000
     -0.000405       0.000507       0.000000
     -0.000260       0.000421       0.000000
      0.000000       0.000000       0.000000
      0.000000       0.000000       0.000000
     -0.000627       0.000766       0.000000
     -0.000405       0.000507       0.000000
     -0.000260       0.000421       0.000000
     -0.000405       0.000507       0.000000
     -0.000743       0.001042       0.000000
     -0.000540       0.000911       0.000000
     -0.000405       0.000507       0.000000
     -0.000627       0.000766       0.000000
     -0.000955       0.001273       0.000000
     -0.000743       0.001042       0.000000
      0.000064       0.000513       0.000000
     -0.000047       0.000652       0.000000
     -0.000177       0.001065       0.000000
     -0.000019       0.000823       0.000000
     -0.000047       0.000652       0.000000
     -0.000194       0.000756       0.000000
     -0.000379       0.001228       0.000000
     -0.000177       0.001065       0.000000
     -0.000019       0.000823       0.000000
     -0.000177       0.001065       0.000000
     -0.000376       0.001555       0.000000
     -0.000168       0.001174       0.000000
     -0.000177       0.001065       0.000000
     -0.000379       0.001228       0.000000
     -0.000612       0.001755       0.000000
     -0.000376       0.001555       0.000000
     -0.000194       0.000756       0.000000
     -0.000359       0.000832       0.000000
     -0.000590       0.001330       0.000000
     -0.000379       0.001228       0.000000
     -0.000359       0.000832       0.000000
     -0.000540       0.000911       0.000000
     -0.000800       0.001419       0.000000
     -0.000590       0.001330       0.000000
     -0.000379       0.001228       0.000000
     -0.000590       0.001330       0.000000
     -0.000825       0.001847       0.000000
     -0.000612       0.001755       0.000000
     -0.000590       0.001330       0.000000
     -0.000800       0.001419       0.000000
     -0.001025       0.001917       0.000000
     -0.000825       0.001847       0.000000
     -0.000540       0.000911       0.000000
     -0.000743       0.001042       0.000000
     -0.001009       0.001542       0.000000
     -0.000800       0.001419       0.000000
     -0.000743       0.001042       0.000000
     -0.000955       0.001273       0.000000
     -0.001206       0.001729       0.000000
     -0.001009       0.001542       0.000000
     -0.000800       0.001419       0.000000
     -0.001009       0.001542       0.000000
     -0.001220       0.002009       0.000000
     -0.001025       0.001917       0.000000
     -0.001009       0.001542       0.000000
     -0.001206       0.001729       0.000000
     -0.001402       0.002147       0.000000
     -0.001220       0.002009       0.000000
     -0.000612       0.001755       0.000000
     -0.000825       0.001847       0.000000
     -0.001023       0.002347       0.000000
     -0.000867       0.002298       0.000000
     -0.000825       0.001847       0.000000
     -0.001025       0.001917       0.000000
     -0.001190       0.002389       0.000000
     -0.001023       0.002347       0.000000
     -0.000867       0.002298       0.000000
     -0.001023       0.002347       0.000000
     -0.001115       0.002810       0.000000
     -0.001009       0.002791       0.000000
     -0.001023       0.002347       0.000000
     -0.001190       0.002389       0.000000
     -0.001261       0.002839       0.000000
     -0.001115       0.002810       0.000000
     -0.001025       0.001917       0.000000
     -0.001220       0.002009       0.000000
     -0.001366       0.002448       0.000000
     -0.001190       0.002389       0.000000
     -0.001220       0.002009       0.000000
     -0.001402       0.002147       0.000000
     -0.001536       0.002531       0.000000
     -0.001366       0.002448       0.000000
     -0.001190       0.002389       0.000000
     -0.001366       0.002448       0.000000
     -0.001429       0.002871       0.000000
     -0.001261       0.002839       0.000000
     -0.001366       0.002448       0.000000
     -0.001536       0.002531       0.000000
     -0.001596       0.002898       0.000000
     -0.001429       0.002871       0.000000
     -0.000168       0.001174       0.000000
     -0.000261       0.001386       0.000000
     -0.000381       0.001643       0.000000
     -0.000273       0.001373       0.000000
     -0.000261       0.001386       0.000000
     -0.000376       0.001555       0.000000
     -0.000510       0.001839       0.000000
     -0.000381       0.001643       0.000000
     -0.000273       0.001373       0.000000
     -0.000381       0.001643       0.000000
     -0.000542       0.001950       0.000000
     -0.000412       0.001597       0.000000
     -0.000381       0.001643       0.000000
     -0.000510       0.001839       0.000000
     -0.000677       0.002154       0.000000
     -0.000542       0.001950       0.000000
     -0.000376       0.001555       0.000000
     -0.000496       0.001675       0.000000
     -0.000633       0.001959       0.000000
     -0.000510       0.001839       0.000000
     -0.000496       0.001675       0.000000
     -0.000612       0.001755       0.000000
     -0.000742       0.002029       0.000000
     -0.000633       0.001959       0.000000
     -0.000510       0.001839       0.000000
     -0.000633       0.001959       0.000000
     -0.000782       0.002251       0.000000