# vtk DataFile Version 2.0
time_10.vtk
ASCII
DATASET UNSTRUCTURED_GRID
POINTS  1152 float
      0.000000       0.000000       0.000000
      0.083333       0.000000       0.000000
      0.083333       0.083333       0.000000
      0.000000       0.083333       0.000000
      0.083333       0.000000       0.000000
      0.166667       0.000000       0.000000
      0.166667       0.083333       0.000000
      0.083333       0.083333       0.000000
      0.000000       0.083333       0.000000
      0.083333       0.083333       0.000000
      0.083333       0.166667       0.000000
      0.000000       0.166667       0.000000
      0.083333       0.083333       0.000000
      0.166667       0.083333       0.000000
      0.166667       0.166667       0.000000
      0.083333       0.166667       0.000000
      0.166667       0.000000       0.000000
      0.250000       0.000000       0.000000
      0.250000       0.083333       0.000000
      0.166667       0.083333       0.000000
      0.250000       0.000000       0.000000
      0.333333       0.000000       0.000000
      0.333333       0.083333       0.000000
      0.250000       0.083333       0.000000
      0.166667       0.083333       0.000000
      0.250000       0.083333       0.000000
      0.250000       0.166667       0.000000
      0.166667       0.166667       0.000000
      0.250000       0.083333       0.000000
      0.333333       0.083333       0.000000
      0.333333       0.166667       0.000000
      0.250000       0.166667       0.000000
      0.333333       0.000000       0.000000
      0.416667       0.000000       0.000000
      0.416667       0.083333       0.000000
      0.333333       0.083333       0.000000
      0.416667       0.000000       0.000000
      0.500000       0.000000       0.000000
      0.500000       0.083333       0.000000
      0.416667       0.083333       0.000000
      0.333333       0.083333       0.000000
      0.416667       0.083333       0.000000
      0.416667       0.166667       0.000000
      0.333333       0.166667       0.000000
      0.416667       0.083333       0.000000
      0.500000       0.083333       0.000000
      0.500000       0.166667       0.000000
      0.416667       0.166667       0.000000
      0.000000       0.166667       0.000000
      0.083333       0.166667       0.000000
      0.083333       0.250000       0.000000
      0.000000       0.250000       0.000000
      0.083333       0.166667       0.000000
      0.166667       0.166667       0.000000
      0.166667       0.250000       0.000000
      0.083333       0.250000       0.000000
      0.000000       0.250000       0.000000
      0.083333       0.250000       0.000000
      0.083333       0.333333       0.000000
      0.000000       0.333333       0.000000
      0.083333       0.250000       0.000000
      0.166667       0.250000       0.000000
      0.166667       0.333333       0.000000
      0.083333       0.333333       0.000000
      0.166667       0.166667       0.000000
      0.250000       0.166667       0.000000
      0.250000       0.250000       0.000000
      0.166667       0.250000       0.000000
      0.250000       0.166667       0.000000
      0.333333       0.166667       0.000000
      0.333333       0.250000       0.000000
      0.250000       0.250000       0.000000
      0.166667       0.250000       0.000000
      0.250000       0.250000       0.000000
      0.250000       0.333333       0.000000
      0.166667       0.333333       0.000000
      0.250000       0.250000       0.000000
      0.333333       0.250000       0.000000
      0.333333       0.333333       0.000000
      0.250000       0.333333       0.000000
      0.333333       0.166667       0.000000
      0.416667       0.166667       0.000000
      0.416667       0.250000       0.000000
      0.333333       0.250000       0.000000
      0.416667       0.166667       0.000000
      0.500000       0.166667       0.000000
      0.500000       0.250000       0.000000
      0.416667       0.250000       0.000000
      0.333333       0.250000       0.000000
      0.416667       0.250000       0.000000
      0.416667       0.333333       0.000000
      0.333333       0.333333       0.000000
      0.416667       0.250000       0.000000
      0.500000       0.250000       0.000000
      0.500000       0.333333       0.000000
      0.416667       0.333333       0.000000
      0.000000       0.333333       0.000000
      0.083333       0.333333       0.000000
      0.083333       0.416667       0.000000
      0.000000       0.416667       0.000000
      0.083333       0.333333       0.000000
      0.166667       0.333333       0.000000
      0.166667       0.416667       0.000000
      0.083333       0.416667       0.000000
      0.000000       0.416667       0.000000
      0.083333       0.416667       0.000000
      0.083333       0.500000       0.000000
      0.000000       0.500000       0.000000
      0.083333       0.416667       0.000000
      0.166667       0.416667       0.000000
      0.166667       0.500000       0.000000
      0.083333       0.500000       0.000000
      0.166667       0.333333       0.000000
      0.250000       0.333333       0.000000
      0.250000       0.416667       0.000000
      0.166667       0.416667       0.000000
      0.250000       0.333333       0.000000
      0.333333       0.333333       0.000000
      0.333333       0.416667       0.000000
      0.250000       0.416667       0.000000
      0.166667       0.416667       0.000000
      0.250000       0.416667       0.000000
      0.250000       0.500000       0.000000
      0.166667       0.500000       0.000000
      0.250000       0.416667       0.000000
      0.333333       0.416667       0.000000
      0.333333       0.500000       0.000000
      0.250000       0.500000       0.000000
      0.333333       0.333333       0.000000
      0.375000       0.333333       0.000000
      0.375000       0.375000       0.000000
      0.333333       0.375000       0.000000
      0.375000       0.333333       0.000000
      0.416667       0.333333       0.000000
      0.416667       0.375000       0.000000
      0.375000       0.375000       0.000000
      0.333333       0.375000       0.000000
      0.375000       0.375000       0.000000
      0.375000       0.416667       0.000000
      0.333333       0.416667       0.000000
      0.375000       0.375000       0.000000
      0.416667       0.375000       0.000000
      0.416667       0.416667       0.000000
      0.375000       0.416667       0.000000
      0.416667       0.333333       0.000000
      0.458333       0.333333       0.000000
      0.458333       0.375000       0.000000
      0.416667       0.375000       0.000000
      0.458333       0.333333       0.000000
      0.500000       0.333333       0.000000
      0.500000       0.375000       0.000000
      0.458333       0.375000       0.000000
      0.416667       0.375000       0.000000
      0.458333       0.375000       0.000000
      0.458333       0.416667       0.000000
      0.416667       0.416667       0.000000
      0.458333       0.375000       0.000000
      0.500000       0.375000       0.000000
      0.500000       0.416667       0.000000
      0.458333       0.416667       0.000000
      0.333333       0.416667       0.000000
      0.375000       0.416667       0.000000
      0.375000       0.458333       0.000000
      0.333333       0.458333       0.000000
      0.375000       0.416667       0.000000
      0.416667       0.416667       0.000000
      0.416667       0.458333       0.000000
      0.375000       0.458333       0.000000
      0.333333       0.458333       0.000000
      0.375000       0.458333       0.000000
      0.375000       0.500000       0.000000
      0.333333       0.500000       0.000000
      0.375000       0.458333       0.000000
      0.416667       0.458333       0.000000
      0.416667       0.500000       0.000000
      0.375000       0.500000       0.000000
      0.416667       0.416667       0.000000
      0.437500       0.416667       0.000000
      0.437500       0.437500       0.000000
      0.416667       0.437500       0.000000
      0.437500       0.416667       0.000000
      0.458333       0.416667       0.000000
      0.458333       0.437500       0.000000
      0.437500       0.437500       0.000000
      0.416667       0.437500       0.000000
      0.437500       0.437500       0.000000
      0.437500       0.458333       0.000000
      0.416667       0.458333       0.000000
      0.437500       0.437500       0.000000
      0.458333       0.437500       0.000000
      0.458333       0.458333       0.000000
      0.437500       0.458333       0.000000
      0.458333       0.416667       0.000000
      0.479167       0.416667       0.000000
      0.479167       0.437500       0.000000
      0.458333       0.437500       0.000000
      0.479167       0.416667       0.000000
      0.500000       0.416667       0.000000
      0.500000       0.437500       0.000000
      0.479167       0.437500       0.000000
      0.458333       0.437500       0.000000
      0.479167       0.437500       0.000000
      0.479167       0.458333       0.000000
      0.458333       0.458333       0.000000
      0.479167       0.437500       0.000000
      0.500000       0.437500       0.000000
      0.500000       0.458333       0.000000
      0.479167       0.458333       0.000000
      0.416667       0.458333       0.000000
      0.437500       0.458333       0.000000
      0.437500       0.479167       0.000000
      0.416667       0.479167       0.000000
      0.437500       0.458333       0.000000
      0.458333       0.458333       0.000000
      0.458333       0.479167       0.000000
      0.437500       0.479167       0.000000
      0.416667       0.479167       0.000000
      0.437500       0.479167       0.000000
      0.437500       0.500000       0.000000
      0.416667       0.500000       0.000000
[...]
POINT_DATA  1152
VECTORS U float 
      0.000000       0.000000       0.000000
      0.000000       0.000000       0.000000
      0.000073      -0.000016       0.000000
      0.000054      -0.000017       0.000000
      0.000000       0.000000       0.000000
      0.000000       0.000000       0.000000
      0.000093       0.000014       0.000000
      0.000073      -0.000016       0.000000
      0.000054      -0.000017       0.000000
      0.000073      -0.000016       0.000000
      0.000080      -0.000042       0.000000
      0.000055      -0.000086       0.000000
      0.000073      -0.000016       0.000000
      0.000093       0.000014       0.000000
      0.000103       0.000018       0.000000
      0.000080      -0.000042       0.000000
      0.000000       0.000000       0.000000
      0.000000       0.000000       0.000000
      0.000111       0.000055       0.000000
      0.000093       0.000014       0.000000
      0.000000       0.000000       0.000000
      0.000000       0.000000       0.000000
      0.000121       0.000108       0.000000
      0.000111       0.000055       0.000000
      0.000093       0.000014       0.000000
      0.000111       0.000055       0.000000
      0.000126       0.000099       0.000000
      0.000103       0.000018       0.000000
      0.000111       0.000055       0.000000
      0.000121       0.000108       0.000000
      0.000141       0.000212       0.000000
      0.000126       0.000099       0.000000
      0.000000       0.000000       0.000000
      0.000000       0.000000       0.000000
      0.000113       0.000172       0.000000
      0.000121       0.000108       0.000000
      0.000000       0.000000       0.000000
      0.000000       0.000000       0.000000
      0.000078       0.000239       0.000000
      0.000113       0.000172       0.000000
      0.000121       0.000108       0.000000
      0.000113       0.000172       0.000000
      0.000126       0.000356       0.000000
      0.000141       0.000212       0.000000
      0.000113       0.000172       0.000000
      0.000078       0.000239       0.000000
      0.000065       0.000514       0.000000
      0.000126       0.000356       0.000000
      0.000055      -0.000086       0.000000
      0.000080      -0.000042       0.000000
      0.000007      -0.000073       0.000000
     -0.000016      -0.000164       0.000000
      0.000080      -0.000042       0.000000
      0.000103       0.000018       0.000000
      0.000028       0.000015       0.000000
      0.000007      -0.000073       0.000000
     -0.000016      -0.000164       0.000000
      0.000007      -0.000073       0.000000
     -0.000134      -0.000099       0.000000
     -0.000148      -0.000223       0.000000
      0.000007      -0.000073       0.000000
      0.000028       0.000015       0.000000
     -0.000122       0.000007       0.000000
     -0.000134      -0.000099       0.000000
      0.000103       0.000018       0.000000
      0.000126       0.000099       0.000000
      0.000053       0.000130       0.000000
      0.000028       0.000015       0.000000
      0.000126       0.000099       0.000000
      0.000141       0.000212       0.000000
      0.000073       0.000303       0.000000
      0.000053       0.000130       0.000000
      0.000028       0.000015       0.000000
      0.000053       0.000130       0.000000
     -0.000106       0.000145       0.000000
     -0.000122       0.000007       0.000000
      0.000053       0.000130       0.000000
      0.000073       0.000303       0.000000
     -0.000086       0.000366       0.000000
     -0.000106       0.000145       0.000000
      0.000141       0.000212       0.000000
      0.000126       0.000356       0.000000
      0.000061       0.000545       0.000000
      0.000073       0.000303       0.000000
      0.000126       0.000356       0.000000
      0.000065       0.000514       0.000000
     -0.000019       0.000824       0.000000
      0.000061       0.000545       0.000000
      0.000073       0.000303       0.000000
      0.000061       0.000545       0.000000
     -0.000082       0.000718       0.000000
     -0.000086       0.000366       0.000000
      0.000061       0.000545       0.000000
     -0.000019       0.000824       0.000000
     -0.000168       0.001175       0.000000
     -0.000082       0.000718       0.000000
     -0.000148      -0.000223       0.000000
     -0.000134      -0.000099       0.000000
     -0.000307      -0.000113       0.000000
     -0.000309      -0.000250       0.000000
     -0.000134      -0.000099       0.000000
     -0.000122       0.000007       0.000000
     -0.000316       0.000005       0.000000
     -0.000307      -0.000113       0.000000
     -0.000309      -0.000250       0.000000
     -0.000307      -0.000113       0.000000
     -0.000463      -0.000112       0.000000
     -0.000461      -0.000252       0.000000
     -0.000307      -0.000113       0.000000
     -0.000316       0.000005       0.000000
     -0.000492       0.000018       0.000000
     -0.000463      -0.000112       0.000000
     -0.000122       0.000007       0.000000
     -0.000106       0.000145       0.000000
     -0.000335       0.000152       0.000000
     -0.000316       0.000005       0.000000
     -0.000106       0.000145       0.000000
     -0.000086       0.000366       0.000000
     -0.000353       0.000393       0.000000
     -0.000335       0.000152       0.000000
     -0.000316       0.000005       0.000000
     -0.000335       0.000152       0.000000
     -0.000568       0.000178       0.000000
     -0.000492       0.000018       0.000000
     -0.000335       0.000152       0.000000
     -0.000353       0.000393       0.000000
     -0.000700       0.000429       0.000000
     -0.000568       0.000178       0.000000
     -0.000086       0.000366       0.000000
     -0.000078       0.000524       0.000000
     -0.000197       0.000559       0.000000
     -0.000205       0.000383       0.000000
     -0.000078       0.000524       0.000000
     -0.000082       0.000718       0.000000
     -0.000194       0.000788       0.000000
     -0.000197       0.000559       0.000000
     -0.000205       0.000383       0.000000
     -0.000197       0.000559       0.000000
     -0.000356       0.000579       0.000000
     -0.000353       0.000393       0.000000
     -0.000197       0.000559       0.000000
     -0.000194       0.000788       0.000000
     -0.000352       0.000835       0.000000
     -0.000356       0.000579       0.000000
     -0.000082       0.000718       0.000000
     -0.000109       0.000943       0.000000
     -0.000212       0.001069       0.000000
     -0.000194       0.000788       0.000000
     -0.000109       0.000943       0.000000
     -0.000168       0.001175       0.000000
     -0.000274       0.001374       0.000000
     -0.000212       0.001069       0.000000
     -0.000194       0.000788       0.000000
     -0.000212       0.001069       0.000000
     -0.000356       0.001183       0.000000
     -0.000352       0.000835       0.000000
     -0.000212       0.001069       0.000000
     -0.000274       0.001374       0.000000
     -0.000413       0.001598       0.000000
     -0.000356       0.001183       0.000000
     -0.000353       0.000393       0.000000
     -0.000356       0.000579       0.000000
     -0.000560       0.000592       0.000000
     -0.000526       0.000404       0.000000
     -0.000356       0.000579       0.000000
     -0.000352       0.000835       0.000000
     -0.000585       0.000857       0.000000
     -0.000560       0.000592       0.000000
     -0.000526       0.000404       0.000000
     -0.000560       0.000592       0.000000
     -0.000789       0.000619       0.000000
     -0.000700       0.000429       0.000000
     -0.000560       0.000592       0.000000
     -0.000585       0.000857       0.000000
     -0.000895       0.000885       0.000000
     -0.000789       0.000619       0.000000
     -0.000352       0.000835       0.000000
     -0.000351       0.000998       0.000000
     -0.000455       0.001022       0.000000
     -0.000457       0.000849       0.000000
     -0.000351       0.000998       0.000000
     -0.000356       0.001183       0.000000
     -0.000455       0.001229       0.000000
     -0.000455       0.001022       0.000000
     -0.000457       0.000849       0.000000
     -0.000455       0.001022       0.000000
     -0.000589       0.001035       0.000000
     -0.000585       0.000857       0.000000
     -0.000455       0.001022       0.000000
     -0.000455       0.001229       0.000000
     -0.000586       0.001260       0.000000
     -0.000589       0.001035       0.000000
     -0.000356       0.001183       0.000000
     -0.000375       0.001388       0.000000
     -0.000466       0.001470       0.000000
     -0.000455       0.001229       0.000000
     -0.000375       0.001388       0.000000
     -0.000413       0.001598       0.000000
     -0.000504       0.001727       0.000000
     -0.000466       0.001470       0.000000
     -0.000455       0.001229       0.000000
     -0.000466       0.001470       0.000000
     -0.000585       0.001546       0.000000
     -0.000586       0.001260       0.000000
     -0.000466       0.001470       0.000000
     -0.000504       0.001727       0.000000
     -0.000619       0.001881       0.000000
     -0.000585       0.001546       0.000000
     -0.000585       0.000857       0.000000
     -0.000589       0.001035       0.000000
     -0.000759       0.001044       0.000000
     -0.000734       0.000866       0.000000
     -0.000589       0.001035       0.000000
     -0.000586       0.001260       0.000000
     -0.000773       0.001273       0.000000
     -0.000759       0.001044       0.000000
     -0.000734       0.000866       0.000000
     -0.000759       0.001044       0.000000
     -0.000955       0.001062       0.000000
     -0.000895       0.000885       0.000000
     -0.000759       0.001044       0.000000
     -0.000773       0.001273       0.000000
     -0.001025       0.001289       0.000000
     -0.000955       0.001062       0.000000
     -0.000586       0.001260       0.000000
     -0.000584       0.001395       0.000000
     -0.000667       0.001410       0.000000
     -0.000671       0.001268       0.000000
     -0.000584       0.001395       0.000000
     -0.000585       0.001546       0.000000
     -0.000663       0.001577       0.000000
     -0.000667       0.001410       0.000000
     -0.000671       0.001268       0.000000
     -0.000667       0.001410       0.000000
     -0.000773       0.001418       0.000000
     -0.000773       0.001273       0.000000
     -0.000667       0.001410       0.000000
     -0.000663       0.001577       0.000000
     -0.000766       0.001598       0.000000
     -0.000773       0.001418       0.000000
     -0.000585       0.001546       0.000000
     -0.000595       0.001712       0.000000
     -0.000667       0.001770       0.000000
     -0.000663       0.001577       0.000000
     -0.000595       0.001712       0.000000
     -0.000619       0.001881       0.000000
     -0.000691       0.001975       0.000000
     -0.000667       0.001770       0.000000
     -0.000663       0.001577       0.000000
     -0.000667       0.001770       0.000000
     -0.000759       0.001827       0.000000
     -0.000766       0.001598       0.000000
     -0.000667       0.001770       0.000000
     -0.000691       0.001975       0.000000
     -0.000780       0.002094       0.000000
     -0.000759       0.001827       0.000000
     -0.000773       0.001273       0.000000
     -0.000773       0.001418       0.000000
     -0.000907       0.001422       0.000000
     -0.000893       0.001278       0.000000
     -0.000773       0.001418       0.000000
     -0.000766       0.001598       0.000000
     -0.000912       0.001606       0.000000
     -0.000907       0.001422       0.000000
     -0.000893       0.001278       0.000000
     -0.000907       0.001422       0.000000
     -0.001065       0.001434       0.000000
     -0.001025       0.001289       0.000000
     -0.000907       0.001422       0.000000
     -0.000912       0.001606       0.000000
     -0.001113       0.001618       0.000000
     -0.001065       0.001434       0.000000
     -0.000766       0.001598       0.000000
     -0.000759       0.001827       0.000000
     -0.000898       0.001868       0.000000
     -0.000912       0.001606       0.000000
     -0.000759       0.001827       0.000000
     -0.000780       0.002094       0.000000
     -0.000908       0.002272       0.000000
     -0.000898       0.001868       0.000000
     -0.000912       0.001606       0.000000
     -0.000898       0.001868       0.000000
     -0.001178       0.001892       0.000000
     -0.001113       0.001618       0.000000
     -0.000898       0.001868       0.000000
     -0.000908       0.002272       0.000000
     -0.001268       0.002790       0.000000
     -0.001178       0.001892       0.000000
      0.000000       0.000000       0.000000
      0.000000       0.000000       0.000000
      0.000018       0.000299       0.000000
      0.000078       0.000239       0.000000
      0.000000       0.000000       0.000000
      0.000000       0.000000       0.000000
     -0.000062       0.000345       0.000000
      0.000018       0.000299       0.000000
      0.000078       0.000239       0.000000
      0.000018       0.000299       0.000000
     -0.000047       0.000653       0.000000
      0.000065       0.000514       0.000000
      0.000018       0.000299       0.000000
     -0.000062       0.000345       0.000000
     -0.000194       0.000757       0.000000
     -0.000047       0.000653       0.000000
      0.000000       0.000000       0.000000
      0.000000       0.000000       0.000000
     -0.000154       0.000382       0.000000
     -0.000062       0.000345       0.000000
      0.000000       0.000000       0.000000
      0.000000       0.000000       0.000000
     -0.000260       0.000422       0.000000
     -0.000154       0.000382       0.000000
     -0.000062       0.000345       0.000000
     -0.000154       0.000382       0.000000
     -0.000359       0.000833       0.000000
     -0.000194       0.000757       0.000000
     -0.000154       0.000382       0.000000
     -0.000260       0.000422       0.000000
     -0.000541       0.000912       0.000000
     -0.000359       0.000833       0.000000
      0.000000       0.000000       0.000000
      0.000000       0.000000       0.000000
     -0.000406       0.000508       0.000000
     -0.000260       0.000422       0.000000
      0.000000       0.000000       0.000000
      0.000000       0.000000       0.000000
     -0.000628       0.000767       0.000000
     -0.000406       0.000508       0.000000
     -0.000260       0.000422       0.000000
     -0.000406       0.000508       0.000000
     -0.000744       0.001044       0.000000
     -0.000541       0.000912       0.000000
     -0.000406       0.000508       0.000000
     -0.000628       0.000767       0.000000
     -0.000957       0.001276       0.000000
     -0.000744       0.001044       0.000000
      0.000065       0.000514       0.000000
     -0.000047       0.000653       0.000000
     -0.000178       0.001067       0.000000
     -0.000019       0.000824       0.000000
     -0.000047       0.000653       0.000000
     -0.000194       0.000757       0.000000
     -0.000379       0.001230       0.000000
     -0.000178       0.001067       0.000000
     -0.000019       0.000824       0.000000
     -0.000178       0.001067       0.000000
     -0.000376       0.001557       0.000000
     -0.000168       0.001175       0.000000
     -0.000178       0.001067       0.000000
     -0.000379       0.001230       0.000000
     -0.000613       0.001757       0.000000
     -0.000376       0.001557       0.000000
     -0.000194       0.000757       0.000000
     -0.000359       0.000833       0.000000
     -0.000591       0.001332       0.000000
     -0.000379       0.001230       0.000000
     -0.000359       0.000833       0.000000
     -0.000541       0.000912       0.000000
     -0.000801       0.001422       0.000000
     -0.000591       0.001332       0.000000
     -0.000379       0.001230       0.000000
     -0.000591       0.001332       0.000000
     -0.000826       0.001850       0.000000
     -0.000613       0.001757       0.000000
     -0.000591       0.001332       0.000000
     -0.000801       0.001422       0.000000
     -0.001027       0.001921       0.000000
     -0.000826       0.001850       0.000000
     -0.000541       0.000912       0.000000
     -0.000744       0.001044       0.000000
     -0.001010       0.001545       0.000000
     -0.000801       0.001422       0.000000
     -0.000744       0.001044       0.000000
     -0.000957       0.001276       0.000000
     -0.001208       0.001732       0.000000
     -0.001010       0.001545       0.000000
     -0.000801       0.001422       0.000000
     -0.001010       0.001545       0.000000
     -0.001222       0.002013       0.000000
     -0.001027       0.001921       0.000000
     -0.001010       0.001545       0.000000
     -0.001208       0.001732       0.000000
     -0.001404       0.002151       0.000000
     -0.001222       0.002013       0.000000
     -0.000613       0.001757       0.000000
     -0.000826       0.001850       0.000000
     -0.001025       0.002351       0.000000
     -0.000868       0.002302       0.000000
     -0.000826       0.001850       0.000000
     -0.001027       0.001921       0.000000
     -0.001192       0.002394       0.000000
     -0.001025       0.002351       0.000000
     -0.000868       0.002302       0.000000
     -0.001025       0.002351       0.000000
     -0.001117       0.002815       0.000000
     -0.001011       0.002796       0.000000
     -0.001025       0.002351       0.000000
     -0.001192       0.002394       0.000000
     -0.001264       0.002844       0.000000
     -0.001117       0.002815       0.000000
     -0.001027       0.001921       0.000000
     -0.001222       0.002013       0.000000
     -0.001368       0.002452       0.000000
     -0.001192       0.002394       0.000000
     -0.001222       0.002013       0.000000
     -0.001404       0.002151       0.000000
     -0.001539       0.002536       0.000000
     -0.001368       0.002452       0.000000
     -0.001192       0.002394       0.000000
     -0.001368       0.002452       0.000000
     -0.001432       0.002876       0.000000
     -0.001264       0.002844       0.000000
     -0.001368       0.002452       0.000000
     -0.001539       0.002536       0.000000
     -0.001599       0.002903       0.000000
     -0.001432       0.002876       0.000000
     -0.000168       0.001175       0.000000
     -0.000261       0.001387       0.000000
     -0.000382       0.001645       0.000000
     -0.000274       0.001374       0.000000
     -0.000261       0.001387       0.000000
     -0.000376       0.001557       0.000000
     -0.000511       0.001841       0.000000
     -0.000382       0.001645       0.000000
     -0.000274       0.001374       0.000000
     -0.000382       0.001645       0.000000
     -0.000543       0.001952       0.000000
     -0.000413       0.001598       0.000000
     -0.000382       0.001645       0.000000
     -0.000511       0.001841       0.000000
     -0.000678       0.002157       0.000000
     -0.000543       0.001952       0.000000
     -0.000376       0.001557       0.000000
     -0.000497       0.001677       0.000000
     -0.000634       0.001962       0.000000
     -0.000511       0.001841       0.000000
     -0.000497       0.001677       0.000000
     -0.000613       0.001757       0.000000
     -0.000743       0.002032       0.000000
     -0.000634       0.001962       0.000000
     -0.000511       0.001841       0.000000
     -0.000634       0.001962       0.000000
     -0.000783       0.002254       0.000000