# vtk DataFile Version 2.0
time_10.vtk
ASCII
DATASET UNSTRUCTURED_GRID
POINTS  1152 float
      0.000000       0.000000       0.000000
      0.083333       0.000000       0.000000
      0.083333       0.083333       0.000000
      0.000000       0.083333       0.000000
      0.083333       0.000000       0.000000
      0.166667       0.000000       0.000000
      0.166667       0.083333       0.000000
      0.083333       0.083333       0.000000
      0.000000       0.083333       0.000000
      0.083333       0.083333       0.000000
      0.083333       0.166667       0.000000
      0.000000       0.166667       0.000000
      0.083333       0.083333       0.000000
      0.166667       0.083333       0.000000
      0.166667       0.166667       0.000000
      0.083333       0.166667       0.000000
      0.166667       0.000000       0.000000
      0.250000       0.000000       0.000000
      0.250000       0.083333       0.000000
      0.166667       0.083333       0.000000
      0.250000       0.000000       0.000000
      0.333333       0.000000       0.000000
      0.333333       0.083333       0.000000
      0.250000       0.083333       0.000000
      0.166667       0.083333       0.000000
      0.250000       0.083333       0.000000
      0.250000       0.166667       0.000000
      0.166667       0.166667       0.000000
      0.250000       0.083333       0.000000
      0.333333       0.083333       0.000000
      0.333333       0.166667       0.000000
      0.250000       0.166667       0.000000
      0.333333       0.000000       0.000000
      0.416667      -0.000000       0.000000
      0.416667       0.083333       0.000000
      0.333333       0.083333       0.000000
      0.416667      -0.000000       0.000000
      0.500000       0.000000       0.000000
      0.500000       0.083333       0.000000
      0.416667       0.083333       0.000000
      0.333333       0.083333       0.000000
      0.416667       0.083333       0.000000
      0.416667       0.166667       0.000000
      0.333333       0.166667       0.000000
      0.416667       0.083333       0.000000
      0.500000       0.083333       0.000000
      0.500000       0.166667       0.000000
      0.416667       0.166667       0.000000
      0.000000       0.166667       0.000000
      0.083333       0.166667       0.000000
      0.083333       0.250000       0.000000
      0.000000       0.250000       0.000000
      0.083333       0.166667       0.000000
      0.166667       0.166667       0.000000
      0.166667       0.250000       0.000000
      0.083333       0.250000       0.000000
      0.000000       0.250000       0.000000
      0.083333       0.250000       0.000000
      0.083333       0.333333       0.000000
      0.000000       0.333333       0.000000
      0.083333       0.250000       0.000000
      0.166667       0.250000       0.000000
      0.166667       0.333333       0.000000
      0.083333       0.333333       0.000000
      0.166667       0.166667       0.000000
      0.250000       0.166667       0.000000
      0.250000       0.250000       0.000000
      0.166667       0.250000       0.000000
      0.250000       0.166667       0.000000
      0.333333       0.166667       0.000000
      0.333333       0.250000       0.000000
      0.250000       0.250000       0.000000
      0.166667       0.250000       0.000000
      0.250000       0.250000       0.000000
      0.250000       0.333333       0.000000
      0.166667       0.333333       0.000000
      0.250000       0.250000       0.000000
      0.333333       0.250000       0.000000
      0.333333       0.333333       0.000000
      0.250000       0.333333       0.000000
      0.333333       0.166667       0.000000
      0.416667       0.166667       0.000000
      0.416667       0.250000       0.000000
      0.333333       0.250000       0.000000
      0.416667       0.166667       0.000000
      0.500000       0.166667       0.000000
      0.500000       0.250000       0.000000
      0.416667       0.250000       0.000000
      0.333333       0.250000       0.000000
      0.416667       0.250000       0.000000
      0.416667       0.333333       0.000000
      0.333333       0.333333       0.000000
      0.416667       0.250000       0.000000
      0.500000       0.250000       0.000000
      0.500000       0.333333       0.000000
      0.416667       0.333333       0.000000
      0.000000       0.333333       0.000000
      0.083333       0.333333       0.000000
      0.083333       0.416667       0.000000
     -0.000000       0.416667       0.000000
      0.083333       0.333333       0.000000
      0.166667       0.333333       0.000000
      0.166667       0.416667       0.000000
      0.083333       0.416667       0.000000
     -0.000000       0.416667       0.000000
      0.083333       0.416667       0.000000
      0.083333       0.500000       0.000000
      0.000000       0.500000       0.000000
      0.083333       0.416667       0.000000
      0.166667       0.416667       0.000000
      0.166667       0.500000       0.000000
      0.083333       0.500000       0.000000
      0.166667       0.333333       0.000000
      0.250000       0.333333       0.000000
      0.250000       0.416667       0.000000
      0.166667       0.416667       0.000000
      0.250000       0.333333       0.000000
      0.333333       0.333333       0.000000
      0.333333       0.416667       0.000000
      0.250000       0.416667       0.000000
      0.166667       0.416667       0.000000
      0.250000       0.416667       0.000000
      0.250000       0.500000       0.000000
      0.166667       0.500000       0.000000
      0.250000       0.416667       0.000000
      0.333333       0.416667       0.000000
      0.333333       0.500000       0.000000
      0.250000       0.500000       0.000000
      0.333333       0.333333       0.000000
      0.375000       0.333333       0.000000
      0.375000       0.375000       0.000000
      0.333333       0.375000       0.000000
      0.375000       0.333333       0.000000
      0.416667       0.333333       0.000000
      0.416667       0.375000       0.000000
      0.375000       0.375000       0.000000
      0.333333       0.375000       0.000000
      0.375000       0.375000       0.000000
      0.375000       0.416667       0.000000
      0.333333       0.416667       0.000000
      0.375000       0.375000       0.000000
      0.416667       0.375000       0.000000
      0.416667       0.416667       0.000000
      0.375000       0.416667       0.000000
      0.416667       0.333333       0.000000
      0.458333       0.333333       0.000000
      0.458333       0.375000       0.000000
      0.416667       0.375000       0.000000
      0.458333       0.333333       0.000000
      0.500000       0.333333       0.000000
      0.500000       0.375000       0.000000
      0.458333       0.375000       0.000000
      0.416667       0.375000       0.000000
      0.458333       0.375000       0.000000
      0.458333       0.416667       0.000000
      0.416667       0.416667       0.000000
      0.458333       0.375000       0.000000
      0.500000       0.375000       0.000000
      0.500000       0.416667       0.000000
      0.458333       0.416667       0.000000
      0.333333       0.416667       0.000000
      0.375000       0.416667       0.000000
      0.375000       0.458333       0.000000
      0.333333       0.458333       0.000000
      0.375000       0.416667       0.000000
      0.416667       0.416667       0.000000
      0.416667       0.458333       0.000000
      0.375000       0.458333       0.000000
      0.333333       0.458333       0.000000
      0.375000       0.458333       0.000000
      0.375000       0.500000       0.000000
      0.333333       0.500000       0.000000
      0.375000       0.458333       0.000000
      0.416667       0.458333       0.000000
      0.416667       0.500000       0.000000
      0.375000       0.500000       0.000000
      0.416667       0.416667       0.000000
      0.437500       0.416667       0.000000
      0.437500       0.437500       0.000000
      0.416667       0.437500       0.000000
      0.437500       0.416667       0.000000
      0.458333       0.416667       0.000000
      0.458333       0.437500       0.000000
      0.437500       0.437500       0.000000
      0.416667       0.437500       0.000000
      0.437500       0.437500       0.000000
      0.437500       0.458333       0.000000
      0.416667       0.458333       0.000000
      0.437500       0.437500       0.000000
      0.458333       0.437500       0.000000
      0.458333       0.458333       0.000000
      0.437500       0.458333       0.000000
      0.458333       0.416667       0.000000
      0.479167       0.416667       0.000000
      0.479167       0.437500       0.000000
      0.458333       0.437500       0.000000
      0.479167       0.416667       0.000000
      0.500000       0.416667       0.000000
      0.500000       0.437500       0.000000
      0.479167       0.437500       0.000000
      0.458333       0.437500       0.000000
      0.479167       0.437500       0.000000
      0.479167       0.458333       0.000000
      0.458333       0.458333       0.000000
      0.479167       0.437500       0.000000
      0.500000       0.437500       0.000000
      0.500000       0.458333       0.000000
      0.479167       0.458333       0.000000
      0.416667       0.458333       0.000000
      0.437500       0.458333       0.000000
      0.437500       0.479167       0.000000
      0.416667       0.479167       0.000000
      0.437500       0.458333       0.000000
      0.458333       0.458333       0.000000
      0.458333       0.479167       0.000000
      0.437500       0.479167       0.000000
      0.416667       0.479167       0.000000
      0.437500       0.479167       0.000000
      0.437500       0.500000       0.000000
      0.416667       0.500000       0.000000
[...]
POINT_DATA  1152
VECTORS U float 
      0.000000       0.000000       0.000000
      0.000000       0.000000       0.000000
      0.000073      -0.000016       0.000000
      0.000054      -0.000018       0.000000
      0.000000       0.000000       0.000000
      0.000000       0.000000       0.000000
      0.000093       0.000014       0.000000
      0.000073      -0.000016       0.000000
      0.000054      -0.000018       0.000000
      0.000073      -0.000016       0.000000
      0.000079      -0.000043       0.000000
      0.000054      -0.000088       0.000000
      0.000073      -0.000016       0.000000
      0.000093       0.000014       0.000000
      0.000102       0.000018       0.000000
      0.000079      -0.000043       0.000000
      0.000000       0.000000       0.000000
      0.000000       0.000000       0.000000
      0.000111       0.000055       0.000000
      0.000093       0.000014       0.000000
      0.000000       0.000000       0.000000
      0.000000       0.000000       0.000000
      0.000121       0.000108       0.000000
      0.000111       0.000055       0.000000
      0.000093       0.000014       0.000000
      0.000111       0.000055       0.000000
      0.000126       0.000099       0.000000
      0.000102       0.000018       0.000000
      0.000111       0.000055       0.000000
      0.000121       0.000108       0.000000
      0.000141       0.000212       0.000000
      0.000126       0.000099       0.000000
      0.000000       0.000000       0.000000
      0.000000       0.000000       0.000000
      0.000113       0.000173       0.000000
      0.000121       0.000108       0.000000
      0.000000       0.000000       0.000000
      0.000000       0.000000       0.000000
      0.000079       0.000241       0.000000
      0.000113       0.000173       0.000000
      0.000121       0.000108       0.000000
      0.000113       0.000173       0.000000
      0.000127       0.000358       0.000000
      0.000141       0.000212       0.000000
      0.000113       0.000173       0.000000
      0.000079       0.000241       0.000000
      0.000065       0.000517       0.000000
      0.000127       0.000358       0.000000
      0.000054      -0.000088       0.000000
      0.000079      -0.000043       0.000000
      0.000005      -0.000074       0.000000
     -0.000018      -0.000166       0.000000
      0.000079      -0.000043       0.000000
      0.000102       0.000018       0.000000
      0.000026       0.000014       0.000000
      0.000005      -0.000074       0.000000
     -0.000018      -0.000166       0.000000
      0.000005      -0.000074       0.000000
     -0.000136      -0.000101       0.000000
     -0.000151      -0.000226       0.000000
      0.000005      -0.000074       0.000000
      0.000026       0.000014       0.000000
     -0.000125       0.000007       0.000000
     -0.000136      -0.000101       0.000000
      0.000102       0.000018       0.000000
      0.000126       0.000099       0.000000
      0.000052       0.000130       0.000000
      0.000026       0.000014       0.000000
      0.000126       0.000099       0.000000
      0.000141       0.000212       0.000000
      0.000072       0.000304       0.000000
      0.000052       0.000130       0.000000
      0.000026       0.000014       0.000000
      0.000052       0.000130       0.000000
     -0.000109       0.000145       0.000000
     -0.000125       0.000007       0.000000
      0.000052       0.000130       0.000000
      0.000072       0.000304       0.000000
     -0.000088       0.000366       0.000000
     -0.000109       0.000145       0.000000
      0.000141       0.000212       0.000000
      0.000127       0.000358       0.000000
      0.000061       0.000547       0.000000
      0.000072       0.000304       0.000000
      0.000127       0.000358       0.000000
      0.000065       0.000517       0.000000
     -0.000020       0.000828       0.000000
      0.000061       0.000547       0.000000
      0.000072       0.000304       0.000000
      0.000061       0.000547       0.000000
     -0.000084       0.000721       0.000000
     -0.000088       0.000366       0.000000
      0.000061       0.000547       0.000000
     -0.000020       0.000828       0.000000
     -0.000170       0.001181       0.000000
     -0.000084       0.000721       0.000000
     -0.000151      -0.000226       0.000000
     -0.000136      -0.000101       0.000000
     -0.000311      -0.000115       0.000000
     -0.000313      -0.000253       0.000000
     -0.000136      -0.000101       0.000000
     -0.000125       0.000007       0.000000
     -0.000320       0.000004       0.000000
     -0.000311      -0.000115       0.000000
     -0.000313      -0.000253       0.000000
     -0.000311      -0.000115       0.000000
     -0.000468      -0.000114       0.000000
     -0.000466      -0.000255       0.000000
     -0.000311      -0.000115       0.000000
     -0.000320       0.000004       0.000000
     -0.000497       0.000017       0.000000
     -0.000468      -0.000114       0.000000
     -0.000125       0.000007       0.000000
     -0.000109       0.000145       0.000000
     -0.000339       0.000152       0.000000
     -0.000320       0.000004       0.000000
     -0.000109       0.000145       0.000000
     -0.000088       0.000366       0.000000
     -0.000357       0.000393       0.000000
     -0.000339       0.000152       0.000000
     -0.000320       0.000004       0.000000
     -0.000339       0.000152       0.000000
     -0.000574       0.000178       0.000000
     -0.000497       0.000017       0.000000
     -0.000339       0.000152       0.000000
     -0.000357       0.000393       0.000000
     -0.000706       0.000430       0.000000
     -0.000574       0.000178       0.000000
     -0.000088       0.000366       0.000000
     -0.000081       0.000526       0.000000
     -0.000201       0.000560       0.000000
     -0.000208       0.000383       0.000000
     -0.000081       0.000526       0.000000
     -0.000084       0.000721       0.000000
     -0.000198       0.000791       0.000000
     -0.000201       0.000560       0.000000
     -0.000208       0.000383       0.000000
     -0.000201       0.000560       0.000000
     -0.000361       0.000580       0.000000
     -0.000357       0.000393       0.000000
     -0.000201       0.000560       0.000000
     -0.000198       0.000791       0.000000
     -0.000357       0.000838       0.000000
     -0.000361       0.000580       0.000000
     -0.000084       0.000721       0.000000
     -0.000111       0.000947       0.000000
     -0.000216       0.001073       0.000000
     -0.000198       0.000791       0.000000
     -0.000111       0.000947       0.000000
     -0.000170       0.001181       0.000000
     -0.000277       0.001380       0.000000
     -0.000216       0.001073       0.000000
     -0.000198       0.000791       0.000000
     -0.000216       0.001073       0.000000
     -0.000361       0.001187       0.000000
     -0.000357       0.000838       0.000000
     -0.000216       0.001073       0.000000
     -0.000277       0.001380       0.000000
     -0.000418       0.001604       0.000000
     -0.000361       0.001187       0.000000
     -0.000357       0.000393       0.000000
     -0.000361       0.000580       0.000000
     -0.000566       0.000593       0.000000
     -0.000531       0.000405       0.000000
     -0.000361       0.000580       0.000000
     -0.000357       0.000838       0.000000
     -0.000591       0.000860       0.000000
     -0.000566       0.000593       0.000000
     -0.000531       0.000405       0.000000
     -0.000566       0.000593       0.000000
     -0.000796       0.000621       0.000000
     -0.000706       0.000430       0.000000
     -0.000566       0.000593       0.000000
     -0.000591       0.000860       0.000000
     -0.000903       0.000888       0.000000
     -0.000796       0.000621       0.000000
     -0.000357       0.000838       0.000000
     -0.000356       0.001001       0.000000
     -0.000461       0.001024       0.000000
     -0.000463       0.000851       0.000000
     -0.000356       0.001001       0.000000
     -0.000361       0.001187       0.000000
     -0.000461       0.001232       0.000000
     -0.000461       0.001024       0.000000
     -0.000463       0.000851       0.000000
     -0.000461       0.001024       0.000000
     -0.000596       0.001038       0.000000
     -0.000591       0.000860       0.000000
     -0.000461       0.001024       0.000000
     -0.000461       0.001232       0.000000
     -0.000593       0.001263       0.000000
     -0.000596       0.001038       0.000000
     -0.000361       0.001187       0.000000
     -0.000379       0.001393       0.000000
     -0.000472       0.001475       0.000000
     -0.000461       0.001232       0.000000
     -0.000379       0.001393       0.000000
     -0.000418       0.001604       0.000000
     -0.000510       0.001734       0.000000
     -0.000472       0.001475       0.000000
     -0.000461       0.001232       0.000000
     -0.000472       0.001475       0.000000
     -0.000592       0.001550       0.000000
     -0.000593       0.001263       0.000000
     -0.000472       0.001475       0.000000
     -0.000510       0.001734       0.000000
     -0.000626       0.001886       0.000000
     -0.000592       0.001550       0.000000
     -0.000591       0.000860       0.000000
     -0.000596       0.001038       0.000000
     -0.000766       0.001047       0.000000
     -0.000742       0.000869       0.000000
     -0.000596       0.001038       0.000000
     -0.000593       0.001263       0.000000
     -0.000781       0.001276       0.000000
     -0.000766       0.001047       0.000000
     -0.000742       0.000869       0.000000
     -0.000766       0.001047       0.000000
     -0.000964       0.001065       0.000000
     -0.000903       0.000888       0.000000
     -0.000766       0.001047       0.000000
     -0.000781       0.001276       0.000000
     -0.001034       0.001294       0.000000
     -0.000964       0.001065       0.000000
     -0.000593       0.001263       0.000000
     -0.000591       0.001398       0.000000
     -0.000675       0.001414       0.000000
     -0.000678       0.001271       0.000000
     -0.000591       0.001398       0.000000
     -0.000592       0.001550       0.000000
     -0.000671       0.001581       0.000000
     -0.000675       0.001414       0.000000
     -0.000678       0.001271       0.000000
     -0.000675       0.001414       0.000000
     -0.000781       0.001422       0.000000
     -0.000781       0.001276       0.000000
     -0.000675       0.001414       0.000000
     -0.000671       0.001581       0.000000
     -0.000774       0.001602       0.000000
     -0.000781       0.001422       0.000000
     -0.000592       0.001550       0.000000
     -0.000602       0.001716       0.000000
     -0.000675       0.001775       0.000000
     -0.000671       0.001581       0.000000
     -0.000602       0.001716       0.000000
     -0.000626       0.001886       0.000000
     -0.000698       0.001980       0.000000
     -0.000675       0.001775       0.000000
     -0.000671       0.001581       0.000000
     -0.000675       0.001775       0.000000
     -0.000767       0.001831       0.000000
     -0.000774       0.001602       0.000000
     -0.000675       0.001775       0.000000
     -0.000698       0.001980       0.000000
     -0.000788       0.002099       0.000000
     -0.000767       0.001831       0.000000
     -0.000781       0.001276       0.000000
     -0.000781       0.001422       0.000000
     -0.000916       0.001426       0.000000
     -0.000902       0.001281       0.000000
     -0.000781       0.001422       0.000000
     -0.000774       0.001602       0.000000
     -0.000921       0.001609       0.000000
     -0.000916       0.001426       0.000000
     -0.000902       0.001281       0.000000
     -0.000916       0.001426       0.000000
     -0.001074       0.001439       0.000000
     -0.001034       0.001294       0.000000
     -0.000916       0.001426       0.000000
     -0.000921       0.001609       0.000000
     -0.001122       0.001623       0.000000
     -0.001074       0.001439       0.000000
     -0.000774       0.001602       0.000000
     -0.000767       0.001831       0.000000
     -0.000906       0.001872       0.000000
     -0.000921       0.001609       0.000000
     -0.000767       0.001831       0.000000
     -0.000788       0.002099       0.000000
     -0.000916       0.002280       0.000000
     -0.000906       0.001872       0.000000
     -0.000921       0.001609       0.000000
     -0.000906       0.001872       0.000000
     -0.001189       0.001900       0.000000
     -0.001122       0.001623       0.000000
     -0.000906       0.001872       0.000000
     -0.000916       0.002280       0.000000
     -0.001280       0.002820       0.000000
     -0.001189       0.001900       0.000000
      0.000000       0.000000       0.000000
      0.000000       0.000000       0.000000
      0.000018       0.000301       0.000000
      0.000079       0.000241       0.000000
      0.000000       0.000000       0.000000
      0.000000       0.000000       0.000000
     -0.000063       0.000348       0.000000
      0.000018       0.000301       0.000000
      0.000079       0.000241       0.000000
      0.000018       0.000301       0.000000
     -0.000047       0.000658       0.000000
      0.000065       0.000517       0.000000
      0.000018       0.000301       0.000000
     -0.000063       0.000348       0.000000
     -0.000195       0.000763       0.000000
     -0.000047       0.000658       0.000000
      0.000000       0.000000       0.000000
      0.000000       0.000000       0.000000
     -0.000155       0.000385       0.000000
     -0.000063       0.000348       0.000000
      0.000000       0.000000       0.000000
      0.000000       0.000000       0.000000
     -0.000262       0.000426       0.000000
     -0.000155       0.000385       0.000000
     -0.000063       0.000348       0.000000
     -0.000155       0.000385       0.000000
     -0.000363       0.000841       0.000000
     -0.000195       0.000763       0.000000
     -0.000155       0.000385       0.000000
     -0.000262       0.000426       0.000000
     -0.000546       0.000922       0.000000
     -0.000363       0.000841       0.000000
      0.000000       0.000000       0.000000
      0.000000       0.000000       0.000000
     -0.000410       0.000514       0.000000
     -0.000262       0.000426       0.000000
      0.000000       0.000000       0.000000
      0.000000       0.000000       0.000000
     -0.000635       0.000776       0.000000
     -0.000410       0.000514       0.000000
     -0.000262       0.000426       0.000000
     -0.000410       0.000514       0.000000
     -0.000752       0.001056       0.000000
     -0.000546       0.000922       0.000000
     -0.000410       0.000514       0.000000
     -0.000635       0.000776       0.000000
     -0.000967       0.001290       0.000000
     -0.000752       0.001056       0.000000
      0.000065       0.000517       0.000000
     -0.000047       0.000658       0.000000
     -0.000179       0.001074       0.000000
     -0.000020       0.000828       0.000000
     -0.000047       0.000658       0.000000
     -0.000195       0.000763       0.000000
     -0.000383       0.001241       0.000000
     -0.000179       0.001074       0.000000
     -0.000020       0.000828       0.000000
     -0.000179       0.001074       0.000000
     -0.000380       0.001568       0.000000
     -0.000170       0.001181       0.000000
     -0.000179       0.001074       0.000000
     -0.000383       0.001241       0.000000
     -0.000619       0.001774       0.000000
     -0.000380       0.001568       0.000000
     -0.000195       0.000763       0.000000
     -0.000363       0.000841       0.000000
     -0.000596       0.001345       0.000000
     -0.000383       0.001241       0.000000
     -0.000363       0.000841       0.000000
     -0.000546       0.000922       0.000000
     -0.000810       0.001437       0.000000
     -0.000596       0.001345       0.000000
     -0.000383       0.001241       0.000000
     -0.000596       0.001345       0.000000
     -0.000835       0.001869       0.000000
     -0.000619       0.001774       0.000000
     -0.000596       0.001345       0.000000
     -0.000810       0.001437       0.000000
     -0.001038       0.001941       0.000000
     -0.000835       0.001869       0.000000
     -0.000546       0.000922       0.000000
     -0.000752       0.001056       0.000000
     -0.001021       0.001562       0.000000
     -0.000810       0.001437       0.000000
     -0.000752       0.001056       0.000000
     -0.000967       0.001290       0.000000
     -0.001220       0.001751       0.000000
     -0.001021       0.001562       0.000000
     -0.000810       0.001437       0.000000
     -0.001021       0.001562       0.000000
     -0.001235       0.002034       0.000000
     -0.001038       0.001941       0.000000
     -0.001021       0.001562       0.000000
     -0.001220       0.001751       0.000000
     -0.001419       0.002174       0.000000
     -0.001235       0.002034       0.000000
     -0.000619       0.001774       0.000000
     -0.000835       0.001869       0.000000
     -0.001037       0.002375       0.000000
     -0.000878       0.002325       0.000000
     -0.000835       0.001869       0.000000
     -0.001038       0.001941       0.000000
     -0.001206       0.002419       0.000000
     -0.001037       0.002375       0.000000
     -0.000878       0.002325       0.000000
     -0.001037       0.002375       0.000000
     -0.001130       0.002844       0.000000
     -0.001023       0.002825       0.000000
     -0.001037       0.002375       0.000000
     -0.001206       0.002419       0.000000
     -0.001278       0.002873       0.000000
     -0.001130       0.002844       0.000000
     -0.001038       0.001941       0.000000
     -0.001235       0.002034       0.000000
     -0.001384       0.002478       0.000000
     -0.001206       0.002419       0.000000
     -0.001235       0.002034       0.000000
     -0.001419       0.002174       0.000000
     -0.001556       0.002562       0.000000
     -0.001384       0.002478       0.000000
     -0.001206       0.002419       0.000000
     -0.001384       0.002478       0.000000
     -0.001448       0.002906       0.000000
     -0.001278       0.002873       0.000000
     -0.001384       0.002478       0.000000
     -0.001556       0.002562       0.000000
     -0.001617       0.002933       0.000000
     -0.001448       0.002906       0.000000
     -0.000170       0.001181       0.000000
     -0.000264       0.001396       0.000000
     -0.000385       0.001656       0.000000
     -0.000277       0.001380       0.000000
     -0.000264       0.001396       0.000000
     -0.000380       0.001568       0.000000
     -0.000516       0.001856       0.000000
     -0.000385       0.001656       0.000000
     -0.000277       0.001380       0.000000
     -0.000385       0.001656       0.000000
     -0.000548       0.001965       0.000000
     -0.000418       0.001604       0.000000
     -0.000385       0.001656       0.000000
     -0.000516       0.001856       0.000000
     -0.000685       0.002175       0.000000
     -0.000548       0.001965       0.000000
     -0.000380       0.001568       0.000000
     -0.000501       0.001691       0.000000
     -0.000640       0.001980       0.000000
     -0.000516       0.001856       0.000000
     -0.000501       0.001691       0.000000
     -0.000619       0.001774       0.000000
     -0.000751       0.002052       0.000000
     -0.000640       0.001980       0.000000
     -0.000516       0.001856       0.000000
     -0.000640       0.001980       0.000000
     -0.000792       0.002276       0.000000