# vtk DataFile Version 2.0
time_10.vtk
ASCII
DATASET UNSTRUCTURED_GRID
POINTS  1152 float
      0.000000       0.000000       0.000000
      0.083333       0.000000       0.000000
      0.083333       0.083333       0.000000
      0.000000       0.083333       0.000000
      0.083333       0.000000       0.000000
      0.166667       0.000000       0.000000
      0.166667       0.083333       0.000000
      0.083333       0.083333       0.000000
      0.000000       0.083333       0.000000
      0.083333       0.083333       0.000000
      0.083333       0.166667       0.000000
      0.000000       0.166667       0.000000
      0.083333       0.083333       0.000000
      0.166667       0.083333       0.000000
      0.166667       0.166667       0.000000
      0.083333       0.166667       0.000000
      0.166667       0.000000       0.000000
      0.250000       0.000000       0.000000
      0.250000       0.083333       0.000000
      0.166667       0.083333       0.000000
      0.250000       0.000000       0.000000
      0.333333       0.000000       0.000000
      0.333333       0.083333       0.000000
      0.250000       0.083333       0.000000
      0.166667       0.083333       0.000000
      0.250000       0.083333       0.000000
      0.250000       0.166667       0.000000
      0.166667       0.166667       0.000000
      0.250000       0.083333       0.000000
      0.333333       0.083333       0.000000
      0.333333       0.166667       0.000000
      0.250000       0.166667       0.000000
      0.333333       0.000000       0.000000
      0.416667      -0.000000       0.000000
      0.416667       0.083333       0.000000
      0.333333       0.083333       0.000000
      0.416667      -0.000000       0.000000
      0.500000       0.000000       0.000000
      0.500000       0.083333       0.000000
      0.416667       0.083333       0.000000
      0.333333       0.083333       0.000000
      0.416667       0.083333       0.000000
      0.416667       0.166667       0.000000
      0.333333       0.166667       0.000000
      0.416667       0.083333       0.000000
      0.500000       0.083333       0.000000
      0.500000       0.166667       0.000000
      0.416667       0.166667       0.000000
      0.000000       0.166667       0.000000
      0.083333       0.166667       0.000000
      0.083333       0.250000       0.000000
      0.000000       0.250000       0.000000
      0.083333       0.166667       0.000000
      0.166667       0.166667       0.000000
      0.166667       0.250000       0.000000
      0.083333       0.250000       0.000000
      0.000000       0.250000       0.000000
      0.083333       0.250000       0.000000
      0.083333       0.333333       0.000000
      0.000000       0.333333       0.000000
      0.083333       0.250000       0.000000
      0.166667       0.250000       0.000000
      0.166667       0.333333       0.000000
      0.083333       0.333333       0.000000
      0.166667       0.166667       0.000000
      0.250000       0.166667       0.000000
      0.250000       0.250000       0.000000
      0.166667       0.250000       0.000000
      0.250000       0.166667       0.000000
      0.333333       0.166667       0.000000
      0.333333       0.250000       0.000000
      0.250000       0.250000       0.000000
      0.166667       0.250000       0.000000
      0.250000       0.250000       0.000000
      0.250000       0.333333       0.000000
      0.166667       0.333333       0.000000
      0.250000       0.250000       0.000000
      0.333333       0.250000       0.000000
      0.333333       0.333333       0.000000
      0.250000       0.333333       0.000000
      0.333333       0.166667       0.000000
      0.416667       0.166667       0.000000
      0.416667       0.250000       0.000000
      0.333333       0.250000       0.000000
      0.416667       0.166667       0.000000
      0.500000       0.166667       0.000000
      0.500000       0.250000       0.000000
      0.416667       0.250000       0.000000
      0.333333       0.250000       0.000000
      0.416667       0.250000       0.000000
      0.416667       0.333333       0.000000
      0.333333       0.333333       0.000000
      0.416667       0.250000       0.000000
      0.500000       0.250000       0.000000
      0.500000       0.333333       0.000000
      0.416667       0.333333       0.000000
      0.000000       0.333333       0.000000
      0.083333       0.333333       0.000000
      0.083333       0.416667       0.000000
     -0.000000       0.416667       0.000000
      0.083333       0.333333       0.000000
      0.166667       0.333333       0.000000
      0.166667       0.416667       0.000000
      0.083333       0.416667       0.000000
     -0.000000       0.416667       0.000000
      0.083333       0.416667       0.000000
      0.083333       0.500000       0.000000
      0.000000       0.500000       0.000000
      0.083333       0.416667       0.000000
      0.166667       0.416667       0.000000
      0.166667       0.500000       0.000000
      0.083333       0.500000       0.000000
      0.166667       0.333333       0.000000
      0.250000       0.333333       0.000000
      0.250000       0.416667       0.000000
      0.166667       0.416667       0.000000
      0.250000       0.333333       0.000000
      0.333333       0.333333       0.000000
      0.333333       0.416667       0.000000
      0.250000       0.416667       0.000000
      0.166667       0.416667       0.000000
      0.250000       0.416667       0.000000
      0.250000       0.500000       0.000000
      0.166667       0.500000       0.000000
      0.250000       0.416667       0.000000
      0.333333       0.416667       0.000000
      0.333333       0.500000       0.000000
      0.250000       0.500000       0.000000
      0.333333       0.333333       0.000000
      0.375000       0.333333       0.000000
      0.375000       0.375000       0.000000
      0.333333       0.375000       0.000000
      0.375000       0.333333       0.000000
      0.416667       0.333333       0.000000
      0.416667       0.375000       0.000000
      0.375000       0.375000       0.000000
      0.333333       0.375000       0.000000
      0.375000       0.375000       0.000000
      0.375000       0.416667       0.000000
      0.333333       0.416667       0.000000
      0.375000       0.375000       0.000000
      0.416667       0.375000       0.000000
      0.416667       0.416667       0.000000
      0.375000       0.416667       0.000000
      0.416667       0.333333       0.000000
      0.458333       0.333333       0.000000
      0.458333       0.375000       0.000000
      0.416667       0.375000       0.000000
      0.458333       0.333333       0.000000
      0.500000       0.333333       0.000000
      0.500000       0.375000       0.000000
      0.458333       0.375000       0.000000
      0.416667       0.375000       0.000000
      0.458333       0.375000       0.000000
      0.458333       0.416667       0.000000
      0.416667       0.416667       0.000000
      0.458333       0.375000       0.000000
      0.500000       0.375000       0.000000
      0.500000       0.416667       0.000000
      0.458333       0.416667       0.000000
      0.333333       0.416667       0.000000
      0.375000       0.416667       0.000000
      0.375000       0.458333       0.000000
      0.333333       0.458333       0.000000
      0.375000       0.416667       0.000000
      0.416667       0.416667       0.000000
      0.416667       0.458333       0.000000
      0.375000       0.458333       0.000000
      0.333333       0.458333       0.000000
      0.375000       0.458333       0.000000
      0.375000       0.500000       0.000000
      0.333333       0.500000       0.000000
      0.375000       0.458333       0.000000
      0.416667       0.458333       0.000000
      0.416667       0.500000       0.000000
      0.375000       0.500000       0.000000
      0.416667       0.416667       0.000000
      0.437500       0.416667       0.000000
      0.437500       0.437500       0.000000
      0.416667       0.437500       0.000000
      0.437500       0.416667       0.000000
      0.458333       0.416667       0.000000
      0.458333       0.437500       0.000000
      0.437500       0.437500       0.000000
      0.416667       0.437500       0.000000
      0.437500       0.437500       0.000000
      0.437500       0.458333       0.000000
      0.416667       0.458333       0.000000
      0.437500       0.437500       0.000000
      0.458333       0.437500       0.000000
      0.458333       0.458333       0.000000
      0.437500       0.458333       0.000000
      0.458333       0.416667       0.000000
      0.479167       0.416667       0.000000
      0.479167       0.437500       0.000000
      0.458333       0.437500       0.000000
      0.479167       0.416667       0.000000
      0.500000       0.416667       0.000000
      0.500000       0.437500       0.000000
      0.479167       0.437500       0.000000
      0.458333       0.437500       0.000000
      0.479167       0.437500       0.000000
      0.479167       0.458333       0.000000
      0.458333       0.458333       0.000000
      0.479167       0.437500       0.000000
      0.500000       0.437500       0.000000
      0.500000       0.458333       0.000000
      0.479167       0.458333       0.000000
      0.416667       0.458333       0.000000
      0.437500       0.458333       0.000000
      0.437500       0.479167       0.000000
      0.416667       0.479167       0.000000
      0.437500       0.458333       0.000000
      0.458333       0.458333       0.000000
      0.458333       0.479167       0.000000
      0.437500       0.479167       0.000000
      0.416667       0.479167       0.000000
      0.437500       0.479167       0.000000
      0.437500       0.500000       0.000000
      0.416667       0.500000       0.000000
[...]
POINT_DATA  1152
VECTORS U float 
      0.000000       0.000000       0.000000
      0.000000       0.000000       0.000000
      0.000073      -0.000015       0.000000
      0.000054      -0.000016       0.000000
      0.000000       0.000000       0.000000
      0.000000       0.000000       0.000000
      0.000092       0.000015       0.000000
      0.000073      -0.000015       0.000000
      0.000054      -0.000016       0.000000
      0.000073      -0.000015       0.000000
      0.000081      -0.000040       0.000000
      0.000057      -0.000083       0.000000
      0.000073      -0.000015       0.000000
      0.000092       0.000015       0.000000
      0.000103       0.000019       0.000000
      0.000081      -0.000040       0.000000
      0.000000       0.000000       0.000000
      0.000000       0.000000       0.000000
      0.000110       0.000055       0.000000
      0.000092       0.000015       0.000000
      0.000000       0.000000       0.000000
      0.000000       0.000000       0.000000
      0.000119       0.000107       0.000000
      0.000110       0.000055       0.000000
      0.000092       0.000015       0.000000
      0.000110       0.000055       0.000000
      0.000126       0.000099       0.000000
      0.000103       0.000019       0.000000
      0.000110       0.000055       0.000000
      0.000119       0.000107       0.000000
      0.000140       0.000209       0.000000
      0.000126       0.000099       0.000000
      0.000000       0.000000       0.000000
      0.000000       0.000000       0.000000
      0.000111       0.000170       0.000000
      0.000119       0.000107       0.000000
      0.000000       0.000000       0.000000
      0.000000       0.000000       0.000000
      0.000077       0.000235       0.000000
      0.000111       0.000170       0.000000
      0.000119       0.000107       0.000000
      0.000111       0.000170       0.000000
      0.000125       0.000352       0.000000
      0.000140       0.000209       0.000000
      0.000111       0.000170       0.000000
      0.000077       0.000235       0.000000
      0.000064       0.000506       0.000000
      0.000125       0.000352       0.000000
      0.000057      -0.000083       0.000000
      0.000081      -0.000040       0.000000
      0.000009      -0.000070       0.000000
     -0.000013      -0.000159       0.000000
      0.000081      -0.000040       0.000000
      0.000103       0.000019       0.000000
      0.000030       0.000016       0.000000
      0.000009      -0.000070       0.000000
     -0.000013      -0.000159       0.000000
      0.000009      -0.000070       0.000000
     -0.000128      -0.000096       0.000000
     -0.000143      -0.000218       0.000000
      0.000009      -0.000070       0.000000
      0.000030       0.000016       0.000000
     -0.000117       0.000009       0.000000
     -0.000128      -0.000096       0.000000
      0.000103       0.000019       0.000000
      0.000126       0.000099       0.000000
      0.000055       0.000130       0.000000
      0.000030       0.000016       0.000000
      0.000126       0.000099       0.000000
      0.000140       0.000209       0.000000
      0.000074       0.000300       0.000000
      0.000055       0.000130       0.000000
      0.000030       0.000016       0.000000
      0.000055       0.000130       0.000000
     -0.000101       0.000145       0.000000
     -0.000117       0.000009       0.000000
      0.000055       0.000130       0.000000
      0.000074       0.000300       0.000000
     -0.000080       0.000363       0.000000
     -0.000101       0.000145       0.000000
      0.000140       0.000209       0.000000
      0.000125       0.000352       0.000000
      0.000062       0.000538       0.000000
      0.000074       0.000300       0.000000
      0.000125       0.000352       0.000000
      0.000064       0.000506       0.000000
     -0.000018       0.000812       0.000000
      0.000062       0.000538       0.000000
      0.000074       0.000300       0.000000
      0.000062       0.000538       0.000000
     -0.000077       0.000711       0.000000
     -0.000080       0.000363       0.000000
      0.000062       0.000538       0.000000
     -0.000018       0.000812       0.000000
     -0.000163       0.001159       0.000000
     -0.000077       0.000711       0.000000
     -0.000143      -0.000218       0.000000
     -0.000128      -0.000096       0.000000
     -0.000298      -0.000110       0.000000
     -0.000300      -0.000244       0.000000
     -0.000128      -0.000096       0.000000
     -0.000117       0.000009       0.000000
     -0.000307       0.000006       0.000000
     -0.000298      -0.000110       0.000000
     -0.000300      -0.000244       0.000000
     -0.000298      -0.000110       0.000000
     -0.000452      -0.000109       0.000000
     -0.000450      -0.000246       0.000000
     -0.000298      -0.000110       0.000000
     -0.000307       0.000006       0.000000
     -0.000481       0.000019       0.000000
     -0.000452      -0.000109       0.000000
     -0.000117       0.000009       0.000000
     -0.000101       0.000145       0.000000
     -0.000325       0.000152       0.000000
     -0.000307       0.000006       0.000000
     -0.000101       0.000145       0.000000
     -0.000080       0.000363       0.000000
     -0.000343       0.000390       0.000000
     -0.000325       0.000152       0.000000
     -0.000307       0.000006       0.000000
     -0.000325       0.000152       0.000000
     -0.000555       0.000177       0.000000
     -0.000481       0.000019       0.000000
     -0.000325       0.000152       0.000000
     -0.000343       0.000390       0.000000
     -0.000685       0.000425       0.000000
     -0.000555       0.000177       0.000000
     -0.000080       0.000363       0.000000
     -0.000073       0.000519       0.000000
     -0.000190       0.000554       0.000000
     -0.000197       0.000380       0.000000
     -0.000073       0.000519       0.000000
     -0.000077       0.000711       0.000000
     -0.000187       0.000780       0.000000
     -0.000190       0.000554       0.000000
     -0.000197       0.000380       0.000000
     -0.000190       0.000554       0.000000
     -0.000345       0.000574       0.000000
     -0.000343       0.000390       0.000000
     -0.000190       0.000554       0.000000
     -0.000187       0.000780       0.000000
     -0.000341       0.000828       0.000000
     -0.000345       0.000574       0.000000
     -0.000077       0.000711       0.000000
     -0.000104       0.000931       0.000000
     -0.000205       0.001057       0.000000
     -0.000187       0.000780       0.000000
     -0.000104       0.000931       0.000000
     -0.000163       0.001159       0.000000
     -0.000266       0.001355       0.000000
     -0.000205       0.001057       0.000000
     -0.000187       0.000780       0.000000
     -0.000205       0.001057       0.000000
     -0.000345       0.001172       0.000000
     -0.000341       0.000828       0.000000
     -0.000205       0.001057       0.000000
     -0.000266       0.001355       0.000000
     -0.000402       0.001579       0.000000
     -0.000345       0.001172       0.000000
     -0.000343       0.000390       0.000000
     -0.000345       0.000574       0.000000
     -0.000546       0.000586       0.000000
     -0.000513       0.000401       0.000000
     -0.000345       0.000574       0.000000
     -0.000341       0.000828       0.000000
     -0.000570       0.000849       0.000000
     -0.000546       0.000586       0.000000
     -0.000513       0.000401       0.000000
     -0.000546       0.000586       0.000000
     -0.000772       0.000613       0.000000
     -0.000685       0.000425       0.000000
     -0.000546       0.000586       0.000000
     -0.000570       0.000849       0.000000
     -0.000877       0.000876       0.000000
     -0.000772       0.000613       0.000000
     -0.000341       0.000828       0.000000
     -0.000340       0.000988       0.000000
     -0.000442       0.001012       0.000000
     -0.000444       0.000841       0.000000
     -0.000340       0.000988       0.000000
     -0.000345       0.001172       0.000000
     -0.000441       0.001217       0.000000
     -0.000442       0.001012       0.000000
     -0.000444       0.000841       0.000000
     -0.000442       0.001012       0.000000
     -0.000573       0.001026       0.000000
     -0.000570       0.000849       0.000000
     -0.000442       0.001012       0.000000
     -0.000441       0.001217       0.000000
     -0.000570       0.001248       0.000000
     -0.000573       0.001026       0.000000
     -0.000345       0.001172       0.000000
     -0.000364       0.001373       0.000000
     -0.000452       0.001456       0.000000
     -0.000441       0.001217       0.000000
     -0.000364       0.001373       0.000000
     -0.000402       0.001579       0.000000
     -0.000491       0.001708       0.000000
     -0.000452       0.001456       0.000000
     -0.000441       0.001217       0.000000
     -0.000452       0.001456       0.000000
     -0.000569       0.001533       0.000000
     -0.000570       0.001248       0.000000
     -0.000452       0.001456       0.000000
     -0.000491       0.001708       0.000000
     -0.000603       0.001861       0.000000
     -0.000569       0.001533       0.000000
     -0.000570       0.000849       0.000000
     -0.000573       0.001026       0.000000
     -0.000741       0.001034       0.000000
     -0.000718       0.000858       0.000000
     -0.000573       0.001026       0.000000
     -0.000570       0.001248       0.000000
     -0.000755       0.001261       0.000000
     -0.000741       0.001034       0.000000
     -0.000718       0.000858       0.000000
     -0.000741       0.001034       0.000000
     -0.000936       0.001052       0.000000
     -0.000877       0.000876       0.000000
     -0.000741       0.001034       0.000000
     -0.000755       0.001261       0.000000
     -0.001005       0.001277       0.000000
     -0.000936       0.001052       0.000000
     -0.000570       0.001248       0.000000
     -0.000567       0.001382       0.000000
     -0.000649       0.001398       0.000000
     -0.000653       0.001257       0.000000
     -0.000567       0.001382       0.000000
     -0.000569       0.001533       0.000000
     -0.000645       0.001564       0.000000
     -0.000649       0.001398       0.000000
     -0.000653       0.001257       0.000000
     -0.000649       0.001398       0.000000
     -0.000754       0.001406       0.000000
     -0.000755       0.001261       0.000000
     -0.000649       0.001398       0.000000
     -0.000645       0.001564       0.000000
     -0.000746       0.001585       0.000000
     -0.000754       0.001406       0.000000
     -0.000569       0.001533       0.000000
     -0.000579       0.001696       0.000000
     -0.000650       0.001755       0.000000
     -0.000645       0.001564       0.000000
     -0.000579       0.001696       0.000000
     -0.000603       0.001861       0.000000
     -0.000673       0.001955       0.000000
     -0.000650       0.001755       0.000000
     -0.000645       0.001564       0.000000
     -0.000650       0.001755       0.000000
     -0.000740       0.001812       0.000000
     -0.000746       0.001585       0.000000
     -0.000650       0.001755       0.000000
     -0.000673       0.001955       0.000000
     -0.000761       0.002073       0.000000
     -0.000740       0.001812       0.000000
     -0.000755       0.001261       0.000000
     -0.000754       0.001406       0.000000
     -0.000887       0.001410       0.000000
     -0.000874       0.001266       0.000000
     -0.000754       0.001406       0.000000
     -0.000746       0.001585       0.000000
     -0.000891       0.001593       0.000000
     -0.000887       0.001410       0.000000
     -0.000874       0.001266       0.000000
     -0.000887       0.001410       0.000000
     -0.001044       0.001421       0.000000
     -0.001005       0.001277       0.000000
     -0.000887       0.001410       0.000000
     -0.000891       0.001593       0.000000
     -0.001090       0.001604       0.000000
     -0.001044       0.001421       0.000000
     -0.000746       0.001585       0.000000
     -0.000740       0.001812       0.000000
     -0.000876       0.001853       0.000000
     -0.000891       0.001593       0.000000
     -0.000740       0.001812       0.000000
     -0.000761       0.002073       0.000000
     -0.000886       0.002247       0.000000
     -0.000876       0.001853       0.000000
     -0.000891       0.001593       0.000000
     -0.000876       0.001853       0.000000
     -0.001153       0.001875       0.000000
     -0.001090       0.001604       0.000000
     -0.000876       0.001853       0.000000
     -0.000886       0.002247       0.000000
     -0.001227       0.002722       0.000000
     -0.001153       0.001875       0.000000
      0.000000       0.000000       0.000000
      0.000000       0.000000       0.000000
      0.000017       0.000294       0.000000
      0.000077       0.000235       0.000000
      0.000000       0.000000       0.000000
      0.000000       0.000000       0.000000
     -0.000062       0.000339       0.000000
      0.000017       0.000294       0.000000
      0.000077       0.000235       0.000000
      0.000017       0.000294       0.000000
     -0.000046       0.000642       0.000000
      0.000064       0.000506       0.000000
      0.000017       0.000294       0.000000
     -0.000062       0.000339       0.000000
     -0.000190       0.000742       0.000000
     -0.000046       0.000642       0.000000
      0.000000       0.000000       0.000000
      0.000000       0.000000       0.000000
     -0.000151       0.000373       0.000000
     -0.000062       0.000339       0.000000
      0.000000       0.000000       0.000000
      0.000000       0.000000       0.000000
     -0.000254       0.000412       0.000000
     -0.000151       0.000373       0.000000
     -0.000062       0.000339       0.000000
     -0.000151       0.000373       0.000000
     -0.000352       0.000814       0.000000
     -0.000190       0.000742       0.000000
     -0.000151       0.000373       0.000000
     -0.000254       0.000412       0.000000
     -0.000528       0.000890       0.000000
     -0.000352       0.000814       0.000000
      0.000000       0.000000       0.000000
      0.000000       0.000000       0.000000
     -0.000396       0.000495       0.000000
     -0.000254       0.000412       0.000000
      0.000000       0.000000       0.000000
      0.000000       0.000000       0.000000
     -0.000613       0.000747       0.000000
     -0.000396       0.000495       0.000000
     -0.000254       0.000412       0.000000
     -0.000396       0.000495       0.000000
     -0.000726       0.001018       0.000000
     -0.000528       0.000890       0.000000
     -0.000396       0.000495       0.000000
     -0.000613       0.000747       0.000000
     -0.000934       0.001242       0.000000
     -0.000726       0.001018       0.000000
      0.000064       0.000506       0.000000
     -0.000046       0.000642       0.000000
     -0.000174       0.001048       0.000000
     -0.000018       0.000812       0.000000
     -0.000046       0.000642       0.000000
     -0.000190       0.000742       0.000000
     -0.000371       0.001205       0.000000
     -0.000174       0.001048       0.000000
     -0.000018       0.000812       0.000000
     -0.000174       0.001048       0.000000
     -0.000368       0.001528       0.000000
     -0.000163       0.001159       0.000000
     -0.000174       0.001048       0.000000
     -0.000371       0.001205       0.000000
     -0.000598       0.001718       0.000000
     -0.000368       0.001528       0.000000
     -0.000190       0.000742       0.000000
     -0.000352       0.000814       0.000000
     -0.000577       0.001302       0.000000
     -0.000371       0.001205       0.000000
     -0.000352       0.000814       0.000000
     -0.000528       0.000890       0.000000
     -0.000782       0.001387       0.000000
     -0.000577       0.001302       0.000000
     -0.000371       0.001205       0.000000
     -0.000577       0.001302       0.000000
     -0.000805       0.001806       0.000000
     -0.000598       0.001718       0.000000
     -0.000577       0.001302       0.000000
     -0.000782       0.001387       0.000000
     -0.001000       0.001874       0.000000
     -0.000805       0.001806       0.000000
     -0.000528       0.000890       0.000000
     -0.000726       0.001018       0.000000
     -0.000985       0.001506       0.000000
     -0.000782       0.001387       0.000000
     -0.000726       0.001018       0.000000
     -0.000934       0.001242       0.000000
     -0.001178       0.001688       0.000000
     -0.000985       0.001506       0.000000
     -0.000782       0.001387       0.000000
     -0.000985       0.001506       0.000000
     -0.001191       0.001963       0.000000
     -0.001000       0.001874       0.000000
     -0.000985       0.001506       0.000000
     -0.001178       0.001688       0.000000
     -0.001369       0.002097       0.000000
     -0.001191       0.001963       0.000000
     -0.000598       0.001718       0.000000
     -0.000805       0.001806       0.000000
     -0.000998       0.002294       0.000000
     -0.000845       0.002248       0.000000
     -0.000805       0.001806       0.000000
     -0.001000       0.001874       0.000000
     -0.001160       0.002335       0.000000
     -0.000998       0.002294       0.000000
     -0.000845       0.002248       0.000000
     -0.000998       0.002294       0.000000
     -0.001086       0.002747       0.000000
     -0.000982       0.002728       0.000000
     -0.000998       0.002294       0.000000
     -0.001160       0.002335       0.000000
     -0.001230       0.002775       0.000000
     -0.001086       0.002747       0.000000
     -0.001000       0.001874       0.000000
     -0.001191       0.001963       0.000000
     -0.001333       0.002392       0.000000
     -0.001160       0.002335       0.000000
     -0.001191       0.001963       0.000000
     -0.001369       0.002097       0.000000
     -0.001500       0.002473       0.000000
     -0.001333       0.002392       0.000000
     -0.001160       0.002335       0.000000
     -0.001333       0.002392       0.000000
     -0.001394       0.002807       0.000000
     -0.001230       0.002775       0.000000
     -0.001333       0.002392       0.000000
     -0.001500       0.002473       0.000000
     -0.001558       0.002833       0.000000
     -0.001394       0.002807       0.000000
     -0.000163       0.001159       0.000000
     -0.000256       0.001365       0.000000
     -0.000373       0.001618       0.000000
     -0.000266       0.001355       0.000000
     -0.000256       0.001365       0.000000
     -0.000368       0.001528       0.000000
     -0.000500       0.001806       0.000000
     -0.000373       0.001618       0.000000
     -0.000266       0.001355       0.000000
     -0.000373       0.001618       0.000000
     -0.000531       0.001920       0.000000
     -0.000402       0.001579       0.000000
     -0.000373       0.001618       0.000000
     -0.000500       0.001806       0.000000
     -0.000662       0.002113       0.000000
     -0.000531       0.001920       0.000000
     -0.000368       0.001528       0.000000
     -0.000485       0.001642       0.000000
     -0.000619       0.001920       0.000000
     -0.000500       0.001806       0.000000
     -0.000485       0.001642       0.000000
     -0.000598       0.001718       0.000000
     -0.000724       0.001985       0.000000
     -0.000619       0.001920       0.000000
     -0.000500       0.001806       0.000000
     -0.000619       0.001920       0.000000
     -0.000763       0.002203       0.000000