# vtk DataFile Version 2.0
time_10.vtk
ASCII
DATASET UNSTRUCTURED_GRID
POINTS  1152 float
      0.000000       0.000000       0.000000
      0.083333       0.000000       0.000000
      0.083333       0.083333       0.000000
      0.000000       0.083333       0.000000
      0.083333       0.000000       0.000000
      0.166667       0.000000       0.000000
      0.166667       0.083333       0.000000
      0.083333       0.083333       0.000000
      0.000000       0.083333       0.000000
      0.083333       0.083333       0.000000
      0.083333       0.166667       0.000000
      0.000000       0.166667       0.000000
      0.083333       0.083333       0.000000
      0.166667       0.083333       0.000000
      0.166667       0.166667       0.000000
      0.083333       0.166667       0.000000
      0.166667       0.000000       0.000000
      0.250000       0.000000       0.000000
      0.250000       0.083333       0.000000
      0.166667       0.083333       0.000000
      0.250000       0.000000       0.000000
      0.333333       0.000000       0.000000
      0.333333       0.083333       0.000000
      0.250000       0.083333       0.000000
      0.166667       0.083333       0.000000
      0.250000       0.083333       0.000000
      0.250000       0.166667       0.000000
      0.166667       0.166667       0.000000
      0.250000       0.083333       0.000000
      0.333333       0.083333       0.000000
      0.333333       0.166667       0.000000
      0.250000       0.166667       0.000000
      0.333333       0.000000       0.000000
      0.416667      -0.000000       0.000000
      0.416667       0.083333       0.000000
      0.333333       0.083333       0.000000
      0.416667      -0.000000       0.000000
      0.500000       0.000000       0.000000
      0.500000       0.083333       0.000000
      0.416667       0.083333       0.000000
      0.333333       0.083333       0.000000
      0.416667       0.083333       0.000000
      0.416667       0.166667       0.000000
      0.333333       0.166667       0.000000
      0.416667       0.083333       0.000000
      0.500000       0.083333       0.000000
      0.500000       0.166667       0.000000
      0.416667       0.166667       0.000000
      0.000000       0.166667       0.000000
      0.083333       0.166667       0.000000
      0.083333       0.250000       0.000000
      0.000000       0.250000       0.000000
      0.083333       0.166667       0.000000
      0.166667       0.166667       0.000000
      0.166667       0.250000       0.000000
      0.083333       0.250000       0.000000
      0.000000       0.250000       0.000000
      0.083333       0.250000       0.000000
      0.083333       0.333333       0.000000
      0.000000       0.333333       0.000000
      0.083333       0.250000       0.000000
      0.166667       0.250000       0.000000
      0.166667       0.333333       0.000000
      0.083333       0.333333       0.000000
      0.166667       0.166667       0.000000
      0.250000       0.166667       0.000000
      0.250000       0.250000       0.000000
      0.166667       0.250000       0.000000
      0.250000       0.166667       0.000000
      0.333333       0.166667       0.000000
      0.333333       0.250000       0.000000
      0.250000       0.250000       0.000000
      0.166667       0.250000       0.000000
      0.250000       0.250000       0.000000
      0.250000       0.333333       0.000000
      0.166667       0.333333       0.000000
      0.250000       0.250000       0.000000
      0.333333       0.250000       0.000000
      0.333333       0.333333       0.000000
      0.250000       0.333333       0.000000
      0.333333       0.166667       0.000000
      0.416667       0.166667       0.000000
      0.416667       0.250000       0.000000
      0.333333       0.250000       0.000000
      0.416667       0.166667       0.000000
      0.500000       0.166667       0.000000
      0.500000       0.250000       0.000000
      0.416667       0.250000       0.000000
      0.333333       0.250000       0.000000
      0.416667       0.250000       0.000000
      0.416667       0.333333       0.000000
      0.333333       0.333333       0.000000
      0.416667       0.250000       0.000000
      0.500000       0.250000       0.000000
      0.500000       0.333333       0.000000
      0.416667       0.333333       0.000000
      0.000000       0.333333       0.000000
      0.083333       0.333333       0.000000
      0.083333       0.416667       0.000000
     -0.000000       0.416667       0.000000
      0.083333       0.333333       0.000000
      0.166667       0.333333       0.000000
      0.166667       0.416667       0.000000
      0.083333       0.416667       0.000000
     -0.000000       0.416667       0.000000
      0.083333       0.416667       0.000000
      0.083333       0.500000       0.000000
      0.000000       0.500000       0.000000
      0.083333       0.416667       0.000000
      0.166667       0.416667       0.000000
      0.166667       0.500000       0.000000
      0.083333       0.500000       0.000000
      0.166667       0.333333       0.000000
      0.250000       0.333333       0.000000
      0.250000       0.416667       0.000000
      0.166667       0.416667       0.000000
      0.250000       0.333333       0.000000
      0.333333       0.333333       0.000000
      0.333333       0.416667       0.000000
      0.250000       0.416667       0.000000
      0.166667       0.416667       0.000000
      0.250000       0.416667       0.000000
      0.250000       0.500000       0.000000
      0.166667       0.500000       0.000000
      0.250000       0.416667       0.000000
      0.333333       0.416667       0.000000
      0.333333       0.500000       0.000000
      0.250000       0.500000       0.000000
      0.333333       0.333333       0.000000
      0.375000       0.333333       0.000000
      0.375000       0.375000       0.000000
      0.333333       0.375000       0.000000
      0.375000       0.333333       0.000000
      0.416667       0.333333       0.000000
      0.416667       0.375000       0.000000
      0.375000       0.375000       0.000000
      0.333333       0.375000       0.000000
      0.375000       0.375000       0.000000
      0.375000       0.416667       0.000000
      0.333333       0.416667       0.000000
      0.375000       0.375000       0.000000
      0.416667       0.375000       0.000000
      0.416667       0.416667       0.000000
      0.375000       0.416667       0.000000
      0.416667       0.333333       0.000000
      0.458333       0.333333       0.000000
      0.458333       0.375000       0.000000
      0.416667       0.375000       0.000000
      0.458333       0.333333       0.000000
      0.500000       0.333333       0.000000
      0.500000       0.375000       0.000000
      0.458333       0.375000       0.000000
      0.416667       0.375000       0.000000
      0.458333       0.375000       0.000000
      0.458333       0.416667       0.000000
      0.416667       0.416667       0.000000
      0.458333       0.375000       0.000000
      0.500000       0.375000       0.000000
      0.500000       0.416667       0.000000
      0.458333       0.416667       0.000000
      0.333333       0.416667       0.000000
      0.375000       0.416667       0.000000
      0.375000       0.458333       0.000000
      0.333333       0.458333       0.000000
      0.375000       0.416667       0.000000
      0.416667       0.416667       0.000000
      0.416667       0.458333       0.000000
      0.375000       0.458333       0.000000
      0.333333       0.458333       0.000000
      0.375000       0.458333       0.000000
      0.375000       0.500000       0.000000
      0.333333       0.500000       0.000000
      0.375000       0.458333       0.000000
      0.416667       0.458333       0.000000
      0.416667       0.500000       0.000000
      0.375000       0.500000       0.000000
      0.416667       0.416667       0.000000
      0.437500       0.416667       0.000000
      0.437500       0.437500       0.000000
      0.416667       0.437500       0.000000
      0.437500       0.416667       0.000000
      0.458333       0.416667       0.000000
      0.458333       0.437500       0.000000
      0.437500       0.437500       0.000000
      0.416667       0.437500       0.000000
      0.437500       0.437500       0.000000
      0.437500       0.458333       0.000000
      0.416667       0.458333       0.000000
      0.437500       0.437500       0.000000
      0.458333       0.437500       0.000000
      0.458333       0.458333       0.000000
      0.437500       0.458333       0.000000
      0.458333       0.416667       0.000000
      0.479167       0.416667       0.000000
      0.479167       0.437500       0.000000
      0.458333       0.437500       0.000000
      0.479167       0.416667       0.000000
      0.500000       0.416667       0.000000
      0.500000       0.437500       0.000000
      0.479167       0.437500       0.000000
      0.458333       0.437500       0.000000
      0.479167       0.437500       0.000000
      0.479167       0.458333       0.000000
      0.458333       0.458333       0.000000
      0.479167       0.437500       0.000000
      0.500000       0.437500       0.000000
      0.500000       0.458333       0.000000
      0.479167       0.458333       0.000000
      0.416667       0.458333       0.000000
      0.437500       0.458333       0.000000
      0.437500       0.479167       0.000000
      0.416667       0.479167       0.000000
      0.437500       0.458333       0.000000
      0.458333       0.458333       0.000000
      0.458333       0.479167       0.000000
      0.437500       0.479167       0.000000
      0.416667       0.479167       0.000000
      0.437500       0.479167       0.000000
      0.437500       0.500000       0.000000
      0.416667       0.500000       0.000000
[...]
POINT_DATA  1152
VECTORS U float 
      0.000000       0.000000       0.000000
      0.000000       0.000000       0.000000
      0.000047      -0.000006       0.000000
      0.000037      -0.000003       0.000000
      0.000000       0.000000       0.000000
      0.000000       0.000000       0.000000
      0.000057       0.000010       0.000000
      0.000047      -0.000006       0.000000
      0.000037      -0.000003       0.000000
      0.000047      -0.000006       0.000000
      0.000056      -0.000018       0.000000
      0.000044      -0.000039       0.000000
      0.000047      -0.000006       0.000000
      0.000057       0.000010       0.000000
      0.000068       0.000015       0.000000
      0.000056      -0.000018       0.000000
      0.000000       0.000000       0.000000
      0.000000       0.000000       0.000000
      0.000067       0.000033       0.000000
      0.000057       0.000010       0.000000
      0.000000       0.000000       0.000000
      0.000000       0.000000       0.000000
      0.000072       0.000063       0.000000
      0.000067       0.000033       0.000000
      0.000057       0.000010       0.000000
      0.000067       0.000033       0.000000
      0.000081       0.000061       0.000000
      0.000068       0.000015       0.000000
      0.000067       0.000033       0.000000
      0.000072       0.000063       0.000000
      0.000088       0.000124       0.000000
      0.000081       0.000061       0.000000
      0.000000       0.000000       0.000000
      0.000000       0.000000       0.000000
      0.000066       0.000099       0.000000
      0.000072       0.000063       0.000000
      0.000000       0.000000       0.000000
      0.000000       0.000000       0.000000
      0.000045       0.000135       0.000000
      0.000066       0.000099       0.000000
      0.000072       0.000063       0.000000
      0.000066       0.000099       0.000000
      0.000077       0.000205       0.000000
      0.000088       0.000124       0.000000
      0.000066       0.000099       0.000000
      0.000045       0.000135       0.000000
      0.000040       0.000291       0.000000
      0.000077       0.000205       0.000000
      0.000044      -0.000039       0.000000
      0.000056      -0.000018       0.000000
      0.000020      -0.000033       0.000000
      0.000008      -0.000081       0.000000
      0.000056      -0.000018       0.000000
      0.000068       0.000015       0.000000
      0.000032       0.000015       0.000000
      0.000020      -0.000033       0.000000
      0.000008      -0.000081       0.000000
      0.000020      -0.000033       0.000000
     -0.000055      -0.000047       0.000000
     -0.000063      -0.000115       0.000000
      0.000020      -0.000033       0.000000
      0.000032       0.000015       0.000000
     -0.000048       0.000012       0.000000
     -0.000055      -0.000047       0.000000
      0.000068       0.000015       0.000000
      0.000081       0.000061       0.000000
      0.000045       0.000081       0.000000
      0.000032       0.000015       0.000000
      0.000081       0.000061       0.000000
      0.000088       0.000124       0.000000
      0.000056       0.000179       0.000000
      0.000045       0.000081       0.000000
      0.000032       0.000015       0.000000
      0.000045       0.000081       0.000000
     -0.000039       0.000091       0.000000
     -0.000048       0.000012       0.000000
      0.000045       0.000081       0.000000
      0.000056       0.000179       0.000000
     -0.000027       0.000218       0.000000
     -0.000039       0.000091       0.000000
      0.000088       0.000124       0.000000
      0.000077       0.000205       0.000000
      0.000047       0.000315       0.000000
      0.000056       0.000179       0.000000
      0.000077       0.000205       0.000000
      0.000040       0.000291       0.000000
     -0.000002       0.000466       0.000000
      0.000047       0.000315       0.000000
      0.000056       0.000179       0.000000
      0.000047       0.000315       0.000000
     -0.000026       0.000419       0.000000
     -0.000027       0.000218       0.000000
      0.000047       0.000315       0.000000
     -0.000002       0.000466       0.000000
     -0.000079       0.000667       0.000000
     -0.000026       0.000419       0.000000
     -0.000063      -0.000115       0.000000
     -0.000055      -0.000047       0.000000
     -0.000149      -0.000055       0.000000
     -0.000151      -0.000130       0.000000
     -0.000055      -0.000047       0.000000
     -0.000048       0.000012       0.000000
     -0.000154       0.000011       0.000000
     -0.000149      -0.000055       0.000000
     -0.000151      -0.000130       0.000000
     -0.000149      -0.000055       0.000000
     -0.000236      -0.000054       0.000000
     -0.000235      -0.000131       0.000000
     -0.000149      -0.000055       0.000000
     -0.000154       0.000011       0.000000
     -0.000252       0.000019       0.000000
     -0.000236      -0.000054       0.000000
     -0.000048       0.000012       0.000000
     -0.000039       0.000091       0.000000
     -0.000164       0.000095       0.000000
     -0.000154       0.000011       0.000000
     -0.000039       0.000091       0.000000
     -0.000027       0.000218       0.000000
     -0.000171       0.000234       0.000000
     -0.000164       0.000095       0.000000
     -0.000154       0.000011       0.000000
     -0.000164       0.000095       0.000000
     -0.000295       0.000109       0.000000
     -0.000252       0.000019       0.000000
     -0.000164       0.000095       0.000000
     -0.000171       0.000234       0.000000
     -0.000367       0.000253       0.000000
     -0.000295       0.000109       0.000000
     -0.000027       0.000218       0.000000
     -0.000023       0.000308       0.000000
     -0.000085       0.000330       0.000000
     -0.000090       0.000228       0.000000
     -0.000023       0.000308       0.000000
     -0.000026       0.000419       0.000000
     -0.000084       0.000461       0.000000
     -0.000085       0.000330       0.000000
     -0.000090       0.000228       0.000000
     -0.000085       0.000330       0.000000
     -0.000171       0.000342       0.000000
     -0.000171       0.000234       0.000000
     -0.000085       0.000330       0.000000
     -0.000084       0.000461       0.000000
     -0.000167       0.000490       0.000000
     -0.000171       0.000342       0.000000
     -0.000026       0.000419       0.000000
     -0.000043       0.000543       0.000000
     -0.000096       0.000619       0.000000
     -0.000084       0.000461       0.000000
     -0.000043       0.000543       0.000000
     -0.000079       0.000667       0.000000
     -0.000133       0.000782       0.000000
     -0.000096       0.000619       0.000000
     -0.000084       0.000461       0.000000
     -0.000096       0.000619       0.000000
     -0.000169       0.000689       0.000000
     -0.000167       0.000490       0.000000
     -0.000096       0.000619       0.000000
     -0.000133       0.000782       0.000000
     -0.000205       0.000912       0.000000
     -0.000169       0.000689       0.000000
     -0.000171       0.000234       0.000000
     -0.000171       0.000342       0.000000
     -0.000285       0.000349       0.000000
     -0.000268       0.000240       0.000000
     -0.000171       0.000342       0.000000
     -0.000167       0.000490       0.000000
     -0.000295       0.000503       0.000000
     -0.000285       0.000349       0.000000
     -0.000268       0.000240       0.000000
     -0.000285       0.000349       0.000000
     -0.000415       0.000363       0.000000
     -0.000367       0.000253       0.000000
     -0.000285       0.000349       0.000000
     -0.000295       0.000503       0.000000
     -0.000472       0.000517       0.000000
     -0.000415       0.000363       0.000000
     -0.000167       0.000490       0.000000
     -0.000166       0.000583       0.000000
     -0.000222       0.000598       0.000000
     -0.000224       0.000498       0.000000
     -0.000166       0.000583       0.000000
     -0.000169       0.000689       0.000000
     -0.000221       0.000718       0.000000
     -0.000222       0.000598       0.000000
     -0.000224       0.000498       0.000000
     -0.000222       0.000598       0.000000
     -0.000295       0.000606       0.000000
     -0.000295       0.000503       0.000000
     -0.000222       0.000598       0.000000
     -0.000221       0.000718       0.000000
     -0.000291       0.000737       0.000000
     -0.000295       0.000606       0.000000
     -0.000169       0.000689       0.000000
     -0.000181       0.000803       0.000000
     -0.000228       0.000853       0.000000
     -0.000221       0.000718       0.000000
     -0.000181       0.000803       0.000000
     -0.000205       0.000912       0.000000
     -0.000252       0.000988       0.000000
     -0.000228       0.000853       0.000000
     -0.000221       0.000718       0.000000
     -0.000228       0.000853       0.000000
     -0.000290       0.000900       0.000000
     -0.000291       0.000737       0.000000
     -0.000228       0.000853       0.000000
     -0.000252       0.000988       0.000000
     -0.000311       0.001076       0.000000
     -0.000290       0.000900       0.000000
     -0.000295       0.000503       0.000000
     -0.000295       0.000606       0.000000
     -0.000391       0.000611       0.000000
     -0.000380       0.000507       0.000000
     -0.000295       0.000606       0.000000
     -0.000291       0.000737       0.000000
     -0.000395       0.000744       0.000000
     -0.000391       0.000611       0.000000
     -0.000380       0.000507       0.000000
     -0.000391       0.000611       0.000000
     -0.000504       0.000620       0.000000
     -0.000472       0.000517       0.000000
     -0.000391       0.000611       0.000000
     -0.000395       0.000744       0.000000
     -0.000539       0.000752       0.000000
     -0.000504       0.000620       0.000000
     -0.000291       0.000737       0.000000
     -0.000289       0.000815       0.000000
     -0.000334       0.000824       0.000000
     -0.000338       0.000742       0.000000
     -0.000289       0.000815       0.000000
     -0.000290       0.000900       0.000000
     -0.000332       0.000919       0.000000
     -0.000334       0.000824       0.000000
     -0.000338       0.000742       0.000000
     -0.000334       0.000824       0.000000
     -0.000393       0.000829       0.000000
     -0.000395       0.000744       0.000000
     -0.000334       0.000824       0.000000
     -0.000332       0.000919       0.000000
     -0.000387       0.000932       0.000000
     -0.000393       0.000829       0.000000
     -0.000290       0.000900       0.000000
     -0.000297       0.000990       0.000000
     -0.000334       0.001025       0.000000
     -0.000332       0.000919       0.000000
     -0.000297       0.000990       0.000000
     -0.000311       0.001076       0.000000
     -0.000349       0.001128       0.000000
     -0.000334       0.001025       0.000000
     -0.000332       0.000919       0.000000
     -0.000334       0.001025       0.000000
     -0.000383       0.001057       0.000000
     -0.000387       0.000932       0.000000
     -0.000334       0.001025       0.000000
     -0.000349       0.001128       0.000000
     -0.000395       0.001189       0.000000
     -0.000383       0.001057       0.000000
     -0.000395       0.000744       0.000000
     -0.000393       0.000829       0.000000
     -0.000468       0.000831       0.000000
     -0.000464       0.000747       0.000000
     -0.000393       0.000829       0.000000
     -0.000387       0.000932       0.000000
     -0.000467       0.000936       0.000000
     -0.000468       0.000831       0.000000
     -0.000464       0.000747       0.000000
     -0.000468       0.000831       0.000000
     -0.000558       0.000836       0.000000
     -0.000539       0.000752       0.000000
     -0.000468       0.000831       0.000000
     -0.000467       0.000936       0.000000
     -0.000578       0.000940       0.000000
     -0.000558       0.000836       0.000000
     -0.000387       0.000932       0.000000
     -0.000383       0.001057       0.000000
     -0.000457       0.001079       0.000000
     -0.000467       0.000936       0.000000
     -0.000383       0.001057       0.000000
     -0.000395       0.001189       0.000000
     -0.000460       0.001269       0.000000
     -0.000457       0.001079       0.000000
     -0.000467       0.000936       0.000000
     -0.000457       0.001079       0.000000
     -0.000600       0.001086       0.000000
     -0.000578       0.000940       0.000000
     -0.000457       0.001079       0.000000
     -0.000460       0.001269       0.000000
     -0.000607       0.001444       0.000000
     -0.000600       0.001086       0.000000
      0.000000       0.000000       0.000000
      0.000000       0.000000       0.000000
      0.000010       0.000166       0.000000
      0.000045       0.000135       0.000000
      0.000000       0.000000       0.000000
      0.000000       0.000000       0.000000
     -0.000034       0.000189       0.000000
      0.000010       0.000166       0.000000
      0.000045       0.000135       0.000000
      0.000010       0.000166       0.000000
     -0.000023       0.000362       0.000000
      0.000040       0.000291       0.000000
      0.000010       0.000166       0.000000
     -0.000034       0.000189       0.000000
     -0.000102       0.000410       0.000000
     -0.000023       0.000362       0.000000
      0.000000       0.000000       0.000000
      0.000000       0.000000       0.000000
     -0.000083       0.000204       0.000000
     -0.000034       0.000189       0.000000
      0.000000       0.000000       0.000000
      0.000000       0.000000       0.000000
     -0.000137       0.000220       0.000000
     -0.000083       0.000204       0.000000
     -0.000034       0.000189       0.000000
     -0.000083       0.000204       0.000000
     -0.000187       0.000441       0.000000
     -0.000102       0.000410       0.000000
     -0.000083       0.000204       0.000000
     -0.000137       0.000220       0.000000
     -0.000278       0.000472       0.000000
     -0.000187       0.000441       0.000000
      0.000000       0.000000       0.000000
      0.000000       0.000000       0.000000
     -0.000208       0.000256       0.000000
     -0.000137       0.000220       0.000000
      0.000000       0.000000       0.000000
      0.000000       0.000000       0.000000
     -0.000321       0.000381       0.000000
     -0.000208       0.000256       0.000000
     -0.000137       0.000220       0.000000
     -0.000208       0.000256       0.000000
     -0.000381       0.000530       0.000000
     -0.000278       0.000472       0.000000
     -0.000208       0.000256       0.000000
     -0.000321       0.000381       0.000000
     -0.000490       0.000643       0.000000
     -0.000381       0.000530       0.000000
      0.000040       0.000291       0.000000
     -0.000023       0.000362       0.000000
     -0.000090       0.000587       0.000000
     -0.000002       0.000466       0.000000
     -0.000023       0.000362       0.000000
     -0.000102       0.000410       0.000000
     -0.000195       0.000659       0.000000
     -0.000090       0.000587       0.000000
     -0.000002       0.000466       0.000000
     -0.000090       0.000587       0.000000
     -0.000192       0.000849       0.000000
     -0.000079       0.000667       0.000000
     -0.000090       0.000587       0.000000
     -0.000195       0.000659       0.000000
     -0.000309       0.000928       0.000000
     -0.000192       0.000849       0.000000
     -0.000102       0.000410       0.000000
     -0.000187       0.000441       0.000000
     -0.000301       0.000698       0.000000
     -0.000195       0.000659       0.000000
     -0.000187       0.000441       0.000000
     -0.000278       0.000472       0.000000
     -0.000407       0.000734       0.000000
     -0.000301       0.000698       0.000000
     -0.000195       0.000659       0.000000
     -0.000301       0.000698       0.000000
     -0.000414       0.000962       0.000000
     -0.000309       0.000928       0.000000
     -0.000301       0.000698       0.000000
     -0.000407       0.000734       0.000000
     -0.000516       0.000991       0.000000
     -0.000414       0.000962       0.000000
     -0.000278       0.000472       0.000000
     -0.000381       0.000530       0.000000
     -0.000513       0.000789       0.000000
     -0.000407       0.000734       0.000000
     -0.000381       0.000530       0.000000
     -0.000490       0.000643       0.000000
     -0.000616       0.000880       0.000000
     -0.000513       0.000789       0.000000
     -0.000407       0.000734       0.000000
     -0.000513       0.000789       0.000000
     -0.000617       0.001033       0.000000
     -0.000516       0.000991       0.000000
     -0.000513       0.000789       0.000000
     -0.000616       0.000880       0.000000
     -0.000713       0.001101       0.000000
     -0.000617       0.001033       0.000000
     -0.000309       0.000928       0.000000
     -0.000414       0.000962       0.000000
     -0.000508       0.001217       0.000000
     -0.000429       0.001200       0.000000
     -0.000414       0.000962       0.000000
     -0.000516       0.000991       0.000000
     -0.000595       0.001237       0.000000
     -0.000508       0.001217       0.000000
     -0.000429       0.001200       0.000000
     -0.000508       0.001217       0.000000
     -0.000552       0.001458       0.000000
     -0.000494       0.001448       0.000000
     -0.000508       0.001217       0.000000
     -0.000595       0.001237       0.000000
     -0.000630       0.001473       0.000000
     -0.000552       0.001458       0.000000
     -0.000516       0.000991       0.000000
     -0.000617       0.001033       0.000000
     -0.000689       0.001266       0.000000
     -0.000595       0.001237       0.000000
     -0.000617       0.001033       0.000000
     -0.000713       0.001101       0.000000
     -0.000780       0.001307       0.000000
     -0.000689       0.001266       0.000000
     -0.000595       0.001237       0.000000
     -0.000689       0.001266       0.000000
     -0.000720       0.001491       0.000000
     -0.000630       0.001473       0.000000
     -0.000689       0.001266       0.000000
     -0.000780       0.001307       0.000000
     -0.000810       0.001506       0.000000
     -0.000720       0.001491       0.000000
     -0.000079       0.000667       0.000000
     -0.000131       0.000772       0.000000
     -0.000194       0.000913       0.000000
     -0.000133       0.000782       0.000000
     -0.000131       0.000772       0.000000
     -0.000192       0.000849       0.000000
     -0.000260       0.000995       0.000000
     -0.000194       0.000913       0.000000
     -0.000133       0.000782       0.000000
     -0.000194       0.000913       0.000000
     -0.000276       0.001075       0.000000
     -0.000205       0.000912       0.000000
     -0.000194       0.000913       0.000000
     -0.000260       0.000995       0.000000
     -0.000340       0.001152       0.000000
     -0.000276       0.001075       0.000000
     -0.000192       0.000849       0.000000
     -0.000253       0.000898       0.000000
     -0.000319       0.001041       0.000000
     -0.000260       0.000995       0.000000
     -0.000253       0.000898       0.000000
     -0.000309       0.000928       0.000000
     -0.000371       0.001066       0.000000
     -0.000319       0.001041       0.000000
     -0.000260       0.000995       0.000000
     -0.000319       0.001041       0.000000
     -0.000389       0.001184       0.000000