# vtk DataFile Version 2.0
time_10.vtk
ASCII
DATASET UNSTRUCTURED_GRID
POINTS  1152 float
      0.000000       0.000000       0.000000
      0.083333       0.000000       0.000000
      0.083333       0.083333       0.000000
      0.000000       0.083333       0.000000
      0.083333       0.000000       0.000000
      0.166667       0.000000       0.000000
      0.166667       0.083333       0.000000
      0.083333       0.083333       0.000000
      0.000000       0.083333       0.000000
      0.083333       0.083333       0.000000
      0.083333       0.166667       0.000000
      0.000000       0.166667       0.000000
      0.083333       0.083333       0.000000
      0.166667       0.083333       0.000000
      0.166667       0.166667       0.000000
      0.083333       0.166667       0.000000
      0.166667       0.000000       0.000000
      0.250000       0.000000       0.000000
      0.250000       0.083333       0.000000
      0.166667       0.083333       0.000000
      0.250000       0.000000       0.000000
      0.333333       0.000000       0.000000
      0.333333       0.083333       0.000000
      0.250000       0.083333       0.000000
      0.166667       0.083333       0.000000
      0.250000       0.083333       0.000000
      0.250000       0.166667       0.000000
      0.166667       0.166667       0.000000
      0.250000       0.083333       0.000000
      0.333333       0.083333       0.000000
      0.333333       0.166667       0.000000
      0.250000       0.166667       0.000000
      0.333333       0.000000       0.000000
      0.416667      -0.000000       0.000000
      0.416667       0.083333       0.000000
      0.333333       0.083333       0.000000
      0.416667      -0.000000       0.000000
      0.500000       0.000000       0.000000
      0.500000       0.083333       0.000000
      0.416667       0.083333       0.000000
      0.333333       0.083333       0.000000
      0.416667       0.083333       0.000000
      0.416667       0.166667       0.000000
      0.333333       0.166667       0.000000
      0.416667       0.083333       0.000000
      0.500000       0.083333       0.000000
      0.500000       0.166667       0.000000
      0.416667       0.166667       0.000000
      0.000000       0.166667       0.000000
      0.083333       0.166667       0.000000
      0.083333       0.250000       0.000000
      0.000000       0.250000       0.000000
      0.083333       0.166667       0.000000
      0.166667       0.166667       0.000000
      0.166667       0.250000       0.000000
      0.083333       0.250000       0.000000
      0.000000       0.250000       0.000000
      0.083333       0.250000       0.000000
      0.083333       0.333333       0.000000
      0.000000       0.333333       0.000000
      0.083333       0.250000       0.000000
      0.166667       0.250000       0.000000
      0.166667       0.333333       0.000000
      0.083333       0.333333       0.000000
      0.166667       0.166667       0.000000
      0.250000       0.166667       0.000000
      0.250000       0.250000       0.000000
      0.166667       0.250000       0.000000
      0.250000       0.166667       0.000000
      0.333333       0.166667       0.000000
      0.333333       0.250000       0.000000
      0.250000       0.250000       0.000000
      0.166667       0.250000       0.000000
      0.250000       0.250000       0.000000
      0.250000       0.333333       0.000000
      0.166667       0.333333       0.000000
      0.250000       0.250000       0.000000
      0.333333       0.250000       0.000000
      0.333333       0.333333       0.000000
      0.250000       0.333333       0.000000
      0.333333       0.166667       0.000000
      0.416667       0.166667       0.000000
      0.416667       0.250000       0.000000
      0.333333       0.250000       0.000000
      0.416667       0.166667       0.000000
      0.500000       0.166667       0.000000
      0.500000       0.250000       0.000000
      0.416667       0.250000       0.000000
      0.333333       0.250000       0.000000
      0.416667       0.250000       0.000000
      0.416667       0.333333       0.000000
      0.333333       0.333333       0.000000
      0.416667       0.250000       0.000000
      0.500000       0.250000       0.000000
      0.500000       0.333333       0.000000
      0.416667       0.333333       0.000000
      0.000000       0.333333       0.000000
      0.083333       0.333333       0.000000
      0.083333       0.416667       0.000000
     -0.000000       0.416667       0.000000
      0.083333       0.333333       0.000000
      0.166667       0.333333       0.000000
      0.166667       0.416667       0.000000
      0.083333       0.416667       0.000000
     -0.000000       0.416667       0.000000
      0.083333       0.416667       0.000000
      0.083333       0.500000       0.000000
      0.000000       0.500000       0.000000
      0.083333       0.416667       0.000000
      0.166667       0.416667       0.000000
      0.166667       0.500000       0.000000
      0.083333       0.500000       0.000000
      0.166667       0.333333       0.000000
      0.250000       0.333333       0.000000
      0.250000       0.416667       0.000000
      0.166667       0.416667       0.000000
      0.250000       0.333333       0.000000
      0.333333       0.333333       0.000000
      0.333333       0.416667       0.000000
      0.250000       0.416667       0.000000
      0.166667       0.416667       0.000000
      0.250000       0.416667       0.000000
      0.250000       0.500000       0.000000
      0.166667       0.500000       0.000000
      0.250000       0.416667       0.000000
      0.333333       0.416667       0.000000
      0.333333       0.500000       0.000000
      0.250000       0.500000       0.000000
      0.333333       0.333333       0.000000
      0.375000       0.333333       0.000000
      0.375000       0.375000       0.000000
      0.333333       0.375000       0.000000
      0.375000       0.333333       0.000000
      0.416667       0.333333       0.000000
      0.416667       0.375000       0.000000
      0.375000       0.375000       0.000000
      0.333333       0.375000       0.000000
      0.375000       0.375000       0.000000
      0.375000       0.416667       0.000000
      0.333333       0.416667       0.000000
      0.375000       0.375000       0.000000
      0.416667       0.375000       0.000000
      0.416667       0.416667       0.000000
      0.375000       0.416667       0.000000
      0.416667       0.333333       0.000000
      0.458333       0.333333       0.000000
      0.458333       0.375000       0.000000
      0.416667       0.375000       0.000000
      0.458333       0.333333       0.000000
      0.500000       0.333333       0.000000
      0.500000       0.375000       0.000000
      0.458333       0.375000       0.000000
      0.416667       0.375000       0.000000
      0.458333       0.375000       0.000000
      0.458333       0.416667       0.000000
      0.416667       0.416667       0.000000
      0.458333       0.375000       0.000000
      0.500000       0.375000       0.000000
      0.500000       0.416667       0.000000
      0.458333       0.416667       0.000000
      0.333333       0.416667       0.000000
      0.375000       0.416667       0.000000
      0.375000       0.458333       0.000000
      0.333333       0.458333       0.000000
      0.375000       0.416667       0.000000
      0.416667       0.416667       0.000000
      0.416667       0.458333       0.000000
      0.375000       0.458333       0.000000
      0.333333       0.458333       0.000000
      0.375000       0.458333       0.000000
      0.375000       0.500000       0.000000
      0.333333       0.500000       0.000000
      0.375000       0.458333       0.000000
      0.416667       0.458333       0.000000
      0.416667       0.500000       0.000000
      0.375000       0.500000       0.000000
      0.416667       0.416667       0.000000
      0.437500       0.416667       0.000000
      0.437500       0.437500       0.000000
      0.416667       0.437500       0.000000
      0.437500       0.416667       0.000000
      0.458333       0.416667       0.000000
      0.458333       0.437500       0.000000
      0.437500       0.437500       0.000000
      0.416667       0.437500       0.000000
      0.437500       0.437500       0.000000
      0.437500       0.458333       0.000000
      0.416667       0.458333       0.000000
      0.437500       0.437500       0.000000
      0.458333       0.437500       0.000000
      0.458333       0.458333       0.000000
      0.437500       0.458333       0.000000
      0.458333       0.416667       0.000000
      0.479167       0.416667       0.000000
      0.479167       0.437500       0.000000
      0.458333       0.437500       0.000000
      0.479167       0.416667       0.000000
      0.500000       0.416667       0.000000
      0.500000       0.437500       0.000000
      0.479167       0.437500       0.000000
      0.458333       0.437500       0.000000
      0.479167       0.437500       0.000000
      0.479167       0.458333       0.000000
      0.458333       0.458333       0.000000
      0.479167       0.437500       0.000000
      0.500000       0.437500       0.000000
      0.500000       0.458333       0.000000
      0.479167       0.458333       0.000000
      0.416667       0.458333       0.000000
      0.437500       0.458333       0.000000
      0.437500       0.479167       0.000000
      0.416667       0.479167       0.000000
      0.437500       0.458333       0.000000
      0.458333       0.458333       0.000000
      0.458333       0.479167       0.000000
      0.437500       0.479167       0.000000
      0.416667       0.479167       0.000000
      0.437500       0.479167       0.000000
      0.437500       0.500000       0.000000
      0.416667       0.500000       0.000000
[...]
POINT_DATA  1152
VECTORS U float 
      0.000000       0.000000       0.000000
      0.000000       0.000000       0.000000
      0.000073      -0.000015       0.000000
      0.000054      -0.000015       0.000000
      0.000000       0.000000       0.000000
      0.000000       0.000000       0.000000
      0.000092       0.000015       0.000000
      0.000073      -0.000015       0.000000
      0.000054      -0.000015       0.000000
      0.000073      -0.000015       0.000000
      0.000081      -0.000040       0.000000
      0.000057      -0.000083       0.000000
      0.000073      -0.000015       0.000000
      0.000092       0.000015       0.000000
      0.000103       0.000019       0.000000
      0.000081      -0.000040       0.000000
      0.000000       0.000000       0.000000
      0.000000       0.000000       0.000000
      0.000110       0.000054       0.000000
      0.000092       0.000015       0.000000
      0.000000       0.000000       0.000000
      0.000000       0.000000       0.000000
      0.000119       0.000106       0.000000
      0.000110       0.000054       0.000000
      0.000092       0.000015       0.000000
      0.000110       0.000054       0.000000
      0.000126       0.000098       0.000000
      0.000103       0.000019       0.000000
      0.000110       0.000054       0.000000
      0.000119       0.000106       0.000000
      0.000139       0.000209       0.000000
      0.000126       0.000098       0.000000
      0.000000       0.000000       0.000000
      0.000000       0.000000       0.000000
      0.000111       0.000169       0.000000
      0.000119       0.000106       0.000000
      0.000000       0.000000       0.000000
      0.000000       0.000000       0.000000
      0.000076       0.000234       0.000000
      0.000111       0.000169       0.000000
      0.000119       0.000106       0.000000
      0.000111       0.000169       0.000000
      0.000125       0.000350       0.000000
      0.000139       0.000209       0.000000
      0.000111       0.000169       0.000000
      0.000076       0.000234       0.000000
      0.000063       0.000504       0.000000
      0.000125       0.000350       0.000000
      0.000057      -0.000083       0.000000
      0.000081      -0.000040       0.000000
      0.000010      -0.000069       0.000000
     -0.000012      -0.000158       0.000000
      0.000081      -0.000040       0.000000
      0.000103       0.000019       0.000000
      0.000031       0.000016       0.000000
      0.000010      -0.000069       0.000000
     -0.000012      -0.000158       0.000000
      0.000010      -0.000069       0.000000
     -0.000127      -0.000095       0.000000
     -0.000141      -0.000216       0.000000
      0.000010      -0.000069       0.000000
      0.000031       0.000016       0.000000
     -0.000115       0.000009       0.000000
     -0.000127      -0.000095       0.000000
      0.000103       0.000019       0.000000
      0.000126       0.000098       0.000000
      0.000055       0.000130       0.000000
      0.000031       0.000016       0.000000
      0.000126       0.000098       0.000000
      0.000139       0.000209       0.000000
      0.000074       0.000299       0.000000
      0.000055       0.000130       0.000000
      0.000031       0.000016       0.000000
      0.000055       0.000130       0.000000
     -0.000100       0.000145       0.000000
     -0.000115       0.000009       0.000000
      0.000055       0.000130       0.000000
      0.000074       0.000299       0.000000
     -0.000079       0.000362       0.000000
     -0.000100       0.000145       0.000000
      0.000139       0.000209       0.000000
      0.000125       0.000350       0.000000
      0.000062       0.000536       0.000000
      0.000074       0.000299       0.000000
      0.000125       0.000350       0.000000
      0.000063       0.000504       0.000000
     -0.000018       0.000808       0.000000
      0.000062       0.000536       0.000000
      0.000074       0.000299       0.000000
      0.000062       0.000536       0.000000
     -0.000076       0.000708       0.000000
     -0.000079       0.000362       0.000000
      0.000062       0.000536       0.000000
     -0.000018       0.000808       0.000000
     -0.000162       0.001154       0.000000
     -0.000076       0.000708       0.000000
     -0.000141      -0.000216       0.000000
     -0.000127      -0.000095       0.000000
     -0.000296      -0.000109       0.000000
     -0.000298      -0.000243       0.000000
     -0.000127      -0.000095       0.000000
     -0.000115       0.000009       0.000000
     -0.000305       0.000007       0.000000
     -0.000296      -0.000109       0.000000
     -0.000298      -0.000243       0.000000
     -0.000296      -0.000109       0.000000
     -0.000449      -0.000108       0.000000
     -0.000447      -0.000245       0.000000
     -0.000296      -0.000109       0.000000
     -0.000305       0.000007       0.000000
     -0.000477       0.000020       0.000000
     -0.000449      -0.000108       0.000000
     -0.000115       0.000009       0.000000
     -0.000100       0.000145       0.000000
     -0.000323       0.000151       0.000000
     -0.000305       0.000007       0.000000
     -0.000100       0.000145       0.000000
     -0.000079       0.000362       0.000000
     -0.000340       0.000388       0.000000
     -0.000323       0.000151       0.000000
     -0.000305       0.000007       0.000000
     -0.000323       0.000151       0.000000
     -0.000551       0.000177       0.000000
     -0.000477       0.000020       0.000000
     -0.000323       0.000151       0.000000
     -0.000340       0.000388       0.000000
     -0.000681       0.000424       0.000000
     -0.000551       0.000177       0.000000
     -0.000079       0.000362       0.000000
     -0.000072       0.000517       0.000000
     -0.000187       0.000552       0.000000
     -0.000195       0.000378       0.000000
     -0.000072       0.000517       0.000000
     -0.000076       0.000708       0.000000
     -0.000185       0.000778       0.000000
     -0.000187       0.000552       0.000000
     -0.000195       0.000378       0.000000
     -0.000187       0.000552       0.000000
     -0.000342       0.000572       0.000000
     -0.000340       0.000388       0.000000
     -0.000187       0.000552       0.000000
     -0.000185       0.000778       0.000000
     -0.000338       0.000825       0.000000
     -0.000342       0.000572       0.000000
     -0.000076       0.000708       0.000000
     -0.000103       0.000928       0.000000
     -0.000203       0.001053       0.000000
     -0.000185       0.000778       0.000000
     -0.000103       0.000928       0.000000
     -0.000162       0.001154       0.000000
     -0.000264       0.001350       0.000000
     -0.000203       0.001053       0.000000
     -0.000185       0.000778       0.000000
     -0.000203       0.001053       0.000000
     -0.000342       0.001167       0.000000
     -0.000338       0.000825       0.000000
     -0.000203       0.001053       0.000000
     -0.000264       0.001350       0.000000
     -0.000399       0.001572       0.000000
     -0.000342       0.001167       0.000000
     -0.000340       0.000388       0.000000
     -0.000342       0.000572       0.000000
     -0.000542       0.000584       0.000000
     -0.000509       0.000399       0.000000
     -0.000342       0.000572       0.000000
     -0.000338       0.000825       0.000000
     -0.000565       0.000846       0.000000
     -0.000542       0.000584       0.000000
     -0.000509       0.000399       0.000000
     -0.000542       0.000584       0.000000
     -0.000767       0.000611       0.000000
     -0.000681       0.000424       0.000000
     -0.000542       0.000584       0.000000
     -0.000565       0.000846       0.000000
     -0.000871       0.000873       0.000000
     -0.000767       0.000611       0.000000
     -0.000338       0.000825       0.000000
     -0.000337       0.000985       0.000000
     -0.000438       0.001009       0.000000
     -0.000441       0.000838       0.000000
     -0.000337       0.000985       0.000000
     -0.000342       0.001167       0.000000
     -0.000437       0.001213       0.000000
     -0.000438       0.001009       0.000000
     -0.000441       0.000838       0.000000
     -0.000438       0.001009       0.000000
     -0.000569       0.001022       0.000000
     -0.000565       0.000846       0.000000
     -0.000438       0.001009       0.000000
     -0.000437       0.001213       0.000000
     -0.000565       0.001244       0.000000
     -0.000569       0.001022       0.000000
     -0.000342       0.001167       0.000000
     -0.000361       0.001368       0.000000
     -0.000449       0.001451       0.000000
     -0.000437       0.001213       0.000000
     -0.000361       0.001368       0.000000
     -0.000399       0.001572       0.000000
     -0.000487       0.001701       0.000000
     -0.000449       0.001451       0.000000
     -0.000437       0.001213       0.000000
     -0.000449       0.001451       0.000000
     -0.000564       0.001528       0.000000
     -0.000565       0.001244       0.000000
     -0.000449       0.001451       0.000000
     -0.000487       0.001701       0.000000
     -0.000599       0.001855       0.000000
     -0.000564       0.001528       0.000000
     -0.000565       0.000846       0.000000
     -0.000569       0.001022       0.000000
     -0.000736       0.001030       0.000000
     -0.000713       0.000855       0.000000
     -0.000569       0.001022       0.000000
     -0.000565       0.001244       0.000000
     -0.000749       0.001257       0.000000
     -0.000736       0.001030       0.000000
     -0.000713       0.000855       0.000000
     -0.000736       0.001030       0.000000
     -0.000931       0.001048       0.000000
     -0.000871       0.000873       0.000000
     -0.000736       0.001030       0.000000
     -0.000749       0.001257       0.000000
     -0.000999       0.001273       0.000000
     -0.000931       0.001048       0.000000
     -0.000565       0.001244       0.000000
     -0.000563       0.001378       0.000000
     -0.000644       0.001393       0.000000
     -0.000649       0.001252       0.000000
     -0.000563       0.001378       0.000000
     -0.000564       0.001528       0.000000
     -0.000640       0.001559       0.000000
     -0.000644       0.001393       0.000000
     -0.000649       0.001252       0.000000
     -0.000644       0.001393       0.000000
     -0.000748       0.001402       0.000000
     -0.000749       0.001257       0.000000
     -0.000644       0.001393       0.000000
     -0.000640       0.001559       0.000000
     -0.000741       0.001580       0.000000
     -0.000748       0.001402       0.000000
     -0.000564       0.001528       0.000000
     -0.000574       0.001690       0.000000
     -0.000645       0.001749       0.000000
     -0.000640       0.001559       0.000000
     -0.000574       0.001690       0.000000
     -0.000599       0.001855       0.000000
     -0.000668       0.001948       0.000000
     -0.000645       0.001749       0.000000
     -0.000640       0.001559       0.000000
     -0.000645       0.001749       0.000000
     -0.000734       0.001807       0.000000
     -0.000741       0.001580       0.000000
     -0.000645       0.001749       0.000000
     -0.000668       0.001948       0.000000
     -0.000756       0.002066       0.000000
     -0.000734       0.001807       0.000000
     -0.000749       0.001257       0.000000
     -0.000748       0.001402       0.000000
     -0.000881       0.001406       0.000000
     -0.000869       0.001262       0.000000
     -0.000748       0.001402       0.000000
     -0.000741       0.001580       0.000000
     -0.000885       0.001588       0.000000
     -0.000881       0.001406       0.000000
     -0.000869       0.001262       0.000000
     -0.000881       0.001406       0.000000
     -0.001038       0.001417       0.000000
     -0.000999       0.001273       0.000000
     -0.000881       0.001406       0.000000
     -0.000885       0.001588       0.000000
     -0.001084       0.001599       0.000000
     -0.001038       0.001417       0.000000
     -0.000741       0.001580       0.000000
     -0.000734       0.001807       0.000000
     -0.000870       0.001847       0.000000
     -0.000885       0.001588       0.000000
     -0.000734       0.001807       0.000000
     -0.000756       0.002066       0.000000
     -0.000880       0.002237       0.000000
     -0.000870       0.001847       0.000000
     -0.000885       0.001588       0.000000
     -0.000870       0.001847       0.000000
     -0.001145       0.001868       0.000000
     -0.001084       0.001599       0.000000
     -0.000870       0.001847       0.000000
     -0.000880       0.002237       0.000000
     -0.001216       0.002703       0.000000
     -0.001145       0.001868       0.000000
      0.000000       0.000000       0.000000
      0.000000       0.000000       0.000000
      0.000017       0.000292       0.000000
      0.000076       0.000234       0.000000
      0.000000       0.000000       0.000000
      0.000000       0.000000       0.000000
     -0.000061       0.000337       0.000000
      0.000017       0.000292       0.000000
      0.000076       0.000234       0.000000
      0.000017       0.000292       0.000000
     -0.000046       0.000638       0.000000
      0.000063       0.000504       0.000000
      0.000017       0.000292       0.000000
     -0.000061       0.000337       0.000000
     -0.000189       0.000737       0.000000
     -0.000046       0.000638       0.000000
      0.000000       0.000000       0.000000
      0.000000       0.000000       0.000000
     -0.000150       0.000371       0.000000
     -0.000061       0.000337       0.000000
      0.000000       0.000000       0.000000
      0.000000       0.000000       0.000000
     -0.000253       0.000409       0.000000
     -0.000150       0.000371       0.000000
     -0.000061       0.000337       0.000000
     -0.000150       0.000371       0.000000
     -0.000349       0.000809       0.000000
     -0.000189       0.000737       0.000000
     -0.000150       0.000371       0.000000
     -0.000253       0.000409       0.000000
     -0.000525       0.000884       0.000000
     -0.000349       0.000809       0.000000
      0.000000       0.000000       0.000000
      0.000000       0.000000       0.000000
     -0.000393       0.000491       0.000000
     -0.000253       0.000409       0.000000
      0.000000       0.000000       0.000000
      0.000000       0.000000       0.000000
     -0.000608       0.000741       0.000000
     -0.000393       0.000491       0.000000
     -0.000253       0.000409       0.000000
     -0.000393       0.000491       0.000000
     -0.000721       0.001010       0.000000
     -0.000525       0.000884       0.000000
     -0.000393       0.000491       0.000000
     -0.000608       0.000741       0.000000
     -0.000927       0.001233       0.000000
     -0.000721       0.001010       0.000000
      0.000063       0.000504       0.000000
     -0.000046       0.000638       0.000000
     -0.000173       0.001042       0.000000
     -0.000018       0.000808       0.000000
     -0.000046       0.000638       0.000000
     -0.000189       0.000737       0.000000
     -0.000369       0.001197       0.000000
     -0.000173       0.001042       0.000000
     -0.000018       0.000808       0.000000
     -0.000173       0.001042       0.000000
     -0.000366       0.001519       0.000000
     -0.000162       0.001154       0.000000
     -0.000173       0.001042       0.000000
     -0.000369       0.001197       0.000000
     -0.000594       0.001707       0.000000
     -0.000366       0.001519       0.000000
     -0.000189       0.000737       0.000000
     -0.000349       0.000809       0.000000
     -0.000573       0.001293       0.000000
     -0.000369       0.001197       0.000000
     -0.000349       0.000809       0.000000
     -0.000525       0.000884       0.000000
     -0.000776       0.001377       0.000000
     -0.000573       0.001293       0.000000
     -0.000369       0.001197       0.000000
     -0.000573       0.001293       0.000000
     -0.000799       0.001794       0.000000
     -0.000594       0.001707       0.000000
     -0.000573       0.001293       0.000000
     -0.000776       0.001377       0.000000
     -0.000993       0.001860       0.000000
     -0.000799       0.001794       0.000000
     -0.000525       0.000884       0.000000
     -0.000721       0.001010       0.000000
     -0.000978       0.001495       0.000000
     -0.000776       0.001377       0.000000
     -0.000721       0.001010       0.000000
     -0.000927       0.001233       0.000000
     -0.001169       0.001675       0.000000
     -0.000978       0.001495       0.000000
     -0.000776       0.001377       0.000000
     -0.000978       0.001495       0.000000
     -0.001182       0.001948       0.000000
     -0.000993       0.001860       0.000000
     -0.000978       0.001495       0.000000
     -0.001169       0.001675       0.000000
     -0.001358       0.002081       0.000000
     -0.001182       0.001948       0.000000
     -0.000594       0.001707       0.000000
     -0.000799       0.001794       0.000000
     -0.000990       0.002277       0.000000
     -0.000838       0.002232       0.000000
     -0.000799       0.001794       0.000000
     -0.000993       0.001860       0.000000
     -0.001151       0.002318       0.000000
     -0.000990       0.002277       0.000000
     -0.000838       0.002232       0.000000
     -0.000990       0.002277       0.000000
     -0.001077       0.002727       0.000000
     -0.000973       0.002708       0.000000
     -0.000990       0.002277       0.000000
     -0.001151       0.002318       0.000000
     -0.001220       0.002755       0.000000
     -0.001077       0.002727       0.000000
     -0.000993       0.001860       0.000000
     -0.001182       0.001948       0.000000
     -0.001322       0.002375       0.000000
     -0.001151       0.002318       0.000000
     -0.001182       0.001948       0.000000
     -0.001358       0.002081       0.000000
     -0.001488       0.002455       0.000000
     -0.001322       0.002375       0.000000
     -0.001151       0.002318       0.000000
     -0.001322       0.002375       0.000000
     -0.001383       0.002787       0.000000
     -0.001220       0.002755       0.000000
     -0.001322       0.002375       0.000000
     -0.001488       0.002455       0.000000
     -0.001546       0.002813       0.000000
     -0.001383       0.002787       0.000000
     -0.000162       0.001154       0.000000
     -0.000254       0.001358       0.000000
     -0.000371       0.001610       0.000000
     -0.000264       0.001350       0.000000
     -0.000254       0.001358       0.000000
     -0.000366       0.001519       0.000000
     -0.000496       0.001795       0.000000
     -0.000371       0.001610       0.000000
     -0.000264       0.001350       0.000000
     -0.000371       0.001610       0.000000
     -0.000527       0.001910       0.000000
     -0.000399       0.001572       0.000000
     -0.000371       0.001610       0.000000
     -0.000496       0.001795       0.000000
     -0.000657       0.002100       0.000000
     -0.000527       0.001910       0.000000
     -0.000366       0.001519       0.000000
     -0.000482       0.001632       0.000000
     -0.000614       0.001908       0.000000
     -0.000496       0.001795       0.000000
     -0.000482       0.001632       0.000000
     -0.000594       0.001707       0.000000
     -0.000718       0.001972       0.000000
     -0.000614       0.001908       0.000000
     -0.000496       0.001795       0.000000
     -0.000614       0.001908       0.000000
     -0.000757       0.002189       0.000000