# vtk DataFile Version 2.0
time_10.vtk
ASCII
DATASET UNSTRUCTURED_GRID
POINTS  1152 float
      0.000000       0.000000       0.000000
      0.083333       0.000000       0.000000
      0.083333       0.083333       0.000000
      0.000000       0.083333       0.000000
      0.083333       0.000000       0.000000
      0.166667       0.000000       0.000000
      0.166667       0.083333       0.000000
      0.083333       0.083333       0.000000
      0.000000       0.083333       0.000000
      0.083333       0.083333       0.000000
      0.083333       0.166667       0.000000
      0.000000       0.166667       0.000000
      0.083333       0.083333       0.000000
      0.166667       0.083333       0.000000
      0.166667       0.166667       0.000000
      0.083333       0.166667       0.000000
      0.166667       0.000000       0.000000
      0.250000       0.000000       0.000000
      0.250000       0.083333       0.000000
      0.166667       0.083333       0.000000
      0.250000       0.000000       0.000000
      0.333333       0.000000       0.000000
      0.333333       0.083333       0.000000
      0.250000       0.083333       0.000000
      0.166667       0.083333       0.000000
      0.250000       0.083333       0.000000
      0.250000       0.166667       0.000000
      0.166667       0.166667       0.000000
      0.250000       0.083333       0.000000
      0.333333       0.083333       0.000000
      0.333333       0.166667       0.000000
      0.250000       0.166667       0.000000
      0.333333       0.000000       0.000000
      0.416667      -0.000000       0.000000
      0.416667       0.083333       0.000000
      0.333333       0.083333       0.000000
      0.416667      -0.000000       0.000000
      0.500000       0.000000       0.000000
      0.500000       0.083333       0.000000
      0.416667       0.083333       0.000000
      0.333333       0.083333       0.000000
      0.416667       0.083333       0.000000
      0.416667       0.166667       0.000000
      0.333333       0.166667       0.000000
      0.416667       0.083333       0.000000
      0.500000       0.083333       0.000000
      0.500000       0.166667       0.000000
      0.416667       0.166667       0.000000
      0.000000       0.166667       0.000000
      0.083333       0.166667       0.000000
      0.083333       0.250000       0.000000
      0.000000       0.250000       0.000000
      0.083333       0.166667       0.000000
      0.166667       0.166667       0.000000
      0.166667       0.250000       0.000000
      0.083333       0.250000       0.000000
      0.000000       0.250000       0.000000
      0.083333       0.250000       0.000000
      0.083333       0.333333       0.000000
      0.000000       0.333333       0.000000
      0.083333       0.250000       0.000000
      0.166667       0.250000       0.000000
      0.166667       0.333333       0.000000
      0.083333       0.333333       0.000000
      0.166667       0.166667       0.000000
      0.250000       0.166667       0.000000
      0.250000       0.250000       0.000000
      0.166667       0.250000       0.000000
      0.250000       0.166667       0.000000
      0.333333       0.166667       0.000000
      0.333333       0.250000       0.000000
      0.250000       0.250000       0.000000
      0.166667       0.250000       0.000000
      0.250000       0.250000       0.000000
      0.250000       0.333333       0.000000
      0.166667       0.333333       0.000000
      0.250000       0.250000       0.000000
      0.333333       0.250000       0.000000
      0.333333       0.333333       0.000000
      0.250000       0.333333       0.000000
      0.333333       0.166667       0.000000
      0.416667       0.166667       0.000000
      0.416667       0.250000       0.000000
      0.333333       0.250000       0.000000
      0.416667       0.166667       0.000000
      0.500000       0.166667       0.000000
      0.500000       0.250000       0.000000
      0.416667       0.250000       0.000000
      0.333333       0.250000       0.000000
      0.416667       0.250000       0.000000
      0.416667       0.333333       0.000000
      0.333333       0.333333       0.000000
      0.416667       0.250000       0.000000
      0.500000       0.250000       0.000000
      0.500000       0.333333       0.000000
      0.416667       0.333333       0.000000
      0.000000       0.333333       0.000000
      0.083333       0.333333       0.000000
      0.083333       0.416667       0.000000
     -0.000000       0.416667       0.000000
      0.083333       0.333333       0.000000
      0.166667       0.333333       0.000000
      0.166667       0.416667       0.000000
      0.083333       0.416667       0.000000
     -0.000000       0.416667       0.000000
      0.083333       0.416667       0.000000
      0.083333       0.500000       0.000000
      0.000000       0.500000       0.000000
      0.083333       0.416667       0.000000
      0.166667       0.416667       0.000000
      0.166667       0.500000       0.000000
      0.083333       0.500000       0.000000
      0.166667       0.333333       0.000000
      0.250000       0.333333       0.000000
      0.250000       0.416667       0.000000
      0.166667       0.416667       0.000000
      0.250000       0.333333       0.000000
      0.333333       0.333333       0.000000
      0.333333       0.416667       0.000000
      0.250000       0.416667       0.000000
      0.166667       0.416667       0.000000
      0.250000       0.416667       0.000000
      0.250000       0.500000       0.000000
      0.166667       0.500000       0.000000
      0.250000       0.416667       0.000000
      0.333333       0.416667       0.000000
      0.333333       0.500000       0.000000
      0.250000       0.500000       0.000000
      0.333333       0.333333       0.000000
      0.375000       0.333333       0.000000
      0.375000       0.375000       0.000000
      0.333333       0.375000       0.000000
      0.375000       0.333333       0.000000
      0.416667       0.333333       0.000000
      0.416667       0.375000       0.000000
      0.375000       0.375000       0.000000
      0.333333       0.375000       0.000000
      0.375000       0.375000       0.000000
      0.375000       0.416667       0.000000
      0.333333       0.416667       0.000000
      0.375000       0.375000       0.000000
      0.416667       0.375000       0.000000
      0.416667       0.416667       0.000000
      0.375000       0.416667       0.000000
      0.416667       0.333333       0.000000
      0.458333       0.333333       0.000000
      0.458333       0.375000       0.000000
      0.416667       0.375000       0.000000
      0.458333       0.333333       0.000000
      0.500000       0.333333       0.000000
      0.500000       0.375000       0.000000
      0.458333       0.375000       0.000000
      0.416667       0.375000       0.000000
      0.458333       0.375000       0.000000
      0.458333       0.416667       0.000000
      0.416667       0.416667       0.000000
      0.458333       0.375000       0.000000
      0.500000       0.375000       0.000000
      0.500000       0.416667       0.000000
      0.458333       0.416667       0.000000
      0.333333       0.416667       0.000000
      0.375000       0.416667       0.000000
      0.375000       0.458333       0.000000
      0.333333       0.458333       0.000000
      0.375000       0.416667       0.000000
      0.416667       0.416667       0.000000
      0.416667       0.458333       0.000000
      0.375000       0.458333       0.000000
      0.333333       0.458333       0.000000
      0.375000       0.458333       0.000000
      0.375000       0.500000       0.000000
      0.333333       0.500000       0.000000
      0.375000       0.458333       0.000000
      0.416667       0.458333       0.000000
      0.416667       0.500000       0.000000
      0.375000       0.500000       0.000000
      0.416667       0.416667       0.000000
      0.437500       0.416667       0.000000
      0.437500       0.437500       0.000000
      0.416667       0.437500       0.000000
      0.437500       0.416667       0.000000
      0.458333       0.416667       0.000000
      0.458333       0.437500       0.000000
      0.437500       0.437500       0.000000
      0.416667       0.437500       0.000000
      0.437500       0.437500       0.000000
      0.437500       0.458333       0.000000
      0.416667       0.458333       0.000000
      0.437500       0.437500       0.000000
      0.458333       0.437500       0.000000
      0.458333       0.458333       0.000000
      0.437500       0.458333       0.000000
      0.458333       0.416667       0.000000
      0.479167       0.416667       0.000000
      0.479167       0.437500       0.000000
      0.458333       0.437500       0.000000
      0.479167       0.416667       0.000000
      0.500000       0.416667       0.000000
      0.500000       0.437500       0.000000
      0.479167       0.437500       0.000000
      0.458333       0.437500       0.000000
      0.479167       0.437500       0.000000
      0.479167       0.458333       0.000000
      0.458333       0.458333       0.000000
      0.479167       0.437500       0.000000
      0.500000       0.437500       0.000000
      0.500000       0.458333       0.000000
      0.479167       0.458333       0.000000
      0.416667       0.458333       0.000000
      0.437500       0.458333       0.000000
      0.437500       0.479167       0.000000
      0.416667       0.479167       0.000000
      0.437500       0.458333       0.000000
      0.458333       0.458333       0.000000
      0.458333       0.479167       0.000000
      0.437500       0.479167       0.000000
      0.416667       0.479167       0.000000
      0.437500       0.479167       0.000000
      0.437500       0.500000       0.000000
      0.416667       0.500000       0.000000
[...]
POINT_DATA  1152
VECTORS U float 
      0.000000       0.000000       0.000000
      0.000000       0.000000       0.000000
      0.000073      -0.000016       0.000000
      0.000054      -0.000017       0.000000
      0.000000       0.000000       0.000000
      0.000000       0.000000       0.000000
      0.000093       0.000014       0.000000
      0.000073      -0.000016       0.000000
      0.000054      -0.000017       0.000000
      0.000073      -0.000016       0.000000
      0.000080      -0.000042       0.000000
      0.000056      -0.000086       0.000000
      0.000073      -0.000016       0.000000
      0.000093       0.000014       0.000000
      0.000103       0.000018       0.000000
      0.000080      -0.000042       0.000000
      0.000000       0.000000       0.000000
      0.000000       0.000000       0.000000
      0.000111       0.000055       0.000000
      0.000093       0.000014       0.000000
      0.000000       0.000000       0.000000
      0.000000       0.000000       0.000000
      0.000120       0.000108       0.000000
      0.000111       0.000055       0.000000
      0.000093       0.000014       0.000000
      0.000111       0.000055       0.000000
      0.000126       0.000099       0.000000
      0.000103       0.000018       0.000000
      0.000111       0.000055       0.000000
      0.000120       0.000108       0.000000
      0.000141       0.000211       0.000000
      0.000126       0.000099       0.000000
      0.000000       0.000000       0.000000
      0.000000       0.000000       0.000000
      0.000112       0.000171       0.000000
      0.000120       0.000108       0.000000
      0.000000       0.000000       0.000000
      0.000000       0.000000       0.000000
      0.000078       0.000238       0.000000
      0.000112       0.000171       0.000000
      0.000120       0.000108       0.000000
      0.000112       0.000171       0.000000
      0.000126       0.000355       0.000000
      0.000141       0.000211       0.000000
      0.000112       0.000171       0.000000
      0.000078       0.000238       0.000000
      0.000064       0.000512       0.000000
      0.000126       0.000355       0.000000
      0.000056      -0.000086       0.000000
      0.000080      -0.000042       0.000000
      0.000007      -0.000072       0.000000
     -0.000016      -0.000163       0.000000
      0.000080      -0.000042       0.000000
      0.000103       0.000018       0.000000
      0.000028       0.000015       0.000000
      0.000007      -0.000072       0.000000
     -0.000016      -0.000163       0.000000
      0.000007      -0.000072       0.000000
     -0.000132      -0.000098       0.000000
     -0.000147      -0.000222       0.000000
      0.000007      -0.000072       0.000000
      0.000028       0.000015       0.000000
     -0.000121       0.000008       0.000000
     -0.000132      -0.000098       0.000000
      0.000103       0.000018       0.000000
      0.000126       0.000099       0.000000
      0.000053       0.000130       0.000000
      0.000028       0.000015       0.000000
      0.000126       0.000099       0.000000
      0.000141       0.000211       0.000000
      0.000073       0.000302       0.000000
      0.000053       0.000130       0.000000
      0.000028       0.000015       0.000000
      0.000053       0.000130       0.000000
     -0.000105       0.000145       0.000000
     -0.000121       0.000008       0.000000
      0.000053       0.000130       0.000000
      0.000073       0.000302       0.000000
     -0.000084       0.000365       0.000000
     -0.000105       0.000145       0.000000
      0.000141       0.000211       0.000000
      0.000126       0.000355       0.000000
      0.000062       0.000543       0.000000
      0.000073       0.000302       0.000000
      0.000126       0.000355       0.000000
      0.000064       0.000512       0.000000
     -0.000019       0.000821       0.000000
      0.000062       0.000543       0.000000
      0.000073       0.000302       0.000000
      0.000062       0.000543       0.000000
     -0.000081       0.000717       0.000000
     -0.000084       0.000365       0.000000
      0.000062       0.000543       0.000000
     -0.000019       0.000821       0.000000
     -0.000167       0.001171       0.000000
     -0.000081       0.000717       0.000000
     -0.000147      -0.000222       0.000000
     -0.000132      -0.000098       0.000000
     -0.000304      -0.000112       0.000000
     -0.000307      -0.000249       0.000000
     -0.000132      -0.000098       0.000000
     -0.000121       0.000008       0.000000
     -0.000314       0.000005       0.000000
     -0.000304      -0.000112       0.000000
     -0.000307      -0.000249       0.000000
     -0.000304      -0.000112       0.000000
     -0.000460      -0.000111       0.000000
     -0.000458      -0.000251       0.000000
     -0.000304      -0.000112       0.000000
     -0.000314       0.000005       0.000000
     -0.000489       0.000019       0.000000
     -0.000460      -0.000111       0.000000
     -0.000121       0.000008       0.000000
     -0.000105       0.000145       0.000000
     -0.000332       0.000152       0.000000
     -0.000314       0.000005       0.000000
     -0.000105       0.000145       0.000000
     -0.000084       0.000365       0.000000
     -0.000350       0.000392       0.000000
     -0.000332       0.000152       0.000000
     -0.000314       0.000005       0.000000
     -0.000332       0.000152       0.000000
     -0.000565       0.000178       0.000000
     -0.000489       0.000019       0.000000
     -0.000332       0.000152       0.000000
     -0.000350       0.000392       0.000000
     -0.000696       0.000428       0.000000
     -0.000565       0.000178       0.000000
     -0.000084       0.000365       0.000000
     -0.000077       0.000523       0.000000
     -0.000195       0.000558       0.000000
     -0.000203       0.000382       0.000000
     -0.000077       0.000523       0.000000
     -0.000081       0.000717       0.000000
     -0.000192       0.000787       0.000000
     -0.000195       0.000558       0.000000
     -0.000203       0.000382       0.000000
     -0.000195       0.000558       0.000000
     -0.000353       0.000578       0.000000
     -0.000350       0.000392       0.000000
     -0.000195       0.000558       0.000000
     -0.000192       0.000787       0.000000
     -0.000349       0.000834       0.000000
     -0.000353       0.000578       0.000000
     -0.000081       0.000717       0.000000
     -0.000107       0.000940       0.000000
     -0.000210       0.001067       0.000000
     -0.000192       0.000787       0.000000
     -0.000107       0.000940       0.000000
     -0.000167       0.001171       0.000000
     -0.000272       0.001369       0.000000
     -0.000210       0.001067       0.000000
     -0.000192       0.000787       0.000000
     -0.000210       0.001067       0.000000
     -0.000353       0.001181       0.000000
     -0.000349       0.000834       0.000000
     -0.000210       0.001067       0.000000
     -0.000272       0.001369       0.000000
     -0.000410       0.001594       0.000000
     -0.000353       0.001181       0.000000
     -0.000350       0.000392       0.000000
     -0.000353       0.000578       0.000000
     -0.000556       0.000591       0.000000
     -0.000522       0.000403       0.000000
     -0.000353       0.000578       0.000000
     -0.000349       0.000834       0.000000
     -0.000580       0.000856       0.000000
     -0.000556       0.000591       0.000000
     -0.000522       0.000403       0.000000
     -0.000556       0.000591       0.000000
     -0.000785       0.000618       0.000000
     -0.000696       0.000428       0.000000
     -0.000556       0.000591       0.000000
     -0.000580       0.000856       0.000000
     -0.000890       0.000883       0.000000
     -0.000785       0.000618       0.000000
     -0.000349       0.000834       0.000000
     -0.000348       0.000996       0.000000
     -0.000451       0.001020       0.000000
     -0.000454       0.000847       0.000000
     -0.000348       0.000996       0.000000
     -0.000353       0.001181       0.000000
     -0.000451       0.001227       0.000000
     -0.000451       0.001020       0.000000
     -0.000454       0.000847       0.000000
     -0.000451       0.001020       0.000000
     -0.000584       0.001033       0.000000
     -0.000580       0.000856       0.000000
     -0.000451       0.001020       0.000000
     -0.000451       0.001227       0.000000
     -0.000581       0.001258       0.000000
     -0.000584       0.001033       0.000000
     -0.000353       0.001181       0.000000
     -0.000371       0.001385       0.000000
     -0.000462       0.001468       0.000000
     -0.000451       0.001227       0.000000
     -0.000371       0.001385       0.000000
     -0.000410       0.001594       0.000000
     -0.000500       0.001723       0.000000
     -0.000462       0.001468       0.000000
     -0.000451       0.001227       0.000000
     -0.000462       0.001468       0.000000
     -0.000580       0.001544       0.000000
     -0.000581       0.001258       0.000000
     -0.000462       0.001468       0.000000
     -0.000500       0.001723       0.000000
     -0.000614       0.001877       0.000000
     -0.000580       0.001544       0.000000
     -0.000580       0.000856       0.000000
     -0.000584       0.001033       0.000000
     -0.000754       0.001042       0.000000
     -0.000730       0.000865       0.000000
     -0.000584       0.001033       0.000000
     -0.000581       0.001258       0.000000
     -0.000768       0.001271       0.000000
     -0.000754       0.001042       0.000000
     -0.000730       0.000865       0.000000
     -0.000754       0.001042       0.000000
     -0.000951       0.001060       0.000000
     -0.000890       0.000883       0.000000
     -0.000754       0.001042       0.000000
     -0.000768       0.001271       0.000000
     -0.001020       0.001288       0.000000
     -0.000951       0.001060       0.000000
     -0.000581       0.001258       0.000000
     -0.000579       0.001393       0.000000
     -0.000662       0.001408       0.000000
     -0.000666       0.001266       0.000000
     -0.000579       0.001393       0.000000
     -0.000580       0.001544       0.000000
     -0.000658       0.001575       0.000000
     -0.000662       0.001408       0.000000
     -0.000666       0.001266       0.000000
     -0.000662       0.001408       0.000000
     -0.000767       0.001416       0.000000
     -0.000768       0.001271       0.000000
     -0.000662       0.001408       0.000000
     -0.000658       0.001575       0.000000
     -0.000760       0.001597       0.000000
     -0.000767       0.001416       0.000000
     -0.000580       0.001544       0.000000
     -0.000590       0.001709       0.000000
     -0.000662       0.001768       0.000000
     -0.000658       0.001575       0.000000
     -0.000590       0.001709       0.000000
     -0.000614       0.001877       0.000000
     -0.000686       0.001971       0.000000
     -0.000662       0.001768       0.000000
     -0.000658       0.001575       0.000000
     -0.000662       0.001768       0.000000
     -0.000753       0.001826       0.000000
     -0.000760       0.001597       0.000000
     -0.000662       0.001768       0.000000
     -0.000686       0.001971       0.000000
     -0.000775       0.002090       0.000000
     -0.000753       0.001826       0.000000
     -0.000768       0.001271       0.000000
     -0.000767       0.001416       0.000000
     -0.000902       0.001421       0.000000
     -0.000889       0.001276       0.000000
     -0.000767       0.001416       0.000000
     -0.000760       0.001597       0.000000
     -0.000906       0.001604       0.000000
     -0.000902       0.001421       0.000000
     -0.000889       0.001276       0.000000
     -0.000902       0.001421       0.000000
     -0.001060       0.001433       0.000000
     -0.001020       0.001288       0.000000
     -0.000902       0.001421       0.000000
     -0.000906       0.001604       0.000000
     -0.001107       0.001617       0.000000
     -0.001060       0.001433       0.000000
     -0.000760       0.001597       0.000000
     -0.000753       0.001826       0.000000
     -0.000891       0.001867       0.000000
     -0.000906       0.001604       0.000000
     -0.000753       0.001826       0.000000
     -0.000775       0.002090       0.000000
     -0.000901       0.002267       0.000000
     -0.000891       0.001867       0.000000
     -0.000906       0.001604       0.000000
     -0.000891       0.001867       0.000000
     -0.001172       0.001892       0.000000
     -0.001107       0.001617       0.000000
     -0.000891       0.001867       0.000000
     -0.000901       0.002267       0.000000
     -0.001251       0.002771       0.000000
     -0.001172       0.001892       0.000000
      0.000000       0.000000       0.000000
      0.000000       0.000000       0.000000
      0.000017       0.000298       0.000000
      0.000078       0.000238       0.000000
      0.000000       0.000000       0.000000
      0.000000       0.000000       0.000000
     -0.000062       0.000344       0.000000
      0.000017       0.000298       0.000000
      0.000078       0.000238       0.000000
      0.000017       0.000298       0.000000
     -0.000047       0.000650       0.000000
      0.000064       0.000512       0.000000
      0.000017       0.000298       0.000000
     -0.000062       0.000344       0.000000
     -0.000193       0.000753       0.000000
     -0.000047       0.000650       0.000000
      0.000000       0.000000       0.000000
      0.000000       0.000000       0.000000
     -0.000153       0.000379       0.000000
     -0.000062       0.000344       0.000000
      0.000000       0.000000       0.000000
      0.000000       0.000000       0.000000
     -0.000258       0.000419       0.000000
     -0.000153       0.000379       0.000000
     -0.000062       0.000344       0.000000
     -0.000153       0.000379       0.000000
     -0.000357       0.000828       0.000000
     -0.000193       0.000753       0.000000
     -0.000153       0.000379       0.000000
     -0.000258       0.000419       0.000000
     -0.000537       0.000906       0.000000
     -0.000357       0.000828       0.000000
      0.000000       0.000000       0.000000
      0.000000       0.000000       0.000000
     -0.000403       0.000504       0.000000
     -0.000258       0.000419       0.000000
      0.000000       0.000000       0.000000
      0.000000       0.000000       0.000000
     -0.000624       0.000761       0.000000
     -0.000403       0.000504       0.000000
     -0.000258       0.000419       0.000000
     -0.000403       0.000504       0.000000
     -0.000739       0.001037       0.000000
     -0.000537       0.000906       0.000000
     -0.000403       0.000504       0.000000
     -0.000624       0.000761       0.000000
     -0.000950       0.001266       0.000000
     -0.000739       0.001037       0.000000
      0.000064       0.000512       0.000000
     -0.000047       0.000650       0.000000
     -0.000177       0.001062       0.000000
     -0.000019       0.000821       0.000000
     -0.000047       0.000650       0.000000
     -0.000193       0.000753       0.000000
     -0.000377       0.001223       0.000000
     -0.000177       0.001062       0.000000
     -0.000019       0.000821       0.000000
     -0.000177       0.001062       0.000000
     -0.000374       0.001549       0.000000
     -0.000167       0.001171       0.000000
     -0.000177       0.001062       0.000000
     -0.000377       0.001223       0.000000
     -0.000609       0.001746       0.000000
     -0.000374       0.001549       0.000000
     -0.000193       0.000753       0.000000
     -0.000357       0.000828       0.000000
     -0.000587       0.001324       0.000000
     -0.000377       0.001223       0.000000
     -0.000357       0.000828       0.000000
     -0.000537       0.000906       0.000000
     -0.000796       0.001412       0.000000
     -0.000587       0.001324       0.000000
     -0.000377       0.001223       0.000000
     -0.000587       0.001324       0.000000
     -0.000820       0.001838       0.000000
     -0.000609       0.001746       0.000000
     -0.000587       0.001324       0.000000
     -0.000796       0.001412       0.000000
     -0.001019       0.001907       0.000000
     -0.000820       0.001838       0.000000
     -0.000537       0.000906       0.000000
     -0.000739       0.001037       0.000000
     -0.001003       0.001534       0.000000
     -0.000796       0.001412       0.000000
     -0.000739       0.001037       0.000000
     -0.000950       0.001266       0.000000
     -0.001199       0.001720       0.000000
     -0.001003       0.001534       0.000000
     -0.000796       0.001412       0.000000
     -0.001003       0.001534       0.000000
     -0.001213       0.001998       0.000000
     -0.001019       0.001907       0.000000
     -0.001003       0.001534       0.000000
     -0.001199       0.001720       0.000000
     -0.001394       0.002135       0.000000
     -0.001213       0.001998       0.000000
     -0.000609       0.001746       0.000000
     -0.000820       0.001838       0.000000
     -0.001017       0.002334       0.000000
     -0.000862       0.002287       0.000000
     -0.000820       0.001838       0.000000
     -0.001019       0.001907       0.000000
     -0.001183       0.002377       0.000000
     -0.001017       0.002334       0.000000
     -0.000862       0.002287       0.000000
     -0.001017       0.002334       0.000000
     -0.001108       0.002796       0.000000
     -0.001002       0.002776       0.000000
     -0.001017       0.002334       0.000000
     -0.001183       0.002377       0.000000
     -0.001254       0.002824       0.000000
     -0.001108       0.002796       0.000000
     -0.001019       0.001907       0.000000
     -0.001213       0.001998       0.000000
     -0.001358       0.002435       0.000000
     -0.001183       0.002377       0.000000
     -0.001213       0.001998       0.000000
     -0.001394       0.002135       0.000000
     -0.001528       0.002518       0.000000
     -0.001358       0.002435       0.000000
     -0.001183       0.002377       0.000000
     -0.001358       0.002435       0.000000
     -0.001421       0.002856       0.000000
     -0.001254       0.002824       0.000000
     -0.001358       0.002435       0.000000
     -0.001528       0.002518       0.000000
     -0.001587       0.002883       0.000000
     -0.001421       0.002856       0.000000
     -0.000167       0.001171       0.000000
     -0.000260       0.001381       0.000000
     -0.000379       0.001638       0.000000
     -0.000272       0.001369       0.000000
     -0.000260       0.001381       0.000000
     -0.000374       0.001549       0.000000
     -0.000508       0.001832       0.000000
     -0.000379       0.001638       0.000000
     -0.000272       0.001369       0.000000
     -0.000379       0.001638       0.000000
     -0.000540       0.001944       0.000000
     -0.000410       0.001594       0.000000
     -0.000379       0.001638       0.000000
     -0.000508       0.001832       0.000000
     -0.000674       0.002145       0.000000
     -0.000540       0.001944       0.000000
     -0.000374       0.001549       0.000000
     -0.000494       0.001667       0.000000
     -0.000630       0.001950       0.000000
     -0.000508       0.001832       0.000000
     -0.000494       0.001667       0.000000
     -0.000609       0.001746       0.000000
     -0.000737       0.002019       0.000000
     -0.000630       0.001950       0.000000
     -0.000508       0.001832       0.000000
     -0.000630       0.001950       0.000000
     -0.000777       0.002240       0.000000