# vtk DataFile Version 2.0
time_10.vtk
ASCII
DATASET UNSTRUCTURED_GRID
POINTS  2448 float
      0.000000       0.000000       0.000000
      0.083333       0.000000       0.000000
      0.083333       0.083333       0.000000
      0.000000       0.083333       0.000000
      0.083333       0.000000       0.000000
      0.166667       0.000000       0.000000
      0.166667       0.083333       0.000000
      0.083333       0.083333       0.000000
      0.000000       0.083333       0.000000
      0.083333       0.083333       0.000000
      0.083333       0.166667       0.000000
      0.000000       0.166667       0.000000
      0.083333       0.083333       0.000000
      0.166667       0.083333       0.000000
      0.166667       0.166667       0.000000
      0.083333       0.166667       0.000000
      0.166667       0.000000       0.000000
      0.250000       0.000000       0.000000
      0.250000       0.083333       0.000000
      0.166667       0.083333       0.000000
      0.250000       0.000000       0.000000
      0.333333       0.000000       0.000000
      0.333333       0.083333       0.000000
      0.250000       0.083333       0.000000
      0.166667       0.083333       0.000000
      0.250000       0.083333       0.000000
      0.250000       0.166667       0.000000
      0.166667       0.166667       0.000000
      0.250000       0.083333       0.000000
      0.333333       0.083333       0.000000
      0.333333       0.166667       0.000000
      0.250000       0.166667       0.000000
      0.333333       0.000000       0.000000
      0.416667       0.000000       0.000000
      0.416667       0.083333       0.000000
      0.333333       0.083333       0.000000
      0.416667       0.000000       0.000000
      0.500000       0.000000       0.000000
      0.500000       0.083333       0.000000
      0.416667       0.083333       0.000000
      0.333333       0.083333       0.000000
      0.416667       0.083333       0.000000
      0.416667       0.166667       0.000000
      0.333333       0.166667       0.000000
      0.416667       0.083333       0.000000
      0.500000       0.083333       0.000000
      0.500000       0.166667       0.000000
      0.416667       0.166667       0.000000
      0.000000       0.166667       0.000000
      0.083333       0.166667       0.000000
      0.083333       0.250000       0.000000
      0.000000       0.250000       0.000000
      0.083333       0.166667       0.000000
      0.166667       0.166667       0.000000
      0.166667       0.250000       0.000000
      0.083333       0.250000       0.000000
      0.000000       0.250000       0.000000
      0.083333       0.250000       0.000000
      0.083333       0.333333       0.000000
      0.000000       0.333333       0.000000
      0.083333       0.250000       0.000000
      0.166667       0.250000       0.000000
      0.166667       0.333333       0.000000
      0.083333       0.333333       0.000000
      0.166667       0.166667       0.000000
      0.250000       0.166667       0.000000
      0.250000       0.250000       0.000000
      0.166667       0.250000       0.000000
      0.250000       0.166667       0.000000
      0.333333       0.166667       0.000000
      0.333333       0.250000       0.000000
      0.250000       0.250000       0.000000
      0.166667       0.250000       0.000000
      0.250000       0.250000       0.000000
      0.250000       0.333333       0.000000
      0.166667       0.333333       0.000000
      0.250000       0.250000       0.000000
      0.333333       0.250000       0.000000
      0.333333       0.333333       0.000000
      0.250000       0.333333       0.000000
      0.333333       0.166667       0.000000
      0.416667       0.166667       0.000000
      0.416667       0.250000       0.000000
      0.333333       0.250000       0.000000
      0.416667       0.166667       0.000000
      0.500000       0.166667       0.000000
      0.500000       0.250000       0.000000
      0.416667       0.250000       0.000000
      0.333333       0.250000       0.000000
      0.416667       0.250000       0.000000
      0.416667       0.333333       0.000000
      0.333333       0.333333       0.000000
      0.416667       0.250000       0.000000
      0.500000       0.250000       0.000000
      0.500000       0.333333       0.000000
      0.416667       0.333333       0.000000
      0.000000       0.333333       0.000000
      0.083333       0.333333       0.000000
      0.083333       0.416667       0.000000
      0.000000       0.416667       0.000000
      0.083333       0.333333       0.000000
      0.166667       0.333333       0.000000
      0.166667       0.416667       0.000000
      0.083333       0.416667       0.000000
      0.000000       0.416667       0.000000
      0.083333       0.416667       0.000000
      0.083333       0.500000       0.000000
      0.000000       0.500000       0.000000
      0.083333       0.416667       0.000000
      0.166667       0.416667       0.000000
      0.166667       0.500000       0.000000
      0.083333       0.500000       0.000000
      0.166667       0.333333       0.000000
      0.250000       0.333333       0.000000
      0.250000       0.416667       0.000000
      0.166667       0.416667       0.000000
      0.250000       0.333333       0.000000
      0.333333       0.333333       0.000000
      0.333333       0.416667       0.000000
      0.250000       0.416667       0.000000
      0.166667       0.416667       0.000000
      0.250000       0.416667       0.000000
      0.250000       0.500000       0.000000
      0.166667       0.500000       0.000000
      0.250000       0.416667       0.000000
      0.333333       0.416667       0.000000
      0.333333       0.500000       0.000000
      0.250000       0.500000       0.000000
      0.333333       0.333333       0.000000
      0.375000       0.333333       0.000000
      0.375000       0.375000       0.000000
      0.333333       0.375000       0.000000
      0.375000       0.333333       0.000000
      0.416667       0.333333       0.000000
      0.416667       0.375000       0.000000
      0.375000       0.375000       0.000000
      0.333333       0.375000       0.000000
      0.375000       0.375000       0.000000
      0.375000       0.416667       0.000000
      0.333333       0.416667       0.000000
      0.375000       0.375000       0.000000
      0.416667       0.375000       0.000000
      0.416667       0.416667       0.000000
      0.375000       0.416667       0.000000
      0.416667       0.333333       0.000000
      0.458333       0.333333       0.000000
      0.458333       0.375000       0.000000
      0.416667       0.375000       0.000000
      0.458333       0.333333       0.000000
      0.500000       0.333333       0.000000
      0.500000       0.375000       0.000000
      0.458333       0.375000       0.000000
      0.416667       0.375000       0.000000
      0.458333       0.375000       0.000000
      0.458333       0.416667       0.000000
      0.416667       0.416667       0.000000
      0.458333       0.375000       0.000000
      0.500000       0.375000       0.000000
      0.500000       0.416667       0.000000
      0.458333       0.416667       0.000000
      0.333333       0.416667       0.000000
      0.375000       0.416667       0.000000
      0.375000       0.458333       0.000000
      0.333333       0.458333       0.000000
      0.375000       0.416667       0.000000
      0.416667       0.416667       0.000000
      0.416667       0.458333       0.000000
      0.375000       0.458333       0.000000
      0.333333       0.458333       0.000000
      0.375000       0.458333       0.000000
      0.375000       0.500000       0.000000
      0.333333       0.500000       0.000000
      0.375000       0.458333       0.000000
      0.416667       0.458333       0.000000
      0.416667       0.500000       0.000000
      0.375000       0.500000       0.000000
      0.416667       0.416667       0.000000
      0.437500       0.416667       0.000000
      0.437500       0.437500       0.000000
      0.416667       0.437500       0.000000
      0.437500       0.416667       0.000000
      0.458333       0.416667       0.000000
      0.458333       0.437500       0.000000
      0.437500       0.437500       0.000000
      0.416667       0.437500       0.000000
      0.437500       0.437500       0.000000
      0.437500       0.458333       0.000000
      0.416667       0.458333       0.000000
      0.437500       0.437500       0.000000
      0.458333       0.437500       0.000000
      0.458333       0.458333       0.000000
      0.437500       0.458333       0.000000
      0.458333       0.416667       0.000000
      0.479167       0.416667       0.000000
      0.479167       0.437500       0.000000
      0.458333       0.437500       0.000000
      0.479167       0.416667       0.000000
      0.500000       0.416667       0.000000
      0.500000       0.437500       0.000000
      0.479167       0.437500       0.000000
      0.458333       0.437500       0.000000
      0.479167       0.437500       0.000000
      0.479167       0.458333       0.000000
      0.458333       0.458333       0.000000
      0.479167       0.437500       0.000000
      0.500000       0.437500       0.000000
      0.500000       0.458333       0.000000
      0.479167       0.458333       0.000000
      0.416667       0.458333       0.000000
      0.437500       0.458333       0.000000
      0.437500       0.479167       0.000000
      0.416667       0.479167       0.000000
      0.437500       0.458333       0.000000
      0.458333       0.458333       0.000000
      0.458333       0.479167       0.000000
      0.437500       0.479167       0.000000
      0.416667       0.479167       0.000000
      0.437500       0.479167       0.000000
      0.437500       0.500000       0.000000
      0.416667       0.500000       0.000000
[...]
POINT_DATA  2448
VECTORS U float 
      0.000000       0.000000       0.000000
      0.000000       0.000000       0.000000
      0.000001      -0.000000       0.000000
      0.000001      -0.000000       0.000000
      0.000000       0.000000       0.000000
      0.000000       0.000000       0.000000
      0.000001       0.000000       0.000000
      0.000001      -0.000000       0.000000
      0.000001      -0.000000       0.000000
      0.000001      -0.000000       0.000000
      0.000001      -0.000000       0.000000
      0.000001      -0.000001       0.000000
      0.000001      -0.000000       0.000000
      0.000001       0.000000       0.000000
      0.000001       0.000000       0.000000
      0.000001      -0.000000       0.000000
      0.000000       0.000000       0.000000
      0.000000       0.000000       0.000000
      0.000001       0.000001       0.000000
      0.000001       0.000000       0.000000
      0.000000       0.000000       0.000000
      0.000000       0.000000       0.000000
      0.000001       0.000001       0.000000
      0.000001       0.000001       0.000000
      0.000001       0.000000       0.000000
      0.000001       0.000001       0.000000
      0.000001       0.000001       0.000000
      0.000001       0.000000       0.000000
      0.000001       0.000001       0.000000
      0.000001       0.000001       0.000000
      0.000001       0.000002       0.000000
      0.000001       0.000001       0.000000
      0.000000       0.000000       0.000000
      0.000000       0.000000       0.000000
      0.000001       0.000002       0.000000
      0.000001       0.000001       0.000000
      0.000000       0.000000       0.000000
      0.000000       0.000000       0.000000
      0.000001       0.000003       0.000000
      0.000001       0.000002       0.000000
      0.000001       0.000001       0.000000
      0.000001       0.000002       0.000000
      0.000001       0.000004       0.000000
      0.000001       0.000002       0.000000
      0.000001       0.000002       0.000000
      0.000001       0.000003       0.000000
      0.000001       0.000005       0.000000
      0.000001       0.000004       0.000000
      0.000001      -0.000001       0.000000
      0.000001      -0.000000       0.000000
      0.000000      -0.000001       0.000000
     -0.000000      -0.000002       0.000000
      0.000001      -0.000000       0.000000
      0.000001       0.000000       0.000000
      0.000000       0.000000       0.000000
      0.000000      -0.000001       0.000000
     -0.000000      -0.000002       0.000000
      0.000000      -0.000001       0.000000
     -0.000001      -0.000001       0.000000
     -0.000002      -0.000002       0.000000
      0.000000      -0.000001       0.000000
      0.000000       0.000000       0.000000
     -0.000001       0.000000       0.000000
     -0.000001      -0.000001       0.000000
      0.000001       0.000000       0.000000
      0.000001       0.000001       0.000000
      0.000001       0.000002       0.000000
      0.000000       0.000000       0.000000
      0.000001       0.000001       0.000000
      0.000001       0.000002       0.000000
      0.000001       0.000003       0.000000
      0.000001       0.000002       0.000000
      0.000000       0.000000       0.000000
      0.000001       0.000002       0.000000
     -0.000001       0.000002       0.000000
     -0.000001       0.000000       0.000000
      0.000001       0.000002       0.000000
      0.000001       0.000003       0.000000
     -0.000001       0.000004       0.000000
     -0.000001       0.000002       0.000000
      0.000001       0.000002       0.000000
      0.000001       0.000004       0.000000
      0.000000       0.000006       0.000000
      0.000001       0.000003       0.000000
      0.000001       0.000004       0.000000
      0.000001       0.000005       0.000000
     -0.000001       0.000009       0.000000
      0.000000       0.000006       0.000000
      0.000001       0.000003       0.000000
      0.000000       0.000006       0.000000
     -0.000001       0.000008       0.000000
     -0.000001       0.000004       0.000000
      0.000000       0.000006       0.000000
     -0.000001       0.000009       0.000000
     -0.000002       0.000012       0.000000
     -0.000001       0.000008       0.000000
     -0.000002      -0.000002       0.000000
     -0.000001      -0.000001       0.000000
     -0.000003      -0.000001       0.000000
     -0.000003      -0.000003       0.000000
     -0.000001      -0.000001       0.000000
     -0.000001       0.000000       0.000000
     -0.000003       0.000000       0.000000
     -0.000003      -0.000001       0.000000
     -0.000003      -0.000003       0.000000
     -0.000003      -0.000001       0.000000
     -0.000005      -0.000001       0.000000
     -0.000005      -0.000003       0.000000
     -0.000003      -0.000001       0.000000
     -0.000003       0.000000       0.000000
     -0.000005       0.000000       0.000000
     -0.000005      -0.000001       0.000000
     -0.000001       0.000000       0.000000
     -0.000001       0.000002       0.000000
     -0.000003       0.000002       0.000000
     -0.000003       0.000000       0.000000
     -0.000001       0.000002       0.000000
     -0.000001       0.000004       0.000000
     -0.000004       0.000005       0.000000
     -0.000003       0.000002       0.000000
     -0.000003       0.000000       0.000000
     -0.000003       0.000002       0.000000
     -0.000006       0.000002       0.000000
     -0.000005       0.000000       0.000000
     -0.000003       0.000002       0.000000
     -0.000004       0.000005       0.000000
     -0.000007       0.000005       0.000000
     -0.000006       0.000002       0.000000
     -0.000001       0.000004       0.000000
     -0.000001       0.000006       0.000000
     -0.000002       0.000007       0.000000
     -0.000002       0.000005       0.000000
     -0.000001       0.000006       0.000000
     -0.000001       0.000008       0.000000
     -0.000002       0.000009       0.000000
     -0.000002       0.000007       0.000000
     -0.000002       0.000005       0.000000
     -0.000002       0.000007       0.000000
     -0.000004       0.000007       0.000000
     -0.000004       0.000005       0.000000
     -0.000002       0.000007       0.000000
     -0.000002       0.000009       0.000000
     -0.000004       0.000010       0.000000
     -0.000004       0.000007       0.000000
     -0.000001       0.000008       0.000000
     -0.000002       0.000010       0.000000
     -0.000003       0.000012       0.000000
     -0.000002       0.000009       0.000000
     -0.000002       0.000010       0.000000
     -0.000002       0.000012       0.000000
     -0.000004       0.000015       0.000000
     -0.000003       0.000012       0.000000
     -0.000002       0.000009       0.000000
     -0.000003       0.000012       0.000000
     -0.000004       0.000013       0.000000
     -0.000004       0.000010       0.000000
     -0.000003       0.000012       0.000000
     -0.000004       0.000015       0.000000
     -0.000005       0.000017       0.000000
     -0.000004       0.000013       0.000000
     -0.000004       0.000005       0.000000
     -0.000004       0.000007       0.000000
     -0.000006       0.000007       0.000000
     -0.000005       0.000005       0.000000
     -0.000004       0.000007       0.000000
     -0.000004       0.000010       0.000000
     -0.000006       0.000010       0.000000
     -0.000006       0.000007       0.000000
     -0.000005       0.000005       0.000000
     -0.000006       0.000007       0.000000
     -0.000008       0.000007       0.000000
     -0.000007       0.000005       0.000000
     -0.000006       0.000007       0.000000
     -0.000006       0.000010       0.000000
     -0.000009       0.000010       0.000000
     -0.000008       0.000007       0.000000
     -0.000004       0.000010       0.000000
     -0.000004       0.000011       0.000000
     -0.000005       0.000012       0.000000
     -0.000005       0.000010       0.000000
     -0.000004       0.000011       0.000000
     -0.000004       0.000013       0.000000
     -0.000005       0.000014       0.000000
     -0.000005       0.000012       0.000000
     -0.000005       0.000010       0.000000
     -0.000005       0.000012       0.000000
     -0.000006       0.000012       0.000000
     -0.000006       0.000010       0.000000
     -0.000005       0.000012       0.000000
     -0.000005       0.000014       0.000000
     -0.000006       0.000015       0.000000
     -0.000006       0.000012       0.000000
     -0.000004       0.000013       0.000000
     -0.000004       0.000015       0.000000
     -0.000005       0.000016       0.000000
     -0.000005       0.000014       0.000000
     -0.000004       0.000015       0.000000
     -0.000005       0.000017       0.000000
     -0.000006       0.000019       0.000000
     -0.000005       0.000016       0.000000
     -0.000005       0.000014       0.000000
     -0.000005       0.000016       0.000000
     -0.000006       0.000018       0.000000
     -0.000006       0.000015       0.000000
     -0.000005       0.000016       0.000000
     -0.000006       0.000019       0.000000
     -0.000007       0.000021       0.000000
     -0.000006       0.000018       0.000000
     -0.000006       0.000010       0.000000
     -0.000006       0.000012       0.000000
     -0.000007       0.000012       0.000000
     -0.000007       0.000010       0.000000
     -0.000006       0.000012       0.000000
     -0.000006       0.000015       0.000000
     -0.000007       0.000015       0.000000
     -0.000007       0.000012       0.000000
     -0.000007       0.000010       0.000000
     -0.000007       0.000012       0.000000
     -0.000009       0.000012       0.000000
     -0.000009       0.000010       0.000000
     -0.000007       0.000012       0.000000
     -0.000007       0.000015       0.000000
     -0.000010       0.000015       0.000000
     -0.000009       0.000012       0.000000
     -0.000006       0.000015       0.000000
     -0.000006       0.000016       0.000000
     -0.000006       0.000017       0.000000
     -0.000006       0.000015       0.000000
     -0.000006       0.000016       0.000000
     -0.000006       0.000018       0.000000
     -0.000006       0.000018       0.000000
     -0.000006       0.000017       0.000000
     -0.000006       0.000015       0.000000
     -0.000006       0.000017       0.000000
     -0.000007       0.000017       0.000000
     -0.000007       0.000015       0.000000
     -0.000006       0.000017       0.000000
     -0.000006       0.000018       0.000000
     -0.000007       0.000019       0.000000
     -0.000007       0.000017       0.000000
     -0.000006       0.000018       0.000000
     -0.000006       0.000019       0.000000
     -0.000006       0.000021       0.000000
     -0.000006       0.000018       0.000000
     -0.000006       0.000019       0.000000
     -0.000007       0.000021       0.000000
     -0.000007       0.000022       0.000000
     -0.000006       0.000021       0.000000
     -0.000006       0.000018       0.000000
     -0.000006       0.000021       0.000000
     -0.000006       0.000022       0.000000
     -0.000007       0.000019       0.000000
     -0.000006       0.000021       0.000000
     -0.000007       0.000022       0.000000
     -0.000009       0.000028       0.000000
     -0.000006       0.000022       0.000000
     -0.000007       0.000015       0.000000
     -0.000007       0.000017       0.000000
     -0.000008       0.000017       0.000000
     -0.000008       0.000015       0.000000
     -0.000007       0.000017       0.000000
     -0.000007       0.000019       0.000000
     -0.000007       0.000019       0.000000
     -0.000008       0.000017       0.000000
     -0.000008       0.000015       0.000000
     -0.000008       0.000017       0.000000
     -0.000010       0.000018       0.000000
     -0.000010       0.000015       0.000000
     -0.000008       0.000017       0.000000
     -0.000007       0.000019       0.000000
     -0.000009       0.000027       0.000000
     -0.000010       0.000018       0.000000
     -0.000007       0.000019       0.000000
     -0.000006       0.000022       0.000000
     -0.000005       0.000023       0.000000
     -0.000007       0.000019       0.000000
     -0.000006       0.000022       0.000000
     -0.000009       0.000028       0.000000
     -0.000014       0.000072       0.000000
     -0.000005       0.000023       0.000000
     -0.000007       0.000019       0.000000
     -0.000005       0.000023       0.000000
     -0.000012       0.000094       0.000000
     -0.000009       0.000027       0.000000
     -0.000005       0.000023       0.000000
     -0.000014       0.000072       0.000000
     -0.000733       0.005866       0.000000
     -0.000012       0.000094       0.000000
      0.000000       0.000000       0.000000
      0.000000       0.000000       0.000000
      0.000000       0.000003       0.000000
      0.000001       0.000003       0.000000
      0.000000       0.000000       0.000000
      0.000000       0.000000       0.000000
     -0.000000       0.000004       0.000000
      0.000000       0.000003       0.000000
      0.000001       0.000003       0.000000
      0.000000       0.000003       0.000000
     -0.000001       0.000007       0.000000
      0.000001       0.000005       0.000000
      0.000000       0.000003       0.000000
     -0.000000       0.000004       0.000000
     -0.000002       0.000008       0.000000
     -0.000001       0.000007       0.000000
      0.000000       0.000000       0.000000
      0.000000       0.000000       0.000000
     -0.000001       0.000004       0.000000
     -0.000000       0.000004       0.000000
      0.000000       0.000000       0.000000
      0.000000       0.000000       0.000000
     -0.000003       0.000005       0.000000
     -0.000001       0.000004       0.000000
     -0.000000       0.000004       0.000000
     -0.000001       0.000004       0.000000
     -0.000004       0.000009       0.000000
     -0.000002       0.000008       0.000000
     -0.000001       0.000004       0.000000
     -0.000003       0.000005       0.000000
     -0.000006       0.000011       0.000000
     -0.000004       0.000009       0.000000
      0.000000       0.000000       0.000000
      0.000000       0.000000       0.000000
     -0.000004       0.000006       0.000000
     -0.000003       0.000005       0.000000
      0.000000       0.000000       0.000000
      0.000000       0.000000       0.000000
     -0.000007       0.000009       0.000000
     -0.000004       0.000006       0.000000
     -0.000003       0.000005       0.000000
     -0.000004       0.000006       0.000000
     -0.000008       0.000013       0.000000
     -0.000006       0.000011       0.000000
     -0.000004       0.000006       0.000000
     -0.000007       0.000009       0.000000
     -0.000011       0.000016       0.000000
     -0.000008       0.000013       0.000000
      0.000001       0.000005       0.000000
     -0.000001       0.000007       0.000000
     -0.000002       0.000011       0.000000
     -0.000001       0.000009       0.000000
     -0.000001       0.000007       0.000000
     -0.000002       0.000008       0.000000
     -0.000004       0.000013       0.000000
     -0.000002       0.000011       0.000000
     -0.000001       0.000009       0.000000
     -0.000002       0.000011       0.000000
     -0.000005       0.000016       0.000000
     -0.000002       0.000012       0.000000
     -0.000002       0.000011       0.000000
     -0.000004       0.000013       0.000000
     -0.000007       0.000019       0.000000
     -0.000005       0.000016       0.000000
     -0.000002       0.000008       0.000000
     -0.000004       0.000009       0.000000
     -0.000007       0.000015       0.000000
     -0.000004       0.000013       0.000000
     -0.000004       0.000009       0.000000
     -0.000006       0.000011       0.000000
     -0.000009       0.000017       0.000000
     -0.000007       0.000015       0.000000
     -0.000004       0.000013       0.000000
     -0.000007       0.000015       0.000000
     -0.000010       0.000021       0.000000
     -0.000007       0.000019       0.000000
     -0.000007       0.000015       0.000000
     -0.000009       0.000017       0.000000
     -0.000013       0.000023       0.000000
     -0.000010       0.000021       0.000000
     -0.000006       0.000011       0.000000
     -0.000008       0.000013       0.000000
     -0.000011       0.000020       0.000000
     -0.000009       0.000017       0.000000
     -0.000008       0.000013       0.000000
     -0.000011       0.000016       0.000000
     -0.000014       0.000023       0.000000
     -0.000011       0.000020       0.000000
     -0.000009       0.000017       0.000000
     -0.000011       0.000020       0.000000
     -0.000015       0.000026       0.000000
     -0.000013       0.000023       0.000000
     -0.000011       0.000020       0.000000
     -0.000014       0.000023       0.000000
     -0.000018       0.000030       0.000000
     -0.000015       0.000026       0.000000
     -0.000002       0.000012       0.000000
     -0.000004       0.000014       0.000000
     -0.000005       0.000017       0.000000
     -0.000004       0.000015       0.000000
     -0.000004       0.000014       0.000000
     -0.000005       0.000016       0.000000
     -0.000006       0.000019       0.000000
     -0.000005       0.000017       0.000000
     -0.000004       0.000015       0.000000
     -0.000005       0.000017       0.000000
     -0.000007       0.000020       0.000000
     -0.000005       0.000017       0.000000
     -0.000005       0.000017       0.000000
     -0.000006       0.000019       0.000000
     -0.000008       0.000022       0.000000
     -0.000007       0.000020       0.000000
     -0.000005       0.000016       0.000000
     -0.000006       0.000017       0.000000
     -0.000008       0.000020       0.000000
     -0.000006       0.000019       0.000000
     -0.000006       0.000017       0.000000
     -0.000007       0.000019       0.000000
     -0.000009       0.000021       0.000000
     -0.000008       0.000020       0.000000
     -0.000006       0.000019       0.000000
     -0.000008       0.000020       0.000000
     -0.000009       0.000023       0.000000
     -0.000008       0.000022       0.000000
     -0.000008       0.000020       0.000000
     -0.000009       0.000021       0.000000
     -0.000011       0.000024       0.000000
     -0.000009       0.000023       0.000000
     -0.000005       0.000017       0.000000
     -0.000006       0.000019       0.000000
     -0.000007       0.000020       0.000000
     -0.000006       0.000019       0.000000
     -0.000006       0.000019       0.000000
     -0.000007       0.000020       0.000000
     -0.000008       0.000021       0.000000
     -0.000007       0.000020       0.000000
     -0.000006       0.000019       0.000000
     -0.000007       0.000020       0.000000
     -0.000008       0.000022       0.000000
     -0.000007       0.000021       0.000000
     -0.000007       0.000020       0.000000
     -0.000008       0.000021       0.000000
     -0.000009       0.000023       0.000000
     -0.000008       0.000022       0.000000
     -0.000007       0.000020       0.000000
     -0.000007       0.000021       0.000000
     -0.000008       0.000022       0.000000
     -0.000008       0.000021       0.000000
     -0.000007       0.000021       0.000000
     -0.000008       0.000022       0.000000
     -0.000009       0.000023       0.000000
     -0.000008       0.000022       0.000000
     -0.000008       0.000021       0.000000
     -0.000008       0.000022       0.000000
     -0.000009       0.000024       0.000000