# vtk DataFile Version 2.0
time_10.vtk
ASCII
DATASET UNSTRUCTURED_GRID
POINTS  1152 float
      0.000000       0.000000       0.000000
      0.083333       0.000000       0.000000
      0.083333       0.083333       0.000000
      0.000000       0.083333       0.000000
      0.083333       0.000000       0.000000
      0.166667       0.000000       0.000000
      0.166667       0.083333       0.000000
      0.083333       0.083333       0.000000
      0.000000       0.083333       0.000000
      0.083333       0.083333       0.000000
      0.083333       0.166667       0.000000
      0.000000       0.166667       0.000000
      0.083333       0.083333       0.000000
      0.166667       0.083333       0.000000
      0.166667       0.166667       0.000000
      0.083333       0.166667       0.000000
      0.166667       0.000000       0.000000
      0.250000       0.000000       0.000000
      0.250000       0.083333       0.000000
      0.166667       0.083333       0.000000
      0.250000       0.000000       0.000000
      0.333333       0.000000       0.000000
      0.333333       0.083333       0.000000
      0.250000       0.083333       0.000000
      0.166667       0.083333       0.000000
      0.250000       0.083333       0.000000
      0.250000       0.166667       0.000000
      0.166667       0.166667       0.000000
      0.250000       0.083333       0.000000
      0.333333       0.083333       0.000000
      0.333333       0.166667       0.000000
      0.250000       0.166667       0.000000
      0.333333       0.000000       0.000000
      0.416667       0.000000       0.000000
      0.416667       0.083333       0.000000
      0.333333       0.083333       0.000000
      0.416667       0.000000       0.000000
      0.500000       0.000000       0.000000
      0.500000       0.083333       0.000000
      0.416667       0.083333       0.000000
      0.333333       0.083333       0.000000
      0.416667       0.083333       0.000000
      0.416667       0.166667       0.000000
      0.333333       0.166667       0.000000
      0.416667       0.083333       0.000000
      0.500000       0.083333       0.000000
      0.500000       0.166667       0.000000
      0.416667       0.166667       0.000000
      0.000000       0.166667       0.000000
      0.083333       0.166667       0.000000
      0.083333       0.250000       0.000000
      0.000000       0.250000       0.000000
      0.083333       0.166667       0.000000
      0.166667       0.166667       0.000000
      0.166667       0.250000       0.000000
      0.083333       0.250000       0.000000
      0.000000       0.250000       0.000000
      0.083333       0.250000       0.000000
      0.083333       0.333333       0.000000
      0.000000       0.333333       0.000000
      0.083333       0.250000       0.000000
      0.166667       0.250000       0.000000
      0.166667       0.333333       0.000000
      0.083333       0.333333       0.000000
      0.166667       0.166667       0.000000
      0.250000       0.166667       0.000000
      0.250000       0.250000       0.000000
      0.166667       0.250000       0.000000
      0.250000       0.166667       0.000000
      0.333333       0.166667       0.000000
      0.333333       0.250000       0.000000
      0.250000       0.250000       0.000000
      0.166667       0.250000       0.000000
      0.250000       0.250000       0.000000
      0.250000       0.333333       0.000000
      0.166667       0.333333       0.000000
      0.250000       0.250000       0.000000
      0.333333       0.250000       0.000000
      0.333333       0.333333       0.000000
      0.250000       0.333333       0.000000
      0.333333       0.166667       0.000000
      0.416667       0.166667       0.000000
      0.416667       0.250000       0.000000
      0.333333       0.250000       0.000000
      0.416667       0.166667       0.000000
      0.500000       0.166667       0.000000
      0.500000       0.250000       0.000000
      0.416667       0.250000       0.000000
      0.333333       0.250000       0.000000
      0.416667       0.250000       0.000000
      0.416667       0.333333       0.000000
      0.333333       0.333333       0.000000
      0.416667       0.250000       0.000000
      0.500000       0.250000       0.000000
      0.500000       0.333333       0.000000
      0.416667       0.333333       0.000000
      0.000000       0.333333       0.000000
      0.083333       0.333333       0.000000
      0.083333       0.416667       0.000000
      0.000000       0.416667       0.000000
      0.083333       0.333333       0.000000
      0.166667       0.333333       0.000000
      0.166667       0.416667       0.000000
      0.083333       0.416667       0.000000
      0.000000       0.416667       0.000000
      0.083333       0.416667       0.000000
      0.083333       0.500000       0.000000
      0.000000       0.500000       0.000000
      0.083333       0.416667       0.000000
      0.166667       0.416667       0.000000
      0.166667       0.500000       0.000000
      0.083333       0.500000       0.000000
      0.166667       0.333333       0.000000
      0.250000       0.333333       0.000000
      0.250000       0.416667       0.000000
      0.166667       0.416667       0.000000
      0.250000       0.333333       0.000000
      0.333333       0.333333       0.000000
      0.333333       0.416667       0.000000
      0.250000       0.416667       0.000000
      0.166667       0.416667       0.000000
      0.250000       0.416667       0.000000
      0.250000       0.500000       0.000000
      0.166667       0.500000       0.000000
      0.250000       0.416667       0.000000
      0.333333       0.416667       0.000000
      0.333333       0.500000       0.000000
      0.250000       0.500000       0.000000
      0.333333       0.333333       0.000000
      0.375000       0.333333       0.000000
      0.375000       0.375000       0.000000
      0.333333       0.375000       0.000000
      0.375000       0.333333       0.000000
      0.416667       0.333333       0.000000
      0.416667       0.375000       0.000000
      0.375000       0.375000       0.000000
      0.333333       0.375000       0.000000
      0.375000       0.375000       0.000000
      0.375000       0.416667       0.000000
      0.333333       0.416667       0.000000
      0.375000       0.375000       0.000000
      0.416667       0.375000       0.000000
      0.416667       0.416667       0.000000
      0.375000       0.416667       0.000000
      0.416667       0.333333       0.000000
      0.458333       0.333333       0.000000
      0.458333       0.375000       0.000000
      0.416667       0.375000       0.000000
      0.458333       0.333333       0.000000
      0.500000       0.333333       0.000000
      0.500000       0.375000       0.000000
      0.458333       0.375000       0.000000
      0.416667       0.375000       0.000000
      0.458333       0.375000       0.000000
      0.458333       0.416667       0.000000
      0.416667       0.416667       0.000000
      0.458333       0.375000       0.000000
      0.500000       0.375000       0.000000
      0.500000       0.416667       0.000000
      0.458333       0.416667       0.000000
      0.333333       0.416667       0.000000
      0.375000       0.416667       0.000000
      0.375000       0.458333       0.000000
      0.333333       0.458333       0.000000
      0.375000       0.416667       0.000000
      0.416667       0.416667       0.000000
      0.416667       0.458333       0.000000
      0.375000       0.458333       0.000000
      0.333333       0.458333       0.000000
      0.375000       0.458333       0.000000
      0.375000       0.500000       0.000000
      0.333333       0.500000       0.000000
      0.375000       0.458333       0.000000
      0.416667       0.458333       0.000000
      0.416667       0.500000       0.000000
      0.375000       0.500000       0.000000
      0.416667       0.416667       0.000000
      0.437500       0.416667       0.000000
      0.437500       0.437500       0.000000
      0.416667       0.437500       0.000000
      0.437500       0.416667       0.000000
      0.458333       0.416667       0.000000
      0.458333       0.437500       0.000000
      0.437500       0.437500       0.000000
      0.416667       0.437500       0.000000
      0.437500       0.437500       0.000000
      0.437500       0.458333       0.000000
      0.416667       0.458333       0.000000
      0.437500       0.437500       0.000000
      0.458333       0.437500       0.000000
      0.458333       0.458333       0.000000
      0.437500       0.458333       0.000000
      0.458333       0.416667       0.000000
      0.479167       0.416667       0.000000
      0.479167       0.437500       0.000000
      0.458333       0.437500       0.000000
      0.479167       0.416667       0.000000
      0.500000       0.416667       0.000000
      0.500000       0.437500       0.000000
      0.479167       0.437500       0.000000
      0.458333       0.437500       0.000000
      0.479167       0.437500       0.000000
      0.479167       0.458333       0.000000
      0.458333       0.458333       0.000000
      0.479167       0.437500       0.000000
      0.500000       0.437500       0.000000
      0.500000       0.458333       0.000000
      0.479167       0.458333       0.000000
      0.416667       0.458333       0.000000
      0.437500       0.458333       0.000000
      0.437500       0.479167       0.000000
      0.416667       0.479167       0.000000
      0.437500       0.458333       0.000000
      0.458333       0.458333       0.000000
      0.458333       0.479167       0.000000
      0.437500       0.479167       0.000000
      0.416667       0.479167       0.000000
      0.437500       0.479167       0.000000
      0.437500       0.500000       0.000000
      0.416667       0.500000       0.000000
[...]
POINT_DATA  1152
VECTORS U float 
      0.000000       0.000000       0.000000
      0.000000       0.000000       0.000000
      0.000073      -0.000016       0.000000
      0.000054      -0.000017       0.000000
      0.000000       0.000000       0.000000
      0.000000       0.000000       0.000000
      0.000093       0.000014       0.000000
      0.000073      -0.000016       0.000000
      0.000054      -0.000017       0.000000
      0.000073      -0.000016       0.000000
      0.000080      -0.000042       0.000000
      0.000056      -0.000086       0.000000
      0.000073      -0.000016       0.000000
      0.000093       0.000014       0.000000
      0.000103       0.000018       0.000000
      0.000080      -0.000042       0.000000
      0.000000       0.000000       0.000000
      0.000000       0.000000       0.000000
      0.000111       0.000055       0.000000
      0.000093       0.000014       0.000000
      0.000000       0.000000       0.000000
      0.000000       0.000000       0.000000
      0.000120       0.000108       0.000000
      0.000111       0.000055       0.000000
      0.000093       0.000014       0.000000
      0.000111       0.000055       0.000000
      0.000126       0.000099       0.000000
      0.000103       0.000018       0.000000
      0.000111       0.000055       0.000000
      0.000120       0.000108       0.000000
      0.000141       0.000211       0.000000
      0.000126       0.000099       0.000000
      0.000000       0.000000       0.000000
      0.000000       0.000000       0.000000
      0.000112       0.000171       0.000000
      0.000120       0.000108       0.000000
      0.000000       0.000000       0.000000
      0.000000       0.000000       0.000000
      0.000078       0.000238       0.000000
      0.000112       0.000171       0.000000
      0.000120       0.000108       0.000000
      0.000112       0.000171       0.000000
      0.000126       0.000355       0.000000
      0.000141       0.000211       0.000000
      0.000112       0.000171       0.000000
      0.000078       0.000238       0.000000
      0.000064       0.000512       0.000000
      0.000126       0.000355       0.000000
      0.000056      -0.000086       0.000000
      0.000080      -0.000042       0.000000
      0.000007      -0.000072       0.000000
     -0.000016      -0.000163       0.000000
      0.000080      -0.000042       0.000000
      0.000103       0.000018       0.000000
      0.000028       0.000015       0.000000
      0.000007      -0.000072       0.000000
     -0.000016      -0.000163       0.000000
      0.000007      -0.000072       0.000000
     -0.000133      -0.000099       0.000000
     -0.000147      -0.000222       0.000000
      0.000007      -0.000072       0.000000
      0.000028       0.000015       0.000000
     -0.000121       0.000008       0.000000
     -0.000133      -0.000099       0.000000
      0.000103       0.000018       0.000000
      0.000126       0.000099       0.000000
      0.000053       0.000130       0.000000
      0.000028       0.000015       0.000000
      0.000126       0.000099       0.000000
      0.000141       0.000211       0.000000
      0.000073       0.000302       0.000000
      0.000053       0.000130       0.000000
      0.000028       0.000015       0.000000
      0.000053       0.000130       0.000000
     -0.000105       0.000145       0.000000
     -0.000121       0.000008       0.000000
      0.000053       0.000130       0.000000
      0.000073       0.000302       0.000000
     -0.000084       0.000365       0.000000
     -0.000105       0.000145       0.000000
      0.000141       0.000211       0.000000
      0.000126       0.000355       0.000000
      0.000062       0.000544       0.000000
      0.000073       0.000302       0.000000
      0.000126       0.000355       0.000000
      0.000064       0.000512       0.000000
     -0.000019       0.000821       0.000000
      0.000062       0.000544       0.000000
      0.000073       0.000302       0.000000
      0.000062       0.000544       0.000000
     -0.000081       0.000717       0.000000
     -0.000084       0.000365       0.000000
      0.000062       0.000544       0.000000
     -0.000019       0.000821       0.000000
     -0.000167       0.001172       0.000000
     -0.000081       0.000717       0.000000
     -0.000147      -0.000222       0.000000
     -0.000133      -0.000099       0.000000
     -0.000305      -0.000113       0.000000
     -0.000307      -0.000249       0.000000
     -0.000133      -0.000099       0.000000
     -0.000121       0.000008       0.000000
     -0.000314       0.000005       0.000000
     -0.000305      -0.000113       0.000000
     -0.000307      -0.000249       0.000000
     -0.000305      -0.000113       0.000000
     -0.000461      -0.000111       0.000000
     -0.000459      -0.000251       0.000000
     -0.000305      -0.000113       0.000000
     -0.000314       0.000005       0.000000
     -0.000490       0.000018       0.000000
     -0.000461      -0.000111       0.000000
     -0.000121       0.000008       0.000000
     -0.000105       0.000145       0.000000
     -0.000333       0.000152       0.000000
     -0.000314       0.000005       0.000000
     -0.000105       0.000145       0.000000
     -0.000084       0.000365       0.000000
     -0.000351       0.000392       0.000000
     -0.000333       0.000152       0.000000
     -0.000314       0.000005       0.000000
     -0.000333       0.000152       0.000000
     -0.000565       0.000178       0.000000
     -0.000490       0.000018       0.000000
     -0.000333       0.000152       0.000000
     -0.000351       0.000392       0.000000
     -0.000697       0.000428       0.000000
     -0.000565       0.000178       0.000000
     -0.000084       0.000365       0.000000
     -0.000077       0.000523       0.000000
     -0.000195       0.000558       0.000000
     -0.000203       0.000382       0.000000
     -0.000077       0.000523       0.000000
     -0.000081       0.000717       0.000000
     -0.000193       0.000787       0.000000
     -0.000195       0.000558       0.000000
     -0.000203       0.000382       0.000000
     -0.000195       0.000558       0.000000
     -0.000353       0.000578       0.000000
     -0.000351       0.000392       0.000000
     -0.000195       0.000558       0.000000
     -0.000193       0.000787       0.000000
     -0.000350       0.000834       0.000000
     -0.000353       0.000578       0.000000
     -0.000081       0.000717       0.000000
     -0.000108       0.000941       0.000000
     -0.000211       0.001067       0.000000
     -0.000193       0.000787       0.000000
     -0.000108       0.000941       0.000000
     -0.000167       0.001172       0.000000
     -0.000272       0.001370       0.000000
     -0.000211       0.001067       0.000000
     -0.000193       0.000787       0.000000
     -0.000211       0.001067       0.000000
     -0.000354       0.001181       0.000000
     -0.000350       0.000834       0.000000
     -0.000211       0.001067       0.000000
     -0.000272       0.001370       0.000000
     -0.000411       0.001594       0.000000
     -0.000354       0.001181       0.000000
     -0.000351       0.000392       0.000000
     -0.000353       0.000578       0.000000
     -0.000557       0.000591       0.000000
     -0.000523       0.000404       0.000000
     -0.000353       0.000578       0.000000
     -0.000350       0.000834       0.000000
     -0.000581       0.000856       0.000000
     -0.000557       0.000591       0.000000
     -0.000523       0.000404       0.000000
     -0.000557       0.000591       0.000000
     -0.000785       0.000618       0.000000
     -0.000697       0.000428       0.000000
     -0.000557       0.000591       0.000000
     -0.000581       0.000856       0.000000
     -0.000891       0.000883       0.000000
     -0.000785       0.000618       0.000000
     -0.000350       0.000834       0.000000
     -0.000349       0.000996       0.000000
     -0.000452       0.001020       0.000000
     -0.000455       0.000847       0.000000
     -0.000349       0.000996       0.000000
     -0.000354       0.001181       0.000000
     -0.000452       0.001227       0.000000
     -0.000452       0.001020       0.000000
     -0.000455       0.000847       0.000000
     -0.000452       0.001020       0.000000
     -0.000585       0.001034       0.000000
     -0.000581       0.000856       0.000000
     -0.000452       0.001020       0.000000
     -0.000452       0.001227       0.000000
     -0.000582       0.001258       0.000000
     -0.000585       0.001034       0.000000
     -0.000354       0.001181       0.000000
     -0.000372       0.001386       0.000000
     -0.000463       0.001468       0.000000
     -0.000452       0.001227       0.000000
     -0.000372       0.001386       0.000000
     -0.000411       0.001594       0.000000
     -0.000501       0.001724       0.000000
     -0.000463       0.001468       0.000000
     -0.000452       0.001227       0.000000
     -0.000463       0.001468       0.000000
     -0.000581       0.001544       0.000000
     -0.000582       0.001258       0.000000
     -0.000463       0.001468       0.000000
     -0.000501       0.001724       0.000000
     -0.000615       0.001877       0.000000
     -0.000581       0.001544       0.000000
     -0.000581       0.000856       0.000000
     -0.000585       0.001034       0.000000
     -0.000755       0.001042       0.000000
     -0.000731       0.000865       0.000000
     -0.000585       0.001034       0.000000
     -0.000582       0.001258       0.000000
     -0.000769       0.001271       0.000000
     -0.000755       0.001042       0.000000
     -0.000731       0.000865       0.000000
     -0.000755       0.001042       0.000000
     -0.000952       0.001060       0.000000
     -0.000891       0.000883       0.000000
     -0.000755       0.001042       0.000000
     -0.000769       0.001271       0.000000
     -0.001021       0.001287       0.000000
     -0.000952       0.001060       0.000000
     -0.000582       0.001258       0.000000
     -0.000580       0.001393       0.000000
     -0.000663       0.001408       0.000000
     -0.000667       0.001266       0.000000
     -0.000580       0.001393       0.000000
     -0.000581       0.001544       0.000000
     -0.000659       0.001575       0.000000
     -0.000663       0.001408       0.000000
     -0.000667       0.001266       0.000000
     -0.000663       0.001408       0.000000
     -0.000769       0.001416       0.000000
     -0.000769       0.001271       0.000000
     -0.000663       0.001408       0.000000
     -0.000659       0.001575       0.000000
     -0.000762       0.001596       0.000000
     -0.000769       0.001416       0.000000
     -0.000581       0.001544       0.000000
     -0.000592       0.001709       0.000000
     -0.000663       0.001768       0.000000
     -0.000659       0.001575       0.000000
     -0.000592       0.001709       0.000000
     -0.000615       0.001877       0.000000
     -0.000687       0.001972       0.000000
     -0.000663       0.001768       0.000000
     -0.000659       0.001575       0.000000
     -0.000663       0.001768       0.000000
     -0.000755       0.001825       0.000000
     -0.000762       0.001596       0.000000
     -0.000663       0.001768       0.000000
     -0.000687       0.001972       0.000000
     -0.000776       0.002090       0.000000
     -0.000755       0.001825       0.000000
     -0.000769       0.001271       0.000000
     -0.000769       0.001416       0.000000
     -0.000903       0.001421       0.000000
     -0.000889       0.001276       0.000000
     -0.000769       0.001416       0.000000
     -0.000762       0.001596       0.000000
     -0.000908       0.001604       0.000000
     -0.000903       0.001421       0.000000
     -0.000889       0.001276       0.000000
     -0.000903       0.001421       0.000000
     -0.001060       0.001432       0.000000
     -0.001021       0.001287       0.000000
     -0.000903       0.001421       0.000000
     -0.000908       0.001604       0.000000
     -0.001108       0.001616       0.000000
     -0.001060       0.001432       0.000000
     -0.000762       0.001596       0.000000
     -0.000755       0.001825       0.000000
     -0.000893       0.001866       0.000000
     -0.000908       0.001604       0.000000
     -0.000755       0.001825       0.000000
     -0.000776       0.002090       0.000000
     -0.000903       0.002268       0.000000
     -0.000893       0.001866       0.000000
     -0.000908       0.001604       0.000000
     -0.000893       0.001866       0.000000
     -0.001173       0.001889       0.000000
     -0.001108       0.001616       0.000000
     -0.000893       0.001866       0.000000
     -0.000903       0.002268       0.000000
     -0.001259       0.002776       0.000000
     -0.001173       0.001889       0.000000
      0.000000       0.000000       0.000000
      0.000000       0.000000       0.000000
      0.000017       0.000298       0.000000
      0.000078       0.000238       0.000000
      0.000000       0.000000       0.000000
      0.000000       0.000000       0.000000
     -0.000062       0.000344       0.000000
      0.000017       0.000298       0.000000
      0.000078       0.000238       0.000000
      0.000017       0.000298       0.000000
     -0.000047       0.000651       0.000000
      0.000064       0.000512       0.000000
      0.000017       0.000298       0.000000
     -0.000062       0.000344       0.000000
     -0.000193       0.000754       0.000000
     -0.000047       0.000651       0.000000
      0.000000       0.000000       0.000000
      0.000000       0.000000       0.000000
     -0.000154       0.000380       0.000000
     -0.000062       0.000344       0.000000
      0.000000       0.000000       0.000000
      0.000000       0.000000       0.000000
     -0.000259       0.000420       0.000000
     -0.000154       0.000380       0.000000
     -0.000062       0.000344       0.000000
     -0.000154       0.000380       0.000000
     -0.000358       0.000829       0.000000
     -0.000193       0.000754       0.000000
     -0.000154       0.000380       0.000000
     -0.000259       0.000420       0.000000
     -0.000538       0.000908       0.000000
     -0.000358       0.000829       0.000000
      0.000000       0.000000       0.000000
      0.000000       0.000000       0.000000
     -0.000404       0.000505       0.000000
     -0.000259       0.000420       0.000000
      0.000000       0.000000       0.000000
      0.000000       0.000000       0.000000
     -0.000625       0.000763       0.000000
     -0.000404       0.000505       0.000000
     -0.000259       0.000420       0.000000
     -0.000404       0.000505       0.000000
     -0.000741       0.001039       0.000000
     -0.000538       0.000908       0.000000
     -0.000404       0.000505       0.000000
     -0.000625       0.000763       0.000000
     -0.000952       0.001268       0.000000
     -0.000741       0.001039       0.000000
      0.000064       0.000512       0.000000
     -0.000047       0.000651       0.000000
     -0.000177       0.001063       0.000000
     -0.000019       0.000821       0.000000
     -0.000047       0.000651       0.000000
     -0.000193       0.000754       0.000000
     -0.000378       0.001225       0.000000
     -0.000177       0.001063       0.000000
     -0.000019       0.000821       0.000000
     -0.000177       0.001063       0.000000
     -0.000375       0.001551       0.000000
     -0.000167       0.001172       0.000000
     -0.000177       0.001063       0.000000
     -0.000378       0.001225       0.000000
     -0.000610       0.001749       0.000000
     -0.000375       0.001551       0.000000
     -0.000193       0.000754       0.000000
     -0.000358       0.000829       0.000000
     -0.000588       0.001326       0.000000
     -0.000378       0.001225       0.000000
     -0.000358       0.000829       0.000000
     -0.000538       0.000908       0.000000
     -0.000797       0.001414       0.000000
     -0.000588       0.001326       0.000000
     -0.000378       0.001225       0.000000
     -0.000588       0.001326       0.000000
     -0.000822       0.001841       0.000000
     -0.000610       0.001749       0.000000
     -0.000588       0.001326       0.000000
     -0.000797       0.001414       0.000000
     -0.001021       0.001911       0.000000
     -0.000822       0.001841       0.000000
     -0.000538       0.000908       0.000000
     -0.000741       0.001039       0.000000
     -0.001005       0.001537       0.000000
     -0.000797       0.001414       0.000000
     -0.000741       0.001039       0.000000
     -0.000952       0.001268       0.000000
     -0.001201       0.001723       0.000000
     -0.001005       0.001537       0.000000
     -0.000797       0.001414       0.000000
     -0.001005       0.001537       0.000000
     -0.001215       0.002002       0.000000
     -0.001021       0.001911       0.000000
     -0.001005       0.001537       0.000000
     -0.001201       0.001723       0.000000
     -0.001397       0.002139       0.000000
     -0.001215       0.002002       0.000000
     -0.000610       0.001749       0.000000
     -0.000822       0.001841       0.000000
     -0.001019       0.002339       0.000000
     -0.000863       0.002291       0.000000
     -0.000822       0.001841       0.000000
     -0.001021       0.001911       0.000000
     -0.001185       0.002381       0.000000
     -0.001019       0.002339       0.000000
     -0.000863       0.002291       0.000000
     -0.001019       0.002339       0.000000
     -0.001111       0.002800       0.000000
     -0.001004       0.002781       0.000000
     -0.001019       0.002339       0.000000
     -0.001185       0.002381       0.000000
     -0.001256       0.002829       0.000000
     -0.001111       0.002800       0.000000
     -0.001021       0.001911       0.000000
     -0.001215       0.002002       0.000000
     -0.001361       0.002439       0.000000
     -0.001185       0.002381       0.000000
     -0.001215       0.002002       0.000000
     -0.001397       0.002139       0.000000
     -0.001531       0.002522       0.000000
     -0.001361       0.002439       0.000000
     -0.001185       0.002381       0.000000
     -0.001361       0.002439       0.000000
     -0.001424       0.002861       0.000000
     -0.001256       0.002829       0.000000
     -0.001361       0.002439       0.000000
     -0.001531       0.002522       0.000000
     -0.001590       0.002888       0.000000
     -0.001424       0.002861       0.000000
     -0.000167       0.001172       0.000000
     -0.000260       0.001383       0.000000
     -0.000380       0.001640       0.000000
     -0.000272       0.001370       0.000000
     -0.000260       0.001383       0.000000
     -0.000375       0.001551       0.000000
     -0.000509       0.001834       0.000000
     -0.000380       0.001640       0.000000
     -0.000272       0.001370       0.000000
     -0.000380       0.001640       0.000000
     -0.000541       0.001946       0.000000
     -0.000411       0.001594       0.000000
     -0.000380       0.001640       0.000000
     -0.000509       0.001834       0.000000
     -0.000675       0.002148       0.000000
     -0.000541       0.001946       0.000000
     -0.000375       0.001551       0.000000
     -0.000494       0.001670       0.000000
     -0.000631       0.001953       0.000000
     -0.000509       0.001834       0.000000
     -0.000494       0.001670       0.000000
     -0.000610       0.001749       0.000000
     -0.000739       0.002022       0.000000
     -0.000631       0.001953       0.000000
     -0.000509       0.001834       0.000000
     -0.000631       0.001953       0.000000
     -0.000779       0.002244       0.000000