# vtk DataFile Version 2.0
time_10.vtk
ASCII
DATASET UNSTRUCTURED_GRID
POINTS  1152 float
      0.000000       0.000000       0.000000
      0.083333       0.000000       0.000000
      0.083333       0.083333       0.000000
      0.000000       0.083333       0.000000
      0.083333       0.000000       0.000000
      0.166667       0.000000       0.000000
      0.166667       0.083333       0.000000
      0.083333       0.083333       0.000000
      0.000000       0.083333       0.000000
      0.083333       0.083333       0.000000
      0.083333       0.166667       0.000000
      0.000000       0.166667       0.000000
      0.083333       0.083333       0.000000
      0.166667       0.083333       0.000000
      0.166667       0.166667       0.000000
      0.083333       0.166667       0.000000
      0.166667       0.000000       0.000000
      0.250000       0.000000       0.000000
      0.250000       0.083333       0.000000
      0.166667       0.083333       0.000000
      0.250000       0.000000       0.000000
      0.333333       0.000000       0.000000
      0.333333       0.083333       0.000000
      0.250000       0.083333       0.000000
      0.166667       0.083333       0.000000
      0.250000       0.083333       0.000000
      0.250000       0.166667       0.000000
      0.166667       0.166667       0.000000
      0.250000       0.083333       0.000000
      0.333333       0.083333       0.000000
      0.333333       0.166667       0.000000
      0.250000       0.166667       0.000000
      0.333333       0.000000       0.000000
      0.416667       0.000000       0.000000
      0.416667       0.083333       0.000000
      0.333333       0.083333       0.000000
      0.416667       0.000000       0.000000
      0.500000       0.000000       0.000000
      0.500000       0.083333       0.000000
      0.416667       0.083333       0.000000
      0.333333       0.083333       0.000000
      0.416667       0.083333       0.000000
      0.416667       0.166667       0.000000
      0.333333       0.166667       0.000000
      0.416667       0.083333       0.000000
      0.500000       0.083333       0.000000
      0.500000       0.166667       0.000000
      0.416667       0.166667       0.000000
      0.000000       0.166667       0.000000
      0.083333       0.166667       0.000000
      0.083333       0.250000       0.000000
      0.000000       0.250000       0.000000
      0.083333       0.166667       0.000000
      0.166667       0.166667       0.000000
      0.166667       0.250000       0.000000
      0.083333       0.250000       0.000000
      0.000000       0.250000       0.000000
      0.083333       0.250000       0.000000
      0.083333       0.333333       0.000000
      0.000000       0.333333       0.000000
      0.083333       0.250000       0.000000
      0.166667       0.250000       0.000000
      0.166667       0.333333       0.000000
      0.083333       0.333333       0.000000
      0.166667       0.166667       0.000000
      0.250000       0.166667       0.000000
      0.250000       0.250000       0.000000
      0.166667       0.250000       0.000000
      0.250000       0.166667       0.000000
      0.333333       0.166667       0.000000
      0.333333       0.250000       0.000000
      0.250000       0.250000       0.000000
      0.166667       0.250000       0.000000
      0.250000       0.250000       0.000000
      0.250000       0.333333       0.000000
      0.166667       0.333333       0.000000
      0.250000       0.250000       0.000000
      0.333333       0.250000       0.000000
      0.333333       0.333333       0.000000
      0.250000       0.333333       0.000000
      0.333333       0.166667       0.000000
      0.416667       0.166667       0.000000
      0.416667       0.250000       0.000000
      0.333333       0.250000       0.000000
      0.416667       0.166667       0.000000
      0.500000       0.166667       0.000000
      0.500000       0.250000       0.000000
      0.416667       0.250000       0.000000
      0.333333       0.250000       0.000000
      0.416667       0.250000       0.000000
      0.416667       0.333333       0.000000
      0.333333       0.333333       0.000000
      0.416667       0.250000       0.000000
      0.500000       0.250000       0.000000
      0.500000       0.333333       0.000000
      0.416667       0.333333       0.000000
      0.000000       0.333333       0.000000
      0.083333       0.333333       0.000000
      0.083333       0.416667       0.000000
      0.000000       0.416667       0.000000
      0.083333       0.333333       0.000000
      0.166667       0.333333       0.000000
      0.166667       0.416667       0.000000
      0.083333       0.416667       0.000000
      0.000000       0.416667       0.000000
      0.083333       0.416667       0.000000
      0.083333       0.500000       0.000000
      0.000000       0.500000       0.000000
      0.083333       0.416667       0.000000
      0.166667       0.416667       0.000000
      0.166667       0.500000       0.000000
      0.083333       0.500000       0.000000
      0.166667       0.333333       0.000000
      0.250000       0.333333       0.000000
      0.250000       0.416667       0.000000
      0.166667       0.416667       0.000000
      0.250000       0.333333       0.000000
      0.333333       0.333333       0.000000
      0.333333       0.416667       0.000000
      0.250000       0.416667       0.000000
      0.166667       0.416667       0.000000
      0.250000       0.416667       0.000000
      0.250000       0.500000       0.000000
      0.166667       0.500000       0.000000
      0.250000       0.416667       0.000000
      0.333333       0.416667       0.000000
      0.333333       0.500000       0.000000
      0.250000       0.500000       0.000000
      0.333333       0.333333       0.000000
      0.375000       0.333333       0.000000
      0.375000       0.375000       0.000000
      0.333333       0.375000       0.000000
      0.375000       0.333333       0.000000
      0.416667       0.333333       0.000000
      0.416667       0.375000       0.000000
      0.375000       0.375000       0.000000
      0.333333       0.375000       0.000000
      0.375000       0.375000       0.000000
      0.375000       0.416667       0.000000
      0.333333       0.416667       0.000000
      0.375000       0.375000       0.000000
      0.416667       0.375000       0.000000
      0.416667       0.416667       0.000000
      0.375000       0.416667       0.000000
      0.416667       0.333333       0.000000
      0.458333       0.333333       0.000000
      0.458333       0.375000       0.000000
      0.416667       0.375000       0.000000
      0.458333       0.333333       0.000000
      0.500000       0.333333       0.000000
      0.500000       0.375000       0.000000
      0.458333       0.375000       0.000000
      0.416667       0.375000       0.000000
      0.458333       0.375000       0.000000
      0.458333       0.416667       0.000000
      0.416667       0.416667       0.000000
      0.458333       0.375000       0.000000
      0.500000       0.375000       0.000000
      0.500000       0.416667       0.000000
      0.458333       0.416667       0.000000
      0.333333       0.416667       0.000000
      0.375000       0.416667       0.000000
      0.375000       0.458333       0.000000
      0.333333       0.458333       0.000000
      0.375000       0.416667       0.000000
      0.416667       0.416667       0.000000
      0.416667       0.458333       0.000000
      0.375000       0.458333       0.000000
      0.333333       0.458333       0.000000
      0.375000       0.458333       0.000000
      0.375000       0.500000       0.000000
      0.333333       0.500000       0.000000
      0.375000       0.458333       0.000000
      0.416667       0.458333       0.000000
      0.416667       0.500000       0.000000
      0.375000       0.500000       0.000000
      0.416667       0.416667       0.000000
      0.437500       0.416667       0.000000
      0.437500       0.437500       0.000000
      0.416667       0.437500       0.000000
      0.437500       0.416667       0.000000
      0.458333       0.416667       0.000000
      0.458333       0.437500       0.000000
      0.437500       0.437500       0.000000
      0.416667       0.437500       0.000000
      0.437500       0.437500       0.000000
      0.437500       0.458333       0.000000
      0.416667       0.458333       0.000000
      0.437500       0.437500       0.000000
      0.458333       0.437500       0.000000
      0.458333       0.458333       0.000000
      0.437500       0.458333       0.000000
      0.458333       0.416667       0.000000
      0.479167       0.416667       0.000000
      0.479167       0.437500       0.000000
      0.458333       0.437500       0.000000
      0.479167       0.416667       0.000000
      0.500000       0.416667       0.000000
      0.500000       0.437500       0.000000
      0.479167       0.437500       0.000000
      0.458333       0.437500       0.000000
      0.479167       0.437500       0.000000
      0.479167       0.458333       0.000000
      0.458333       0.458333       0.000000
      0.479167       0.437500       0.000000
      0.500000       0.437500       0.000000
      0.500000       0.458333       0.000000
      0.479167       0.458333       0.000000
      0.416667       0.458333       0.000000
      0.437500       0.458333       0.000000
      0.437500       0.479167       0.000000
      0.416667       0.479167       0.000000
      0.437500       0.458333       0.000000
      0.458333       0.458333       0.000000
      0.458333       0.479167       0.000000
      0.437500       0.479167       0.000000
      0.416667       0.479167       0.000000
      0.437500       0.479167       0.000000
      0.437500       0.500000       0.000000
      0.416667       0.500000       0.000000
[...]
POINT_DATA  1152
VECTORS U float 
      0.000000       0.000000       0.000000
      0.000000       0.000000       0.000000
      0.000073      -0.000016       0.000000
      0.000054      -0.000017       0.000000
      0.000000       0.000000       0.000000
      0.000000       0.000000       0.000000
      0.000093       0.000014       0.000000
      0.000073      -0.000016       0.000000
      0.000054      -0.000017       0.000000
      0.000073      -0.000016       0.000000
      0.000080      -0.000042       0.000000
      0.000055      -0.000087       0.000000
      0.000073      -0.000016       0.000000
      0.000093       0.000014       0.000000
      0.000102       0.000018       0.000000
      0.000080      -0.000042       0.000000
      0.000000       0.000000       0.000000
      0.000000       0.000000       0.000000
      0.000111       0.000055       0.000000
      0.000093       0.000014       0.000000
      0.000000       0.000000       0.000000
      0.000000       0.000000       0.000000
      0.000121       0.000108       0.000000
      0.000111       0.000055       0.000000
      0.000093       0.000014       0.000000
      0.000111       0.000055       0.000000
      0.000126       0.000099       0.000000
      0.000102       0.000018       0.000000
      0.000111       0.000055       0.000000
      0.000121       0.000108       0.000000
      0.000141       0.000212       0.000000
      0.000126       0.000099       0.000000
      0.000000       0.000000       0.000000
      0.000000       0.000000       0.000000
      0.000113       0.000172       0.000000
      0.000121       0.000108       0.000000
      0.000000       0.000000       0.000000
      0.000000       0.000000       0.000000
      0.000079       0.000240       0.000000
      0.000113       0.000172       0.000000
      0.000121       0.000108       0.000000
      0.000113       0.000172       0.000000
      0.000126       0.000357       0.000000
      0.000141       0.000212       0.000000
      0.000113       0.000172       0.000000
      0.000079       0.000240       0.000000
      0.000065       0.000515       0.000000
      0.000126       0.000357       0.000000
      0.000055      -0.000087       0.000000
      0.000080      -0.000042       0.000000
      0.000006      -0.000073       0.000000
     -0.000017      -0.000164       0.000000
      0.000080      -0.000042       0.000000
      0.000102       0.000018       0.000000
      0.000027       0.000015       0.000000
      0.000006      -0.000073       0.000000
     -0.000017      -0.000164       0.000000
      0.000006      -0.000073       0.000000
     -0.000135      -0.000100       0.000000
     -0.000149      -0.000224       0.000000
      0.000006      -0.000073       0.000000
      0.000027       0.000015       0.000000
     -0.000123       0.000007       0.000000
     -0.000135      -0.000100       0.000000
      0.000102       0.000018       0.000000
      0.000126       0.000099       0.000000
      0.000052       0.000130       0.000000
      0.000027       0.000015       0.000000
      0.000126       0.000099       0.000000
      0.000141       0.000212       0.000000
      0.000073       0.000303       0.000000
      0.000052       0.000130       0.000000
      0.000027       0.000015       0.000000
      0.000052       0.000130       0.000000
     -0.000107       0.000145       0.000000
     -0.000123       0.000007       0.000000
      0.000052       0.000130       0.000000
      0.000073       0.000303       0.000000
     -0.000086       0.000366       0.000000
     -0.000107       0.000145       0.000000
      0.000141       0.000212       0.000000
      0.000126       0.000357       0.000000
      0.000061       0.000545       0.000000
      0.000073       0.000303       0.000000
      0.000126       0.000357       0.000000
      0.000065       0.000515       0.000000
     -0.000019       0.000825       0.000000
      0.000061       0.000545       0.000000
      0.000073       0.000303       0.000000
      0.000061       0.000545       0.000000
     -0.000083       0.000719       0.000000
     -0.000086       0.000366       0.000000
      0.000061       0.000545       0.000000
     -0.000019       0.000825       0.000000
     -0.000169       0.001177       0.000000
     -0.000083       0.000719       0.000000
     -0.000149      -0.000224       0.000000
     -0.000135      -0.000100       0.000000
     -0.000308      -0.000114       0.000000
     -0.000310      -0.000251       0.000000
     -0.000135      -0.000100       0.000000
     -0.000123       0.000007       0.000000
     -0.000317       0.000004       0.000000
     -0.000308      -0.000114       0.000000
     -0.000310      -0.000251       0.000000
     -0.000308      -0.000114       0.000000
     -0.000465      -0.000113       0.000000
     -0.000463      -0.000253       0.000000
     -0.000308      -0.000114       0.000000
     -0.000317       0.000004       0.000000
     -0.000494       0.000018       0.000000
     -0.000465      -0.000113       0.000000
     -0.000123       0.000007       0.000000
     -0.000107       0.000145       0.000000
     -0.000336       0.000152       0.000000
     -0.000317       0.000004       0.000000
     -0.000107       0.000145       0.000000
     -0.000086       0.000366       0.000000
     -0.000354       0.000393       0.000000
     -0.000336       0.000152       0.000000
     -0.000317       0.000004       0.000000
     -0.000336       0.000152       0.000000
     -0.000570       0.000178       0.000000
     -0.000494       0.000018       0.000000
     -0.000336       0.000152       0.000000
     -0.000354       0.000393       0.000000
     -0.000702       0.000429       0.000000
     -0.000570       0.000178       0.000000
     -0.000086       0.000366       0.000000
     -0.000079       0.000525       0.000000
     -0.000198       0.000560       0.000000
     -0.000206       0.000383       0.000000
     -0.000079       0.000525       0.000000
     -0.000083       0.000719       0.000000
     -0.000196       0.000789       0.000000
     -0.000198       0.000560       0.000000
     -0.000206       0.000383       0.000000
     -0.000198       0.000560       0.000000
     -0.000357       0.000579       0.000000
     -0.000354       0.000393       0.000000
     -0.000198       0.000560       0.000000
     -0.000196       0.000789       0.000000
     -0.000354       0.000836       0.000000
     -0.000357       0.000579       0.000000
     -0.000083       0.000719       0.000000
     -0.000109       0.000944       0.000000
     -0.000214       0.001071       0.000000
     -0.000196       0.000789       0.000000
     -0.000109       0.000944       0.000000
     -0.000169       0.001177       0.000000
     -0.000275       0.001376       0.000000
     -0.000214       0.001071       0.000000
     -0.000196       0.000789       0.000000
     -0.000214       0.001071       0.000000
     -0.000358       0.001184       0.000000
     -0.000354       0.000836       0.000000
     -0.000214       0.001071       0.000000
     -0.000275       0.001376       0.000000
     -0.000415       0.001600       0.000000
     -0.000358       0.001184       0.000000
     -0.000354       0.000393       0.000000
     -0.000357       0.000579       0.000000
     -0.000562       0.000592       0.000000
     -0.000527       0.000404       0.000000
     -0.000357       0.000579       0.000000
     -0.000354       0.000836       0.000000
     -0.000587       0.000858       0.000000
     -0.000562       0.000592       0.000000
     -0.000527       0.000404       0.000000
     -0.000562       0.000592       0.000000
     -0.000791       0.000620       0.000000
     -0.000702       0.000429       0.000000
     -0.000562       0.000592       0.000000
     -0.000587       0.000858       0.000000
     -0.000897       0.000885       0.000000
     -0.000791       0.000620       0.000000
     -0.000354       0.000836       0.000000
     -0.000353       0.000999       0.000000
     -0.000457       0.001022       0.000000
     -0.000459       0.000850       0.000000
     -0.000353       0.000999       0.000000
     -0.000358       0.001184       0.000000
     -0.000457       0.001230       0.000000
     -0.000457       0.001022       0.000000
     -0.000459       0.000850       0.000000
     -0.000457       0.001022       0.000000
     -0.000591       0.001036       0.000000
     -0.000587       0.000858       0.000000
     -0.000457       0.001022       0.000000
     -0.000457       0.001230       0.000000
     -0.000588       0.001261       0.000000
     -0.000591       0.001036       0.000000
     -0.000358       0.001184       0.000000
     -0.000376       0.001390       0.000000
     -0.000468       0.001472       0.000000
     -0.000457       0.001230       0.000000
     -0.000376       0.001390       0.000000
     -0.000415       0.001600       0.000000
     -0.000506       0.001729       0.000000
     -0.000468       0.001472       0.000000
     -0.000457       0.001230       0.000000
     -0.000468       0.001472       0.000000
     -0.000587       0.001547       0.000000
     -0.000588       0.001261       0.000000
     -0.000468       0.001472       0.000000
     -0.000506       0.001729       0.000000
     -0.000621       0.001883       0.000000
     -0.000587       0.001547       0.000000
     -0.000587       0.000858       0.000000
     -0.000591       0.001036       0.000000
     -0.000761       0.001045       0.000000
     -0.000737       0.000867       0.000000
     -0.000591       0.001036       0.000000
     -0.000588       0.001261       0.000000
     -0.000775       0.001274       0.000000
     -0.000761       0.001045       0.000000
     -0.000737       0.000867       0.000000
     -0.000761       0.001045       0.000000
     -0.000958       0.001063       0.000000
     -0.000897       0.000885       0.000000
     -0.000761       0.001045       0.000000
     -0.000775       0.001274       0.000000
     -0.001027       0.001290       0.000000
     -0.000958       0.001063       0.000000
     -0.000588       0.001261       0.000000
     -0.000586       0.001396       0.000000
     -0.000670       0.001411       0.000000
     -0.000673       0.001269       0.000000
     -0.000586       0.001396       0.000000
     -0.000587       0.001547       0.000000
     -0.000666       0.001578       0.000000
     -0.000670       0.001411       0.000000
     -0.000673       0.001269       0.000000
     -0.000670       0.001411       0.000000
     -0.000775       0.001419       0.000000
     -0.000775       0.001274       0.000000
     -0.000670       0.001411       0.000000
     -0.000666       0.001578       0.000000
     -0.000769       0.001599       0.000000
     -0.000775       0.001419       0.000000
     -0.000587       0.001547       0.000000
     -0.000597       0.001713       0.000000
     -0.000670       0.001772       0.000000
     -0.000666       0.001578       0.000000
     -0.000597       0.001713       0.000000
     -0.000621       0.001883       0.000000
     -0.000693       0.001977       0.000000
     -0.000670       0.001772       0.000000
     -0.000666       0.001578       0.000000
     -0.000670       0.001772       0.000000
     -0.000762       0.001828       0.000000
     -0.000769       0.001599       0.000000
     -0.000670       0.001772       0.000000
     -0.000693       0.001977       0.000000
     -0.000783       0.002095       0.000000
     -0.000762       0.001828       0.000000
     -0.000775       0.001274       0.000000
     -0.000775       0.001419       0.000000
     -0.000910       0.001424       0.000000
     -0.000896       0.001279       0.000000
     -0.000775       0.001419       0.000000
     -0.000769       0.001599       0.000000
     -0.000915       0.001607       0.000000
     -0.000910       0.001424       0.000000
     -0.000896       0.001279       0.000000
     -0.000910       0.001424       0.000000
     -0.001067       0.001435       0.000000
     -0.001027       0.001290       0.000000
     -0.000910       0.001424       0.000000
     -0.000915       0.001607       0.000000
     -0.001115       0.001619       0.000000
     -0.001067       0.001435       0.000000
     -0.000769       0.001599       0.000000
     -0.000762       0.001828       0.000000
     -0.000901       0.001869       0.000000
     -0.000915       0.001607       0.000000
     -0.000762       0.001828       0.000000
     -0.000783       0.002095       0.000000
     -0.000911       0.002275       0.000000
     -0.000901       0.001869       0.000000
     -0.000915       0.001607       0.000000
     -0.000901       0.001869       0.000000
     -0.001182       0.001893       0.000000
     -0.001115       0.001619       0.000000
     -0.000901       0.001869       0.000000
     -0.000911       0.002275       0.000000
     -0.001274       0.002800       0.000000
     -0.001182       0.001893       0.000000
      0.000000       0.000000       0.000000
      0.000000       0.000000       0.000000
      0.000018       0.000300       0.000000
      0.000079       0.000240       0.000000
      0.000000       0.000000       0.000000
      0.000000       0.000000       0.000000
     -0.000063       0.000346       0.000000
      0.000018       0.000300       0.000000
      0.000079       0.000240       0.000000
      0.000018       0.000300       0.000000
     -0.000047       0.000655       0.000000
      0.000065       0.000515       0.000000
      0.000018       0.000300       0.000000
     -0.000063       0.000346       0.000000
     -0.000194       0.000759       0.000000
     -0.000047       0.000655       0.000000
      0.000000       0.000000       0.000000
      0.000000       0.000000       0.000000
     -0.000155       0.000383       0.000000
     -0.000063       0.000346       0.000000
      0.000000       0.000000       0.000000
      0.000000       0.000000       0.000000
     -0.000261       0.000424       0.000000
     -0.000155       0.000383       0.000000
     -0.000063       0.000346       0.000000
     -0.000155       0.000383       0.000000
     -0.000361       0.000836       0.000000
     -0.000194       0.000759       0.000000
     -0.000155       0.000383       0.000000
     -0.000261       0.000424       0.000000
     -0.000543       0.000915       0.000000
     -0.000361       0.000836       0.000000
      0.000000       0.000000       0.000000
      0.000000       0.000000       0.000000
     -0.000407       0.000510       0.000000
     -0.000261       0.000424       0.000000
      0.000000       0.000000       0.000000
      0.000000       0.000000       0.000000
     -0.000630       0.000770       0.000000
     -0.000407       0.000510       0.000000
     -0.000261       0.000424       0.000000
     -0.000407       0.000510       0.000000
     -0.000747       0.001048       0.000000
     -0.000543       0.000915       0.000000
     -0.000407       0.000510       0.000000
     -0.000630       0.000770       0.000000
     -0.000960       0.001280       0.000000
     -0.000747       0.001048       0.000000
      0.000065       0.000515       0.000000
     -0.000047       0.000655       0.000000
     -0.000178       0.001069       0.000000
     -0.000019       0.000825       0.000000
     -0.000047       0.000655       0.000000
     -0.000194       0.000759       0.000000
     -0.000381       0.001234       0.000000
     -0.000178       0.001069       0.000000
     -0.000019       0.000825       0.000000
     -0.000178       0.001069       0.000000
     -0.000377       0.001561       0.000000
     -0.000169       0.001177       0.000000
     -0.000178       0.001069       0.000000
     -0.000381       0.001234       0.000000
     -0.000615       0.001763       0.000000
     -0.000377       0.001561       0.000000
     -0.000194       0.000759       0.000000
     -0.000361       0.000836       0.000000
     -0.000593       0.001337       0.000000
     -0.000381       0.001234       0.000000
     -0.000361       0.000836       0.000000
     -0.000543       0.000915       0.000000
     -0.000804       0.001427       0.000000
     -0.000593       0.001337       0.000000
     -0.000381       0.001234       0.000000
     -0.000593       0.001337       0.000000
     -0.000829       0.001857       0.000000
     -0.000615       0.001763       0.000000
     -0.000593       0.001337       0.000000
     -0.000804       0.001427       0.000000
     -0.001031       0.001927       0.000000
     -0.000829       0.001857       0.000000
     -0.000543       0.000915       0.000000
     -0.000747       0.001048       0.000000
     -0.001014       0.001551       0.000000
     -0.000804       0.001427       0.000000
     -0.000747       0.001048       0.000000
     -0.000960       0.001280       0.000000
     -0.001212       0.001739       0.000000
     -0.001014       0.001551       0.000000
     -0.000804       0.001427       0.000000
     -0.001014       0.001551       0.000000
     -0.001226       0.002020       0.000000
     -0.001031       0.001927       0.000000
     -0.001014       0.001551       0.000000
     -0.001212       0.001739       0.000000
     -0.001409       0.002158       0.000000
     -0.001226       0.002020       0.000000
     -0.000615       0.001763       0.000000
     -0.000829       0.001857       0.000000
     -0.001029       0.002359       0.000000
     -0.000872       0.002310       0.000000
     -0.000829       0.001857       0.000000
     -0.001031       0.001927       0.000000
     -0.001197       0.002402       0.000000
     -0.001029       0.002359       0.000000
     -0.000872       0.002310       0.000000
     -0.001029       0.002359       0.000000
     -0.001122       0.002825       0.000000
     -0.001015       0.002806       0.000000
     -0.001029       0.002359       0.000000
     -0.001197       0.002402       0.000000
     -0.001269       0.002853       0.000000
     -0.001122       0.002825       0.000000
     -0.001031       0.001927       0.000000
     -0.001226       0.002020       0.000000
     -0.001373       0.002461       0.000000
     -0.001197       0.002402       0.000000
     -0.001226       0.002020       0.000000
     -0.001409       0.002158       0.000000
     -0.001545       0.002545       0.000000
     -0.001373       0.002461       0.000000
     -0.001197       0.002402       0.000000
     -0.001373       0.002461       0.000000
     -0.001437       0.002886       0.000000
     -0.001269       0.002853       0.000000
     -0.001373       0.002461       0.000000
     -0.001545       0.002545       0.000000
     -0.001605       0.002913       0.000000
     -0.001437       0.002886       0.000000
     -0.000169       0.001177       0.000000
     -0.000262       0.001390       0.000000
     -0.000383       0.001649       0.000000
     -0.000275       0.001376       0.000000
     -0.000262       0.001390       0.000000
     -0.000377       0.001561       0.000000
     -0.000513       0.001846       0.000000
     -0.000383       0.001649       0.000000
     -0.000275       0.001376       0.000000
     -0.000383       0.001649       0.000000
     -0.000545       0.001957       0.000000
     -0.000415       0.001600       0.000000
     -0.000383       0.001649       0.000000
     -0.000513       0.001846       0.000000
     -0.000681       0.002163       0.000000
     -0.000545       0.001957       0.000000
     -0.000377       0.001561       0.000000
     -0.000498       0.001682       0.000000
     -0.000636       0.001968       0.000000
     -0.000513       0.001846       0.000000
     -0.000498       0.001682       0.000000
     -0.000615       0.001763       0.000000
     -0.000746       0.002038       0.000000
     -0.000636       0.001968       0.000000
     -0.000513       0.001846       0.000000
     -0.000636       0.001968       0.000000
     -0.000786       0.002261       0.000000