# vtk DataFile Version 2.0
time_10.vtk
ASCII
DATASET UNSTRUCTURED_GRID
POINTS  1152 float
      0.000000       0.000000       0.000000
      0.083333       0.000000       0.000000
      0.083333       0.083333       0.000000
      0.000000       0.083333       0.000000
      0.083333       0.000000       0.000000
      0.166667       0.000000       0.000000
      0.166667       0.083333       0.000000
      0.083333       0.083333       0.000000
      0.000000       0.083333       0.000000
      0.083333       0.083333       0.000000
      0.083333       0.166667       0.000000
      0.000000       0.166667       0.000000
      0.083333       0.083333       0.000000
      0.166667       0.083333       0.000000
      0.166667       0.166667       0.000000
      0.083333       0.166667       0.000000
      0.166667       0.000000       0.000000
      0.250000       0.000000       0.000000
      0.250000       0.083333       0.000000
      0.166667       0.083333       0.000000
      0.250000       0.000000       0.000000
      0.333333       0.000000       0.000000
      0.333333       0.083333       0.000000
      0.250000       0.083333       0.000000
      0.166667       0.083333       0.000000
      0.250000       0.083333       0.000000
      0.250000       0.166667       0.000000
      0.166667       0.166667       0.000000
      0.250000       0.083333       0.000000
      0.333333       0.083333       0.000000
      0.333333       0.166667       0.000000
      0.250000       0.166667       0.000000
      0.333333       0.000000       0.000000
      0.416667      -0.000000       0.000000
      0.416667       0.083333       0.000000
      0.333333       0.083333       0.000000
      0.416667      -0.000000       0.000000
      0.500000       0.000000       0.000000
      0.500000       0.083333       0.000000
      0.416667       0.083333       0.000000
      0.333333       0.083333       0.000000
      0.416667       0.083333       0.000000
      0.416667       0.166667       0.000000
      0.333333       0.166667       0.000000
      0.416667       0.083333       0.000000
      0.500000       0.083333       0.000000
      0.500000       0.166667       0.000000
      0.416667       0.166667       0.000000
      0.000000       0.166667       0.000000
      0.083333       0.166667       0.000000
      0.083333       0.250000       0.000000
      0.000000       0.250000       0.000000
      0.083333       0.166667       0.000000
      0.166667       0.166667       0.000000
      0.166667       0.250000       0.000000
      0.083333       0.250000       0.000000
      0.000000       0.250000       0.000000
      0.083333       0.250000       0.000000
      0.083333       0.333333       0.000000
      0.000000       0.333333       0.000000
      0.083333       0.250000       0.000000
      0.166667       0.250000       0.000000
      0.166667       0.333333       0.000000
      0.083333       0.333333       0.000000
      0.166667       0.166667       0.000000
      0.250000       0.166667       0.000000
      0.250000       0.250000       0.000000
      0.166667       0.250000       0.000000
      0.250000       0.166667       0.000000
      0.333333       0.166667       0.000000
      0.333333       0.250000       0.000000
      0.250000       0.250000       0.000000
      0.166667       0.250000       0.000000
      0.250000       0.250000       0.000000
      0.250000       0.333333       0.000000
      0.166667       0.333333       0.000000
      0.250000       0.250000       0.000000
      0.333333       0.250000       0.000000
      0.333333       0.333333       0.000000
      0.250000       0.333333       0.000000
      0.333333       0.166667       0.000000
      0.416667       0.166667       0.000000
      0.416667       0.250000       0.000000
      0.333333       0.250000       0.000000
      0.416667       0.166667       0.000000
      0.500000       0.166667       0.000000
      0.500000       0.250000       0.000000
      0.416667       0.250000       0.000000
      0.333333       0.250000       0.000000
      0.416667       0.250000       0.000000
      0.416667       0.333333       0.000000
      0.333333       0.333333       0.000000
      0.416667       0.250000       0.000000
      0.500000       0.250000       0.000000
      0.500000       0.333333       0.000000
      0.416667       0.333333       0.000000
      0.000000       0.333333       0.000000
      0.083333       0.333333       0.000000
      0.083333       0.416667       0.000000
     -0.000000       0.416667       0.000000
      0.083333       0.333333       0.000000
      0.166667       0.333333       0.000000
      0.166667       0.416667       0.000000
      0.083333       0.416667       0.000000
     -0.000000       0.416667       0.000000
      0.083333       0.416667       0.000000
      0.083333       0.500000       0.000000
      0.000000       0.500000       0.000000
      0.083333       0.416667       0.000000
      0.166667       0.416667       0.000000
      0.166667       0.500000       0.000000
      0.083333       0.500000       0.000000
      0.166667       0.333333       0.000000
      0.250000       0.333333       0.000000
      0.250000       0.416667       0.000000
      0.166667       0.416667       0.000000
      0.250000       0.333333       0.000000
      0.333333       0.333333       0.000000
      0.333333       0.416667       0.000000
      0.250000       0.416667       0.000000
      0.166667       0.416667       0.000000
      0.250000       0.416667       0.000000
      0.250000       0.500000       0.000000
      0.166667       0.500000       0.000000
      0.250000       0.416667       0.000000
      0.333333       0.416667       0.000000
      0.333333       0.500000       0.000000
      0.250000       0.500000       0.000000
      0.333333       0.333333       0.000000
      0.375000       0.333333       0.000000
      0.375000       0.375000       0.000000
      0.333333       0.375000       0.000000
      0.375000       0.333333       0.000000
      0.416667       0.333333       0.000000
      0.416667       0.375000       0.000000
      0.375000       0.375000       0.000000
      0.333333       0.375000       0.000000
      0.375000       0.375000       0.000000
      0.375000       0.416667       0.000000
      0.333333       0.416667       0.000000
      0.375000       0.375000       0.000000
      0.416667       0.375000       0.000000
      0.416667       0.416667       0.000000
      0.375000       0.416667       0.000000
      0.416667       0.333333       0.000000
      0.458333       0.333333       0.000000
      0.458333       0.375000       0.000000
      0.416667       0.375000       0.000000
      0.458333       0.333333       0.000000
      0.500000       0.333333       0.000000
      0.500000       0.375000       0.000000
      0.458333       0.375000       0.000000
      0.416667       0.375000       0.000000
      0.458333       0.375000       0.000000
      0.458333       0.416667       0.000000
      0.416667       0.416667       0.000000
      0.458333       0.375000       0.000000
      0.500000       0.375000       0.000000
      0.500000       0.416667       0.000000
      0.458333       0.416667       0.000000
      0.333333       0.416667       0.000000
      0.375000       0.416667       0.000000
      0.375000       0.458333       0.000000
      0.333333       0.458333       0.000000
      0.375000       0.416667       0.000000
      0.416667       0.416667       0.000000
      0.416667       0.458333       0.000000
      0.375000       0.458333       0.000000
      0.333333       0.458333       0.000000
      0.375000       0.458333       0.000000
      0.375000       0.500000       0.000000
      0.333333       0.500000       0.000000
      0.375000       0.458333       0.000000
      0.416667       0.458333       0.000000
      0.416667       0.500000       0.000000
      0.375000       0.500000       0.000000
      0.416667       0.416667       0.000000
      0.437500       0.416667       0.000000
      0.437500       0.437500       0.000000
      0.416667       0.437500       0.000000
      0.437500       0.416667       0.000000
      0.458333       0.416667       0.000000
      0.458333       0.437500       0.000000
      0.437500       0.437500       0.000000
      0.416667       0.437500       0.000000
      0.437500       0.437500       0.000000
      0.437500       0.458333       0.000000
      0.416667       0.458333       0.000000
      0.437500       0.437500       0.000000
      0.458333       0.437500       0.000000
      0.458333       0.458333       0.000000
      0.437500       0.458333       0.000000
      0.458333       0.416667       0.000000
      0.479167       0.416667       0.000000
      0.479167       0.437500       0.000000
      0.458333       0.437500       0.000000
      0.479167       0.416667       0.000000
      0.500000       0.416667       0.000000
      0.500000       0.437500       0.000000
      0.479167       0.437500       0.000000
      0.458333       0.437500       0.000000
      0.479167       0.437500       0.000000
      0.479167       0.458333       0.000000
      0.458333       0.458333       0.000000
      0.479167       0.437500       0.000000
      0.500000       0.437500       0.000000
      0.500000       0.458333       0.000000
      0.479167       0.458333       0.000000
      0.416667       0.458333       0.000000
      0.437500       0.458333       0.000000
      0.437500       0.479167       0.000000
      0.416667       0.479167       0.000000
      0.437500       0.458333       0.000000
      0.458333       0.458333       0.000000
      0.458333       0.479167       0.000000
      0.437500       0.479167       0.000000
      0.416667       0.479167       0.000000
      0.437500       0.479167       0.000000
      0.437500       0.500000       0.000000
      0.416667       0.500000       0.000000
[...]
POINT_DATA  1152
VECTORS U float 
      0.000000       0.000000       0.000000
      0.000000       0.000000       0.000000
      0.000073      -0.000014       0.000000
      0.000054      -0.000015       0.000000
      0.000000       0.000000       0.000000
      0.000000       0.000000       0.000000
      0.000092       0.000015       0.000000
      0.000073      -0.000014       0.000000
      0.000054      -0.000015       0.000000
      0.000073      -0.000014       0.000000
      0.000081      -0.000039       0.000000
      0.000057      -0.000081       0.000000
      0.000073      -0.000014       0.000000
      0.000092       0.000015       0.000000
      0.000103       0.000019       0.000000
      0.000081      -0.000039       0.000000
      0.000000       0.000000       0.000000
      0.000000       0.000000       0.000000
      0.000109       0.000054       0.000000
      0.000092       0.000015       0.000000
      0.000000       0.000000       0.000000
      0.000000       0.000000       0.000000
      0.000118       0.000106       0.000000
      0.000109       0.000054       0.000000
      0.000092       0.000015       0.000000
      0.000109       0.000054       0.000000
      0.000125       0.000098       0.000000
      0.000103       0.000019       0.000000
      0.000109       0.000054       0.000000
      0.000118       0.000106       0.000000
      0.000139       0.000208       0.000000
      0.000125       0.000098       0.000000
      0.000000       0.000000       0.000000
      0.000000       0.000000       0.000000
      0.000110       0.000168       0.000000
      0.000118       0.000106       0.000000
      0.000000       0.000000       0.000000
      0.000000       0.000000       0.000000
      0.000076       0.000233       0.000000
      0.000110       0.000168       0.000000
      0.000118       0.000106       0.000000
      0.000110       0.000168       0.000000
      0.000124       0.000348       0.000000
      0.000139       0.000208       0.000000
      0.000110       0.000168       0.000000
      0.000076       0.000233       0.000000
      0.000063       0.000500       0.000000
      0.000124       0.000348       0.000000
      0.000057      -0.000081       0.000000
      0.000081      -0.000039       0.000000
      0.000011      -0.000068       0.000000
     -0.000011      -0.000156       0.000000
      0.000081      -0.000039       0.000000
      0.000103       0.000019       0.000000
      0.000031       0.000017       0.000000
      0.000011      -0.000068       0.000000
     -0.000011      -0.000156       0.000000
      0.000011      -0.000068       0.000000
     -0.000124      -0.000094       0.000000
     -0.000139      -0.000214       0.000000
      0.000011      -0.000068       0.000000
      0.000031       0.000017       0.000000
     -0.000113       0.000010       0.000000
     -0.000124      -0.000094       0.000000
      0.000103       0.000019       0.000000
      0.000125       0.000098       0.000000
      0.000056       0.000129       0.000000
      0.000031       0.000017       0.000000
      0.000125       0.000098       0.000000
      0.000139       0.000208       0.000000
      0.000075       0.000297       0.000000
      0.000056       0.000129       0.000000
      0.000031       0.000017       0.000000
      0.000056       0.000129       0.000000
     -0.000098       0.000144       0.000000
     -0.000113       0.000010       0.000000
      0.000056       0.000129       0.000000
      0.000075       0.000297       0.000000
     -0.000077       0.000360       0.000000
     -0.000098       0.000144       0.000000
      0.000139       0.000208       0.000000
      0.000124       0.000348       0.000000
      0.000063       0.000533       0.000000
      0.000075       0.000297       0.000000
      0.000124       0.000348       0.000000
      0.000063       0.000500       0.000000
     -0.000017       0.000802       0.000000
      0.000063       0.000533       0.000000
      0.000075       0.000297       0.000000
      0.000063       0.000533       0.000000
     -0.000074       0.000704       0.000000
     -0.000077       0.000360       0.000000
      0.000063       0.000533       0.000000
     -0.000017       0.000802       0.000000
     -0.000160       0.001146       0.000000
     -0.000074       0.000704       0.000000
     -0.000139      -0.000214       0.000000
     -0.000124      -0.000094       0.000000
     -0.000292      -0.000107       0.000000
     -0.000294      -0.000240       0.000000
     -0.000124      -0.000094       0.000000
     -0.000113       0.000010       0.000000
     -0.000301       0.000007       0.000000
     -0.000292      -0.000107       0.000000
     -0.000294      -0.000240       0.000000
     -0.000292      -0.000107       0.000000
     -0.000444      -0.000106       0.000000
     -0.000442      -0.000242       0.000000
     -0.000292      -0.000107       0.000000
     -0.000301       0.000007       0.000000
     -0.000472       0.000020       0.000000
     -0.000444      -0.000106       0.000000
     -0.000113       0.000010       0.000000
     -0.000098       0.000144       0.000000
     -0.000319       0.000151       0.000000
     -0.000301       0.000007       0.000000
     -0.000098       0.000144       0.000000
     -0.000077       0.000360       0.000000
     -0.000336       0.000386       0.000000
     -0.000319       0.000151       0.000000
     -0.000301       0.000007       0.000000
     -0.000319       0.000151       0.000000
     -0.000546       0.000176       0.000000
     -0.000472       0.000020       0.000000
     -0.000319       0.000151       0.000000
     -0.000336       0.000386       0.000000
     -0.000674       0.000421       0.000000
     -0.000546       0.000176       0.000000
     -0.000077       0.000360       0.000000
     -0.000070       0.000515       0.000000
     -0.000184       0.000549       0.000000
     -0.000192       0.000377       0.000000
     -0.000070       0.000515       0.000000
     -0.000074       0.000704       0.000000
     -0.000182       0.000773       0.000000
     -0.000184       0.000549       0.000000
     -0.000192       0.000377       0.000000
     -0.000184       0.000549       0.000000
     -0.000338       0.000569       0.000000
     -0.000336       0.000386       0.000000
     -0.000184       0.000549       0.000000
     -0.000182       0.000773       0.000000
     -0.000334       0.000820       0.000000
     -0.000338       0.000569       0.000000
     -0.000074       0.000704       0.000000
     -0.000101       0.000922       0.000000
     -0.000200       0.001047       0.000000
     -0.000182       0.000773       0.000000
     -0.000101       0.000922       0.000000
     -0.000160       0.001146       0.000000
     -0.000261       0.001340       0.000000
     -0.000200       0.001047       0.000000
     -0.000182       0.000773       0.000000
     -0.000200       0.001047       0.000000
     -0.000337       0.001161       0.000000
     -0.000334       0.000820       0.000000
     -0.000200       0.001047       0.000000
     -0.000261       0.001340       0.000000
     -0.000395       0.001562       0.000000
     -0.000337       0.001161       0.000000
     -0.000336       0.000386       0.000000
     -0.000338       0.000569       0.000000
     -0.000536       0.000581       0.000000
     -0.000504       0.000397       0.000000
     -0.000338       0.000569       0.000000
     -0.000334       0.000820       0.000000
     -0.000559       0.000841       0.000000
     -0.000536       0.000581       0.000000
     -0.000504       0.000397       0.000000
     -0.000536       0.000581       0.000000
     -0.000760       0.000608       0.000000
     -0.000674       0.000421       0.000000
     -0.000536       0.000581       0.000000
     -0.000559       0.000841       0.000000
     -0.000863       0.000868       0.000000
     -0.000760       0.000608       0.000000
     -0.000334       0.000820       0.000000
     -0.000332       0.000979       0.000000
     -0.000433       0.001003       0.000000
     -0.000435       0.000833       0.000000
     -0.000332       0.000979       0.000000
     -0.000337       0.001161       0.000000
     -0.000432       0.001206       0.000000
     -0.000433       0.001003       0.000000
     -0.000435       0.000833       0.000000
     -0.000433       0.001003       0.000000
     -0.000562       0.001016       0.000000
     -0.000559       0.000841       0.000000
     -0.000433       0.001003       0.000000
     -0.000432       0.001206       0.000000
     -0.000558       0.001237       0.000000
     -0.000562       0.001016       0.000000
     -0.000337       0.001161       0.000000
     -0.000356       0.001360       0.000000
     -0.000443       0.001443       0.000000
     -0.000432       0.001206       0.000000
     -0.000356       0.001360       0.000000
     -0.000395       0.001562       0.000000
     -0.000482       0.001691       0.000000
     -0.000443       0.001443       0.000000
     -0.000432       0.001206       0.000000
     -0.000443       0.001443       0.000000
     -0.000557       0.001519       0.000000
     -0.000558       0.001237       0.000000
     -0.000443       0.001443       0.000000
     -0.000482       0.001691       0.000000
     -0.000592       0.001843       0.000000
     -0.000557       0.001519       0.000000
     -0.000559       0.000841       0.000000
     -0.000562       0.001016       0.000000
     -0.000729       0.001025       0.000000
     -0.000706       0.000850       0.000000
     -0.000562       0.001016       0.000000
     -0.000558       0.001237       0.000000
     -0.000741       0.001250       0.000000
     -0.000729       0.001025       0.000000
     -0.000706       0.000850       0.000000
     -0.000729       0.001025       0.000000
     -0.000922       0.001042       0.000000
     -0.000863       0.000868       0.000000
     -0.000729       0.001025       0.000000
     -0.000741       0.001250       0.000000
     -0.000989       0.001266       0.000000
     -0.000922       0.001042       0.000000
     -0.000558       0.001237       0.000000
     -0.000556       0.001370       0.000000
     -0.000637       0.001386       0.000000
     -0.000641       0.001246       0.000000
     -0.000556       0.001370       0.000000
     -0.000557       0.001519       0.000000
     -0.000633       0.001551       0.000000
     -0.000637       0.001386       0.000000
     -0.000641       0.001246       0.000000
     -0.000637       0.001386       0.000000
     -0.000740       0.001394       0.000000
     -0.000741       0.001250       0.000000
     -0.000637       0.001386       0.000000
     -0.000633       0.001551       0.000000
     -0.000733       0.001572       0.000000
     -0.000740       0.001394       0.000000
     -0.000557       0.001519       0.000000
     -0.000568       0.001681       0.000000
     -0.000637       0.001740       0.000000
     -0.000633       0.001551       0.000000
     -0.000568       0.001681       0.000000
     -0.000592       0.001843       0.000000
     -0.000661       0.001937       0.000000
     -0.000637       0.001740       0.000000
     -0.000633       0.001551       0.000000
     -0.000637       0.001740       0.000000
     -0.000726       0.001797       0.000000
     -0.000733       0.001572       0.000000
     -0.000637       0.001740       0.000000
     -0.000661       0.001937       0.000000
     -0.000747       0.002053       0.000000
     -0.000726       0.001797       0.000000
     -0.000741       0.001250       0.000000
     -0.000740       0.001394       0.000000
     -0.000873       0.001398       0.000000
     -0.000860       0.001255       0.000000
     -0.000740       0.001394       0.000000
     -0.000733       0.001572       0.000000
     -0.000876       0.001579       0.000000
     -0.000873       0.001398       0.000000
     -0.000860       0.001255       0.000000
     -0.000873       0.001398       0.000000
     -0.001028       0.001409       0.000000
     -0.000989       0.001266       0.000000
     -0.000873       0.001398       0.000000
     -0.000876       0.001579       0.000000
     -0.001073       0.001590       0.000000
     -0.001028       0.001409       0.000000
     -0.000733       0.001572       0.000000
     -0.000726       0.001797       0.000000
     -0.000861       0.001837       0.000000
     -0.000876       0.001579       0.000000
     -0.000726       0.001797       0.000000
     -0.000747       0.002053       0.000000
     -0.000870       0.002223       0.000000
     -0.000861       0.001837       0.000000
     -0.000876       0.001579       0.000000
     -0.000861       0.001837       0.000000
     -0.001133       0.001858       0.000000
     -0.001073       0.001590       0.000000
     -0.000861       0.001837       0.000000
     -0.000870       0.002223       0.000000
     -0.001199       0.002673       0.000000
     -0.001133       0.001858       0.000000
      0.000000       0.000000       0.000000
      0.000000       0.000000       0.000000
      0.000016       0.000290       0.000000
      0.000076       0.000233       0.000000
      0.000000       0.000000       0.000000
      0.000000       0.000000       0.000000
     -0.000061       0.000334       0.000000
      0.000016       0.000290       0.000000
      0.000076       0.000233       0.000000
      0.000016       0.000290       0.000000
     -0.000046       0.000633       0.000000
      0.000063       0.000500       0.000000
      0.000016       0.000290       0.000000
     -0.000061       0.000334       0.000000
     -0.000187       0.000731       0.000000
     -0.000046       0.000633       0.000000
      0.000000       0.000000       0.000000
      0.000000       0.000000       0.000000
     -0.000149       0.000368       0.000000
     -0.000061       0.000334       0.000000
      0.000000       0.000000       0.000000
      0.000000       0.000000       0.000000
     -0.000250       0.000405       0.000000
     -0.000149       0.000368       0.000000
     -0.000061       0.000334       0.000000
     -0.000149       0.000368       0.000000
     -0.000346       0.000801       0.000000
     -0.000187       0.000731       0.000000
     -0.000149       0.000368       0.000000
     -0.000250       0.000405       0.000000
     -0.000519       0.000875       0.000000
     -0.000346       0.000801       0.000000
      0.000000       0.000000       0.000000
      0.000000       0.000000       0.000000
     -0.000389       0.000485       0.000000
     -0.000250       0.000405       0.000000
      0.000000       0.000000       0.000000
      0.000000       0.000000       0.000000
     -0.000602       0.000732       0.000000
     -0.000389       0.000485       0.000000
     -0.000250       0.000405       0.000000
     -0.000389       0.000485       0.000000
     -0.000713       0.000999       0.000000
     -0.000519       0.000875       0.000000
     -0.000389       0.000485       0.000000
     -0.000602       0.000732       0.000000
     -0.000917       0.001219       0.000000
     -0.000713       0.000999       0.000000
      0.000063       0.000500       0.000000
     -0.000046       0.000633       0.000000
     -0.000171       0.001033       0.000000
     -0.000017       0.000802       0.000000
     -0.000046       0.000633       0.000000
     -0.000187       0.000731       0.000000
     -0.000365       0.001186       0.000000
     -0.000171       0.001033       0.000000
     -0.000017       0.000802       0.000000
     -0.000171       0.001033       0.000000
     -0.000362       0.001506       0.000000
     -0.000160       0.001146       0.000000
     -0.000171       0.001033       0.000000
     -0.000365       0.001186       0.000000
     -0.000587       0.001690       0.000000
     -0.000362       0.001506       0.000000
     -0.000187       0.000731       0.000000
     -0.000346       0.000801       0.000000
     -0.000566       0.001280       0.000000
     -0.000365       0.001186       0.000000
     -0.000346       0.000801       0.000000
     -0.000519       0.000875       0.000000
     -0.000767       0.001362       0.000000
     -0.000566       0.001280       0.000000
     -0.000365       0.001186       0.000000
     -0.000566       0.001280       0.000000
     -0.000790       0.001775       0.000000
     -0.000587       0.001690       0.000000
     -0.000566       0.001280       0.000000
     -0.000767       0.001362       0.000000
     -0.000981       0.001840       0.000000
     -0.000790       0.001775       0.000000
     -0.000519       0.000875       0.000000
     -0.000713       0.000999       0.000000
     -0.000967       0.001479       0.000000
     -0.000767       0.001362       0.000000
     -0.000713       0.000999       0.000000
     -0.000917       0.001219       0.000000
     -0.001156       0.001656       0.000000
     -0.000967       0.001479       0.000000
     -0.000767       0.001362       0.000000
     -0.000967       0.001479       0.000000
     -0.001168       0.001927       0.000000
     -0.000981       0.001840       0.000000
     -0.000967       0.001479       0.000000
     -0.001156       0.001656       0.000000
     -0.001343       0.002058       0.000000
     -0.001168       0.001927       0.000000
     -0.000587       0.001690       0.000000
     -0.000790       0.001775       0.000000
     -0.000978       0.002253       0.000000
     -0.000828       0.002209       0.000000
     -0.000790       0.001775       0.000000
     -0.000981       0.001840       0.000000
     -0.001138       0.002293       0.000000
     -0.000978       0.002253       0.000000
     -0.000828       0.002209       0.000000
     -0.000978       0.002253       0.000000
     -0.001064       0.002698       0.000000
     -0.000961       0.002679       0.000000
     -0.000978       0.002253       0.000000
     -0.001138       0.002293       0.000000
     -0.001206       0.002725       0.000000
     -0.001064       0.002698       0.000000
     -0.000981       0.001840       0.000000
     -0.001168       0.001927       0.000000
     -0.001307       0.002349       0.000000
     -0.001138       0.002293       0.000000
     -0.001168       0.001927       0.000000
     -0.001343       0.002058       0.000000
     -0.001471       0.002429       0.000000
     -0.001307       0.002349       0.000000
     -0.001138       0.002293       0.000000
     -0.001307       0.002349       0.000000
     -0.001367       0.002757       0.000000
     -0.001206       0.002725       0.000000
     -0.001307       0.002349       0.000000
     -0.001471       0.002429       0.000000
     -0.001529       0.002783       0.000000
     -0.001367       0.002757       0.000000
     -0.000160       0.001146       0.000000
     -0.000251       0.001347       0.000000
     -0.000367       0.001598       0.000000
     -0.000261       0.001340       0.000000
     -0.000251       0.001347       0.000000
     -0.000362       0.001506       0.000000
     -0.000491       0.001779       0.000000
     -0.000367       0.001598       0.000000
     -0.000261       0.001340       0.000000
     -0.000367       0.001598       0.000000
     -0.000522       0.001895       0.000000
     -0.000395       0.001562       0.000000
     -0.000367       0.001598       0.000000
     -0.000491       0.001779       0.000000
     -0.000650       0.002080       0.000000
     -0.000522       0.001895       0.000000
     -0.000362       0.001506       0.000000
     -0.000477       0.001617       0.000000
     -0.000607       0.001889       0.000000
     -0.000491       0.001779       0.000000
     -0.000477       0.001617       0.000000
     -0.000587       0.001690       0.000000
     -0.000710       0.001952       0.000000
     -0.000607       0.001889       0.000000
     -0.000491       0.001779       0.000000
     -0.000607       0.001889       0.000000
     -0.000748       0.002167       0.000000