# vtk DataFile Version 2.0
time_10.vtk
ASCII
DATASET UNSTRUCTURED_GRID
POINTS  1152 float
      0.000000       0.000000       0.000000
      0.083333       0.000000       0.000000
      0.083333       0.083333       0.000000
      0.000000       0.083333       0.000000
      0.083333       0.000000       0.000000
      0.166667       0.000000       0.000000
      0.166667       0.083333       0.000000
      0.083333       0.083333       0.000000
      0.000000       0.083333       0.000000
      0.083333       0.083333       0.000000
      0.083333       0.166667       0.000000
      0.000000       0.166667       0.000000
      0.083333       0.083333       0.000000
      0.166667       0.083333       0.000000
      0.166667       0.166667       0.000000
      0.083333       0.166667       0.000000
      0.166667       0.000000       0.000000
      0.250000       0.000000       0.000000
      0.250000       0.083333       0.000000
      0.166667       0.083333       0.000000
      0.250000       0.000000       0.000000
      0.333333       0.000000       0.000000
      0.333333       0.083333       0.000000
      0.250000       0.083333       0.000000
      0.166667       0.083333       0.000000
      0.250000       0.083333       0.000000
      0.250000       0.166667       0.000000
      0.166667       0.166667       0.000000
      0.250000       0.083333       0.000000
      0.333333       0.083333       0.000000
      0.333333       0.166667       0.000000
      0.250000       0.166667       0.000000
      0.333333       0.000000       0.000000
      0.416667      -0.000000       0.000000
      0.416667       0.083333       0.000000
      0.333333       0.083333       0.000000
      0.416667      -0.000000       0.000000
      0.500000       0.000000       0.000000
      0.500000       0.083333       0.000000
      0.416667       0.083333       0.000000
      0.333333       0.083333       0.000000
      0.416667       0.083333       0.000000
      0.416667       0.166667       0.000000
      0.333333       0.166667       0.000000
      0.416667       0.083333       0.000000
      0.500000       0.083333       0.000000
      0.500000       0.166667       0.000000
      0.416667       0.166667       0.000000
      0.000000       0.166667       0.000000
      0.083333       0.166667       0.000000
      0.083333       0.250000       0.000000
      0.000000       0.250000       0.000000
      0.083333       0.166667       0.000000
      0.166667       0.166667       0.000000
      0.166667       0.250000       0.000000
      0.083333       0.250000       0.000000
      0.000000       0.250000       0.000000
      0.083333       0.250000       0.000000
      0.083333       0.333333       0.000000
      0.000000       0.333333       0.000000
      0.083333       0.250000       0.000000
      0.166667       0.250000       0.000000
      0.166667       0.333333       0.000000
      0.083333       0.333333       0.000000
      0.166667       0.166667       0.000000
      0.250000       0.166667       0.000000
      0.250000       0.250000       0.000000
      0.166667       0.250000       0.000000
      0.250000       0.166667       0.000000
      0.333333       0.166667       0.000000
      0.333333       0.250000       0.000000
      0.250000       0.250000       0.000000
      0.166667       0.250000       0.000000
      0.250000       0.250000       0.000000
      0.250000       0.333333       0.000000
      0.166667       0.333333       0.000000
      0.250000       0.250000       0.000000
      0.333333       0.250000       0.000000
      0.333333       0.333333       0.000000
      0.250000       0.333333       0.000000
      0.333333       0.166667       0.000000
      0.416667       0.166667       0.000000
      0.416667       0.250000       0.000000
      0.333333       0.250000       0.000000
      0.416667       0.166667       0.000000
      0.500000       0.166667       0.000000
      0.500000       0.250000       0.000000
      0.416667       0.250000       0.000000
      0.333333       0.250000       0.000000
      0.416667       0.250000       0.000000
      0.416667       0.333333       0.000000
      0.333333       0.333333       0.000000
      0.416667       0.250000       0.000000
      0.500000       0.250000       0.000000
      0.500000       0.333333       0.000000
      0.416667       0.333333       0.000000
      0.000000       0.333333       0.000000
      0.083333       0.333333       0.000000
      0.083333       0.416667       0.000000
     -0.000000       0.416667       0.000000
      0.083333       0.333333       0.000000
      0.166667       0.333333       0.000000
      0.166667       0.416667       0.000000
      0.083333       0.416667       0.000000
     -0.000000       0.416667       0.000000
      0.083333       0.416667       0.000000
      0.083333       0.500000       0.000000
      0.000000       0.500000       0.000000
      0.083333       0.416667       0.000000
      0.166667       0.416667       0.000000
      0.166667       0.500000       0.000000
      0.083333       0.500000       0.000000
      0.166667       0.333333       0.000000
      0.250000       0.333333       0.000000
      0.250000       0.416667       0.000000
      0.166667       0.416667       0.000000
      0.250000       0.333333       0.000000
      0.333333       0.333333       0.000000
      0.333333       0.416667       0.000000
      0.250000       0.416667       0.000000
      0.166667       0.416667       0.000000
      0.250000       0.416667       0.000000
      0.250000       0.500000       0.000000
      0.166667       0.500000       0.000000
      0.250000       0.416667       0.000000
      0.333333       0.416667       0.000000
      0.333333       0.500000       0.000000
      0.250000       0.500000       0.000000
      0.333333       0.333333       0.000000
      0.375000       0.333333       0.000000
      0.375000       0.375000       0.000000
      0.333333       0.375000       0.000000
      0.375000       0.333333       0.000000
      0.416667       0.333333       0.000000
      0.416667       0.375000       0.000000
      0.375000       0.375000       0.000000
      0.333333       0.375000       0.000000
      0.375000       0.375000       0.000000
      0.375000       0.416667       0.000000
      0.333333       0.416667       0.000000
      0.375000       0.375000       0.000000
      0.416667       0.375000       0.000000
      0.416667       0.416667       0.000000
      0.375000       0.416667       0.000000
      0.416667       0.333333       0.000000
      0.458333       0.333333       0.000000
      0.458333       0.375000       0.000000
      0.416667       0.375000       0.000000
      0.458333       0.333333       0.000000
      0.500000       0.333333       0.000000
      0.500000       0.375000       0.000000
      0.458333       0.375000       0.000000
      0.416667       0.375000       0.000000
      0.458333       0.375000       0.000000
      0.458333       0.416667       0.000000
      0.416667       0.416667       0.000000
      0.458333       0.375000       0.000000
      0.500000       0.375000       0.000000
      0.500000       0.416667       0.000000
      0.458333       0.416667       0.000000
      0.333333       0.416667       0.000000
      0.375000       0.416667       0.000000
      0.375000       0.458333       0.000000
      0.333333       0.458333       0.000000
      0.375000       0.416667       0.000000
      0.416667       0.416667       0.000000
      0.416667       0.458333       0.000000
      0.375000       0.458333       0.000000
      0.333333       0.458333       0.000000
      0.375000       0.458333       0.000000
      0.375000       0.500000       0.000000
      0.333333       0.500000       0.000000
      0.375000       0.458333       0.000000
      0.416667       0.458333       0.000000
      0.416667       0.500000       0.000000
      0.375000       0.500000       0.000000
      0.416667       0.416667       0.000000
      0.437500       0.416667       0.000000
      0.437500       0.437500       0.000000
      0.416667       0.437500       0.000000
      0.437500       0.416667       0.000000
      0.458333       0.416667       0.000000
      0.458333       0.437500       0.000000
      0.437500       0.437500       0.000000
      0.416667       0.437500       0.000000
      0.437500       0.437500       0.000000
      0.437500       0.458333       0.000000
      0.416667       0.458333       0.000000
      0.437500       0.437500       0.000000
      0.458333       0.437500       0.000000
      0.458333       0.458333       0.000000
      0.437500       0.458333       0.000000
      0.458333       0.416667       0.000000
      0.479167       0.416667       0.000000
      0.479167       0.437500       0.000000
      0.458333       0.437500       0.000000
      0.479167       0.416667       0.000000
      0.500000       0.416667       0.000000
      0.500000       0.437500       0.000000
      0.479167       0.437500       0.000000
      0.458333       0.437500       0.000000
      0.479167       0.437500       0.000000
      0.479167       0.458333       0.000000
      0.458333       0.458333       0.000000
      0.479167       0.437500       0.000000
      0.500000       0.437500       0.000000
      0.500000       0.458333       0.000000
      0.479167       0.458333       0.000000
      0.416667       0.458333       0.000000
      0.437500       0.458333       0.000000
      0.437500       0.479167       0.000000
      0.416667       0.479167       0.000000
      0.437500       0.458333       0.000000
      0.458333       0.458333       0.000000
      0.458333       0.479167       0.000000
      0.437500       0.479167       0.000000
      0.416667       0.479167       0.000000
      0.437500       0.479167       0.000000
      0.437500       0.500000       0.000000
      0.416667       0.500000       0.000000
[...]
POINT_DATA  1152
VECTORS U float 
      0.000000       0.000000       0.000000
      0.000000       0.000000       0.000000
      0.000073      -0.000017       0.000000
      0.000053      -0.000018       0.000000
      0.000000       0.000000       0.000000
      0.000000       0.000000       0.000000
      0.000093       0.000014       0.000000
      0.000073      -0.000017       0.000000
      0.000053      -0.000018       0.000000
      0.000073      -0.000017       0.000000
      0.000079      -0.000044       0.000000
      0.000054      -0.000089       0.000000
      0.000073      -0.000017       0.000000
      0.000093       0.000014       0.000000
      0.000102       0.000017       0.000000
      0.000079      -0.000044       0.000000
      0.000000       0.000000       0.000000
      0.000000       0.000000       0.000000
      0.000111       0.000055       0.000000
      0.000093       0.000014       0.000000
      0.000000       0.000000       0.000000
      0.000000       0.000000       0.000000
      0.000122       0.000108       0.000000
      0.000111       0.000055       0.000000
      0.000093       0.000014       0.000000
      0.000111       0.000055       0.000000
      0.000126       0.000099       0.000000
      0.000102       0.000017       0.000000
      0.000111       0.000055       0.000000
      0.000122       0.000108       0.000000
      0.000141       0.000212       0.000000
      0.000126       0.000099       0.000000
      0.000000       0.000000       0.000000
      0.000000       0.000000       0.000000
      0.000114       0.000173       0.000000
      0.000122       0.000108       0.000000
      0.000000       0.000000       0.000000
      0.000000       0.000000       0.000000
      0.000080       0.000242       0.000000
      0.000114       0.000173       0.000000
      0.000122       0.000108       0.000000
      0.000114       0.000173       0.000000
      0.000127       0.000359       0.000000
      0.000141       0.000212       0.000000
      0.000114       0.000173       0.000000
      0.000080       0.000242       0.000000
      0.000065       0.000519       0.000000
      0.000127       0.000359       0.000000
      0.000054      -0.000089       0.000000
      0.000079      -0.000044       0.000000
      0.000004      -0.000075       0.000000
     -0.000020      -0.000167       0.000000
      0.000079      -0.000044       0.000000
      0.000102       0.000017       0.000000
      0.000025       0.000014       0.000000
      0.000004      -0.000075       0.000000
     -0.000020      -0.000167       0.000000
      0.000004      -0.000075       0.000000
     -0.000139      -0.000102       0.000000
     -0.000153      -0.000228       0.000000
      0.000004      -0.000075       0.000000
      0.000025       0.000014       0.000000
     -0.000127       0.000006       0.000000
     -0.000139      -0.000102       0.000000
      0.000102       0.000017       0.000000
      0.000126       0.000099       0.000000
      0.000051       0.000130       0.000000
      0.000025       0.000014       0.000000
      0.000126       0.000099       0.000000
      0.000141       0.000212       0.000000
      0.000071       0.000304       0.000000
      0.000051       0.000130       0.000000
      0.000025       0.000014       0.000000
      0.000051       0.000130       0.000000
     -0.000111       0.000144       0.000000
     -0.000127       0.000006       0.000000
      0.000051       0.000130       0.000000
      0.000071       0.000304       0.000000
     -0.000090       0.000366       0.000000
     -0.000111       0.000144       0.000000
      0.000141       0.000212       0.000000
      0.000127       0.000359       0.000000
      0.000060       0.000548       0.000000
      0.000071       0.000304       0.000000
      0.000127       0.000359       0.000000
      0.000065       0.000519       0.000000
     -0.000020       0.000831       0.000000
      0.000060       0.000548       0.000000
      0.000071       0.000304       0.000000
      0.000060       0.000548       0.000000
     -0.000086       0.000722       0.000000
     -0.000090       0.000366       0.000000
      0.000060       0.000548       0.000000
     -0.000020       0.000831       0.000000
     -0.000172       0.001185       0.000000
     -0.000086       0.000722       0.000000
     -0.000153      -0.000228       0.000000
     -0.000139      -0.000102       0.000000
     -0.000314      -0.000116       0.000000
     -0.000316      -0.000255       0.000000
     -0.000139      -0.000102       0.000000
     -0.000127       0.000006       0.000000
     -0.000323       0.000003       0.000000
     -0.000314      -0.000116       0.000000
     -0.000316      -0.000255       0.000000
     -0.000314      -0.000116       0.000000
     -0.000472      -0.000115       0.000000
     -0.000470      -0.000257       0.000000
     -0.000314      -0.000116       0.000000
     -0.000323       0.000003       0.000000
     -0.000501       0.000016       0.000000
     -0.000472      -0.000115       0.000000
     -0.000127       0.000006       0.000000
     -0.000111       0.000144       0.000000
     -0.000342       0.000151       0.000000
     -0.000323       0.000003       0.000000
     -0.000111       0.000144       0.000000
     -0.000090       0.000366       0.000000
     -0.000361       0.000393       0.000000
     -0.000342       0.000151       0.000000
     -0.000323       0.000003       0.000000
     -0.000342       0.000151       0.000000
     -0.000578       0.000178       0.000000
     -0.000501       0.000016       0.000000
     -0.000342       0.000151       0.000000
     -0.000361       0.000393       0.000000
     -0.000711       0.000430       0.000000
     -0.000578       0.000178       0.000000
     -0.000090       0.000366       0.000000
     -0.000083       0.000526       0.000000
     -0.000204       0.000561       0.000000
     -0.000211       0.000383       0.000000
     -0.000083       0.000526       0.000000
     -0.000086       0.000722       0.000000
     -0.000201       0.000791       0.000000
     -0.000204       0.000561       0.000000
     -0.000211       0.000383       0.000000
     -0.000204       0.000561       0.000000
     -0.000365       0.000581       0.000000
     -0.000361       0.000393       0.000000
     -0.000204       0.000561       0.000000
     -0.000201       0.000791       0.000000
     -0.000362       0.000838       0.000000
     -0.000365       0.000581       0.000000
     -0.000086       0.000722       0.000000
     -0.000112       0.000949       0.000000
     -0.000219       0.001075       0.000000
     -0.000201       0.000791       0.000000
     -0.000112       0.000949       0.000000
     -0.000172       0.001185       0.000000
     -0.000279       0.001384       0.000000
     -0.000219       0.001075       0.000000
     -0.000201       0.000791       0.000000
     -0.000219       0.001075       0.000000
     -0.000366       0.001188       0.000000
     -0.000362       0.000838       0.000000
     -0.000219       0.001075       0.000000
     -0.000279       0.001384       0.000000
     -0.000421       0.001608       0.000000
     -0.000366       0.001188       0.000000
     -0.000361       0.000393       0.000000
     -0.000365       0.000581       0.000000
     -0.000571       0.000594       0.000000
     -0.000536       0.000405       0.000000
     -0.000365       0.000581       0.000000
     -0.000362       0.000838       0.000000
     -0.000596       0.000860       0.000000
     -0.000571       0.000594       0.000000
     -0.000536       0.000405       0.000000
     -0.000571       0.000594       0.000000
     -0.000801       0.000622       0.000000
     -0.000711       0.000430       0.000000
     -0.000571       0.000594       0.000000
     -0.000596       0.000860       0.000000
     -0.000908       0.000888       0.000000
     -0.000801       0.000622       0.000000
     -0.000362       0.000838       0.000000
     -0.000361       0.001001       0.000000
     -0.000466       0.001025       0.000000
     -0.000468       0.000852       0.000000
     -0.000361       0.001001       0.000000
     -0.000366       0.001188       0.000000
     -0.000466       0.001233       0.000000
     -0.000466       0.001025       0.000000
     -0.000468       0.000852       0.000000
     -0.000466       0.001025       0.000000
     -0.000601       0.001039       0.000000
     -0.000596       0.000860       0.000000
     -0.000466       0.001025       0.000000
     -0.000466       0.001233       0.000000
     -0.000599       0.001263       0.000000
     -0.000601       0.001039       0.000000
     -0.000366       0.001188       0.000000
     -0.000384       0.001395       0.000000
     -0.000477       0.001476       0.000000
     -0.000466       0.001233       0.000000
     -0.000384       0.001395       0.000000
     -0.000421       0.001608       0.000000
     -0.000514       0.001736       0.000000
     -0.000477       0.001476       0.000000
     -0.000466       0.001233       0.000000
     -0.000477       0.001476       0.000000
     -0.000598       0.001550       0.000000
     -0.000599       0.001263       0.000000
     -0.000477       0.001476       0.000000
     -0.000514       0.001736       0.000000
     -0.000631       0.001888       0.000000
     -0.000598       0.001550       0.000000
     -0.000596       0.000860       0.000000
     -0.000601       0.001039       0.000000
     -0.000772       0.001047       0.000000
     -0.000747       0.000870       0.000000
     -0.000601       0.001039       0.000000
     -0.000599       0.001263       0.000000
     -0.000787       0.001276       0.000000
     -0.000772       0.001047       0.000000
     -0.000747       0.000870       0.000000
     -0.000772       0.001047       0.000000
     -0.000970       0.001066       0.000000
     -0.000908       0.000888       0.000000
     -0.000772       0.001047       0.000000
     -0.000787       0.001276       0.000000
     -0.001039       0.001294       0.000000
     -0.000970       0.001066       0.000000
     -0.000599       0.001263       0.000000
     -0.000597       0.001398       0.000000
     -0.000681       0.001414       0.000000
     -0.000684       0.001271       0.000000
     -0.000597       0.001398       0.000000
     -0.000598       0.001550       0.000000
     -0.000678       0.001581       0.000000
     -0.000681       0.001414       0.000000
     -0.000684       0.001271       0.000000
     -0.000681       0.001414       0.000000
     -0.000787       0.001422       0.000000
     -0.000787       0.001276       0.000000
     -0.000681       0.001414       0.000000
     -0.000678       0.001581       0.000000
     -0.000781       0.001601       0.000000
     -0.000787       0.001422       0.000000
     -0.000598       0.001550       0.000000
     -0.000608       0.001717       0.000000
     -0.000682       0.001774       0.000000
     -0.000678       0.001581       0.000000
     -0.000608       0.001717       0.000000
     -0.000631       0.001888       0.000000
     -0.000705       0.001981       0.000000
     -0.000682       0.001774       0.000000
     -0.000678       0.001581       0.000000
     -0.000682       0.001774       0.000000
     -0.000774       0.001830       0.000000
     -0.000781       0.001601       0.000000
     -0.000682       0.001774       0.000000
     -0.000705       0.001981       0.000000
     -0.000795       0.002099       0.000000
     -0.000774       0.001830       0.000000
     -0.000787       0.001276       0.000000
     -0.000787       0.001422       0.000000
     -0.000922       0.001426       0.000000
     -0.000908       0.001282       0.000000
     -0.000787       0.001422       0.000000
     -0.000781       0.001601       0.000000
     -0.000927       0.001609       0.000000
     -0.000922       0.001426       0.000000
     -0.000908       0.001282       0.000000
     -0.000922       0.001426       0.000000
     -0.001080       0.001439       0.000000
     -0.001039       0.001294       0.000000
     -0.000922       0.001426       0.000000
     -0.000927       0.001609       0.000000
     -0.001128       0.001623       0.000000
     -0.001080       0.001439       0.000000
     -0.000781       0.001601       0.000000
     -0.000774       0.001830       0.000000
     -0.000913       0.001871       0.000000
     -0.000927       0.001609       0.000000
     -0.000774       0.001830       0.000000
     -0.000795       0.002099       0.000000
     -0.000923       0.002281       0.000000
     -0.000913       0.001871       0.000000
     -0.000927       0.001609       0.000000
     -0.000913       0.001871       0.000000
     -0.001196       0.001899       0.000000
     -0.001128       0.001623       0.000000
     -0.000913       0.001871       0.000000
     -0.000923       0.002281       0.000000
     -0.001296       0.002844       0.000000
     -0.001196       0.001899       0.000000
      0.000000       0.000000       0.000000
      0.000000       0.000000       0.000000
      0.000018       0.000303       0.000000
      0.000080       0.000242       0.000000
      0.000000       0.000000       0.000000
      0.000000       0.000000       0.000000
     -0.000063       0.000350       0.000000
      0.000018       0.000303       0.000000
      0.000080       0.000242       0.000000
      0.000018       0.000303       0.000000
     -0.000047       0.000661       0.000000
      0.000065       0.000519       0.000000
      0.000018       0.000303       0.000000
     -0.000063       0.000350       0.000000
     -0.000196       0.000768       0.000000
     -0.000047       0.000661       0.000000
      0.000000       0.000000       0.000000
      0.000000       0.000000       0.000000
     -0.000156       0.000388       0.000000
     -0.000063       0.000350       0.000000
      0.000000       0.000000       0.000000
      0.000000       0.000000       0.000000
     -0.000264       0.000430       0.000000
     -0.000156       0.000388       0.000000
     -0.000063       0.000350       0.000000
     -0.000156       0.000388       0.000000
     -0.000365       0.000847       0.000000
     -0.000196       0.000768       0.000000
     -0.000156       0.000388       0.000000
     -0.000264       0.000430       0.000000
     -0.000550       0.000929       0.000000
     -0.000365       0.000847       0.000000
      0.000000       0.000000       0.000000
      0.000000       0.000000       0.000000
     -0.000413       0.000519       0.000000
     -0.000264       0.000430       0.000000
      0.000000       0.000000       0.000000
      0.000000       0.000000       0.000000
     -0.000640       0.000784       0.000000
     -0.000413       0.000519       0.000000
     -0.000264       0.000430       0.000000
     -0.000413       0.000519       0.000000
     -0.000758       0.001065       0.000000
     -0.000550       0.000929       0.000000
     -0.000413       0.000519       0.000000
     -0.000640       0.000784       0.000000
     -0.000975       0.001302       0.000000
     -0.000758       0.001065       0.000000
      0.000065       0.000519       0.000000
     -0.000047       0.000661       0.000000
     -0.000180       0.001080       0.000000
     -0.000020       0.000831       0.000000
     -0.000047       0.000661       0.000000
     -0.000196       0.000768       0.000000
     -0.000385       0.001250       0.000000
     -0.000180       0.001080       0.000000
     -0.000020       0.000831       0.000000
     -0.000180       0.001080       0.000000
     -0.000382       0.001577       0.000000
     -0.000172       0.001185       0.000000
     -0.000180       0.001080       0.000000
     -0.000385       0.001250       0.000000
     -0.000624       0.001787       0.000000
     -0.000382       0.001577       0.000000
     -0.000196       0.000768       0.000000
     -0.000365       0.000847       0.000000
     -0.000601       0.001356       0.000000
     -0.000385       0.001250       0.000000
     -0.000365       0.000847       0.000000
     -0.000550       0.000929       0.000000
     -0.000817       0.001449       0.000000
     -0.000601       0.001356       0.000000
     -0.000385       0.001250       0.000000
     -0.000601       0.001356       0.000000
     -0.000843       0.001885       0.000000
     -0.000624       0.001787       0.000000
     -0.000601       0.001356       0.000000
     -0.000817       0.001449       0.000000
     -0.001048       0.001958       0.000000
     -0.000843       0.001885       0.000000
     -0.000550       0.000929       0.000000
     -0.000758       0.001065       0.000000
     -0.001030       0.001576       0.000000
     -0.000817       0.001449       0.000000
     -0.000758       0.001065       0.000000
     -0.000975       0.001302       0.000000
     -0.001231       0.001767       0.000000
     -0.001030       0.001576       0.000000
     -0.000817       0.001449       0.000000
     -0.001030       0.001576       0.000000
     -0.001246       0.002052       0.000000
     -0.001048       0.001958       0.000000
     -0.001030       0.001576       0.000000
     -0.001231       0.001767       0.000000
     -0.001432       0.002193       0.000000
     -0.001246       0.002052       0.000000
     -0.000624       0.001787       0.000000
     -0.000843       0.001885       0.000000
     -0.001047       0.002396       0.000000
     -0.000887       0.002344       0.000000
     -0.000843       0.001885       0.000000
     -0.001048       0.001958       0.000000
     -0.001217       0.002440       0.000000
     -0.001047       0.002396       0.000000
     -0.000887       0.002344       0.000000
     -0.001047       0.002396       0.000000
     -0.001142       0.002869       0.000000
     -0.001034       0.002850       0.000000
     -0.001047       0.002396       0.000000
     -0.001217       0.002440       0.000000
     -0.001291       0.002898       0.000000
     -0.001142       0.002869       0.000000
     -0.001048       0.001958       0.000000
     -0.001246       0.002052       0.000000
     -0.001397       0.002500       0.000000
     -0.001217       0.002440       0.000000
     -0.001246       0.002052       0.000000
     -0.001432       0.002193       0.000000
     -0.001570       0.002585       0.000000
     -0.001397       0.002500       0.000000
     -0.001217       0.002440       0.000000
     -0.001397       0.002500       0.000000
     -0.001461       0.002931       0.000000
     -0.001291       0.002898       0.000000
     -0.001397       0.002500       0.000000
     -0.001570       0.002585       0.000000
     -0.001632       0.002958       0.000000
     -0.001461       0.002931       0.000000
     -0.000172       0.001185       0.000000
     -0.000265       0.001402       0.000000
     -0.000388       0.001663       0.000000
     -0.000279       0.001384       0.000000
     -0.000265       0.001402       0.000000
     -0.000382       0.001577       0.000000
     -0.000519       0.001867       0.000000
     -0.000388       0.001663       0.000000
     -0.000279       0.001384       0.000000
     -0.000388       0.001663       0.000000
     -0.000552       0.001973       0.000000
     -0.000421       0.001608       0.000000
     -0.000388       0.001663       0.000000
     -0.000519       0.001867       0.000000
     -0.000691       0.002189       0.000000
     -0.000552       0.001973       0.000000
     -0.000382       0.001577       0.000000
     -0.000505       0.001703       0.000000
     -0.000645       0.001994       0.000000
     -0.000519       0.001867       0.000000
     -0.000505       0.001703       0.000000
     -0.000624       0.001787       0.000000
     -0.000757       0.002068       0.000000
     -0.000645       0.001994       0.000000
     -0.000519       0.001867       0.000000
     -0.000645       0.001994       0.000000
     -0.000799       0.002293       0.000000