# vtk DataFile Version 2.0
time_10.vtk
ASCII
DATASET UNSTRUCTURED_GRID
POINTS  1152 float
      0.000000       0.000000       0.000000
      0.083333       0.000000       0.000000
      0.083333       0.083333       0.000000
      0.000000       0.083333       0.000000
      0.083333       0.000000       0.000000
      0.166667       0.000000       0.000000
      0.166667       0.083333       0.000000
      0.083333       0.083333       0.000000
      0.000000       0.083333       0.000000
      0.083333       0.083333       0.000000
      0.083333       0.166667       0.000000
      0.000000       0.166667       0.000000
      0.083333       0.083333       0.000000
      0.166667       0.083333       0.000000
      0.166667       0.166667       0.000000
      0.083333       0.166667       0.000000
      0.166667       0.000000       0.000000
      0.250000       0.000000       0.000000
      0.250000       0.083333       0.000000
      0.166667       0.083333       0.000000
      0.250000       0.000000       0.000000
      0.333333       0.000000       0.000000
      0.333333       0.083333       0.000000
      0.250000       0.083333       0.000000
      0.166667       0.083333       0.000000
      0.250000       0.083333       0.000000
      0.250000       0.166667       0.000000
      0.166667       0.166667       0.000000
      0.250000       0.083333       0.000000
      0.333333       0.083333       0.000000
      0.333333       0.166667       0.000000
      0.250000       0.166667       0.000000
      0.333333       0.000000       0.000000
      0.416667      -0.000000       0.000000
      0.416667       0.083333       0.000000
      0.333333       0.083333       0.000000
      0.416667      -0.000000       0.000000
      0.500000       0.000000       0.000000
      0.500000       0.083333       0.000000
      0.416667       0.083333       0.000000
      0.333333       0.083333       0.000000
      0.416667       0.083333       0.000000
      0.416667       0.166667       0.000000
      0.333333       0.166667       0.000000
      0.416667       0.083333       0.000000
      0.500000       0.083333       0.000000
      0.500000       0.166667       0.000000
      0.416667       0.166667       0.000000
      0.000000       0.166667       0.000000
      0.083333       0.166667       0.000000
      0.083333       0.250000       0.000000
      0.000000       0.250000       0.000000
      0.083333       0.166667       0.000000
      0.166667       0.166667       0.000000
      0.166667       0.250000       0.000000
      0.083333       0.250000       0.000000
      0.000000       0.250000       0.000000
      0.083333       0.250000       0.000000
      0.083333       0.333333       0.000000
      0.000000       0.333333       0.000000
      0.083333       0.250000       0.000000
      0.166667       0.250000       0.000000
      0.166667       0.333333       0.000000
      0.083333       0.333333       0.000000
      0.166667       0.166667       0.000000
      0.250000       0.166667       0.000000
      0.250000       0.250000       0.000000
      0.166667       0.250000       0.000000
      0.250000       0.166667       0.000000
      0.333333       0.166667       0.000000
      0.333333       0.250000       0.000000
      0.250000       0.250000       0.000000
      0.166667       0.250000       0.000000
      0.250000       0.250000       0.000000
      0.250000       0.333333       0.000000
      0.166667       0.333333       0.000000
      0.250000       0.250000       0.000000
      0.333333       0.250000       0.000000
      0.333333       0.333333       0.000000
      0.250000       0.333333       0.000000
      0.333333       0.166667       0.000000
      0.416667       0.166667       0.000000
      0.416667       0.250000       0.000000
      0.333333       0.250000       0.000000
      0.416667       0.166667       0.000000
      0.500000       0.166667       0.000000
      0.500000       0.250000       0.000000
      0.416667       0.250000       0.000000
      0.333333       0.250000       0.000000
      0.416667       0.250000       0.000000
      0.416667       0.333333       0.000000
      0.333333       0.333333       0.000000
      0.416667       0.250000       0.000000
      0.500000       0.250000       0.000000
      0.500000       0.333333       0.000000
      0.416667       0.333333       0.000000
      0.000000       0.333333       0.000000
      0.083333       0.333333       0.000000
      0.083333       0.416667       0.000000
     -0.000000       0.416667       0.000000
      0.083333       0.333333       0.000000
      0.166667       0.333333       0.000000
      0.166667       0.416667       0.000000
      0.083333       0.416667       0.000000
     -0.000000       0.416667       0.000000
      0.083333       0.416667       0.000000
      0.083333       0.500000       0.000000
      0.000000       0.500000       0.000000
      0.083333       0.416667       0.000000
      0.166667       0.416667       0.000000
      0.166667       0.500000       0.000000
      0.083333       0.500000       0.000000
      0.166667       0.333333       0.000000
      0.250000       0.333333       0.000000
      0.250000       0.416667       0.000000
      0.166667       0.416667       0.000000
      0.250000       0.333333       0.000000
      0.333333       0.333333       0.000000
      0.333333       0.416667       0.000000
      0.250000       0.416667       0.000000
      0.166667       0.416667       0.000000
      0.250000       0.416667       0.000000
      0.250000       0.500000       0.000000
      0.166667       0.500000       0.000000
      0.250000       0.416667       0.000000
      0.333333       0.416667       0.000000
      0.333333       0.500000       0.000000
      0.250000       0.500000       0.000000
      0.333333       0.333333       0.000000
      0.375000       0.333333       0.000000
      0.375000       0.375000       0.000000
      0.333333       0.375000       0.000000
      0.375000       0.333333       0.000000
      0.416667       0.333333       0.000000
      0.416667       0.375000       0.000000
      0.375000       0.375000       0.000000
      0.333333       0.375000       0.000000
      0.375000       0.375000       0.000000
      0.375000       0.416667       0.000000
      0.333333       0.416667       0.000000
      0.375000       0.375000       0.000000
      0.416667       0.375000       0.000000
      0.416667       0.416667       0.000000
      0.375000       0.416667       0.000000
      0.416667       0.333333       0.000000
      0.458333       0.333333       0.000000
      0.458333       0.375000       0.000000
      0.416667       0.375000       0.000000
      0.458333       0.333333       0.000000
      0.500000       0.333333       0.000000
      0.500000       0.375000       0.000000
      0.458333       0.375000       0.000000
      0.416667       0.375000       0.000000
      0.458333       0.375000       0.000000
      0.458333       0.416667       0.000000
      0.416667       0.416667       0.000000
      0.458333       0.375000       0.000000
      0.500000       0.375000       0.000000
      0.500000       0.416667       0.000000
      0.458333       0.416667       0.000000
      0.333333       0.416667       0.000000
      0.375000       0.416667       0.000000
      0.375000       0.458333       0.000000
      0.333333       0.458333       0.000000
      0.375000       0.416667       0.000000
      0.416667       0.416667       0.000000
      0.416667       0.458333       0.000000
      0.375000       0.458333       0.000000
      0.333333       0.458333       0.000000
      0.375000       0.458333       0.000000
      0.375000       0.500000       0.000000
      0.333333       0.500000       0.000000
      0.375000       0.458333       0.000000
      0.416667       0.458333       0.000000
      0.416667       0.500000       0.000000
      0.375000       0.500000       0.000000
      0.416667       0.416667       0.000000
      0.437500       0.416667       0.000000
      0.437500       0.437500       0.000000
      0.416667       0.437500       0.000000
      0.437500       0.416667       0.000000
      0.458333       0.416667       0.000000
      0.458333       0.437500       0.000000
      0.437500       0.437500       0.000000
      0.416667       0.437500       0.000000
      0.437500       0.437500       0.000000
      0.437500       0.458333       0.000000
      0.416667       0.458333       0.000000
      0.437500       0.437500       0.000000
      0.458333       0.437500       0.000000
      0.458333       0.458333       0.000000
      0.437500       0.458333       0.000000
      0.458333       0.416667       0.000000
      0.479167       0.416667       0.000000
      0.479167       0.437500       0.000000
      0.458333       0.437500       0.000000
      0.479167       0.416667       0.000000
      0.500000       0.416667       0.000000
      0.500000       0.437500       0.000000
      0.479167       0.437500       0.000000
      0.458333       0.437500       0.000000
      0.479167       0.437500       0.000000
      0.479167       0.458333       0.000000
      0.458333       0.458333       0.000000
      0.479167       0.437500       0.000000
      0.500000       0.437500       0.000000
      0.500000       0.458333       0.000000
      0.479167       0.458333       0.000000
      0.416667       0.458333       0.000000
      0.437500       0.458333       0.000000
      0.437500       0.479167       0.000000
      0.416667       0.479167       0.000000
      0.437500       0.458333       0.000000
      0.458333       0.458333       0.000000
      0.458333       0.479167       0.000000
      0.437500       0.479167       0.000000
      0.416667       0.479167       0.000000
      0.437500       0.479167       0.000000
      0.437500       0.500000       0.000000
      0.416667       0.500000       0.000000
[...]
POINT_DATA  1152
VECTORS U float 
      0.000000       0.000000       0.000000
      0.000000       0.000000       0.000000
      0.000073      -0.000015       0.000000
      0.000054      -0.000015       0.000000
      0.000000       0.000000       0.000000
      0.000000       0.000000       0.000000
      0.000092       0.000015       0.000000
      0.000073      -0.000015       0.000000
      0.000054      -0.000015       0.000000
      0.000073      -0.000015       0.000000
      0.000081      -0.000040       0.000000
      0.000057      -0.000083       0.000000
      0.000073      -0.000015       0.000000
      0.000092       0.000015       0.000000
      0.000103       0.000019       0.000000
      0.000081      -0.000040       0.000000
      0.000000       0.000000       0.000000
      0.000000       0.000000       0.000000
      0.000110       0.000054       0.000000
      0.000092       0.000015       0.000000
      0.000000       0.000000       0.000000
      0.000000       0.000000       0.000000
      0.000119       0.000106       0.000000
      0.000110       0.000054       0.000000
      0.000092       0.000015       0.000000
      0.000110       0.000054       0.000000
      0.000126       0.000099       0.000000
      0.000103       0.000019       0.000000
      0.000110       0.000054       0.000000
      0.000119       0.000106       0.000000
      0.000140       0.000209       0.000000
      0.000126       0.000099       0.000000
      0.000000       0.000000       0.000000
      0.000000       0.000000       0.000000
      0.000111       0.000169       0.000000
      0.000119       0.000106       0.000000
      0.000000       0.000000       0.000000
      0.000000       0.000000       0.000000
      0.000077       0.000235       0.000000
      0.000111       0.000169       0.000000
      0.000119       0.000106       0.000000
      0.000111       0.000169       0.000000
      0.000125       0.000351       0.000000
      0.000140       0.000209       0.000000
      0.000111       0.000169       0.000000
      0.000077       0.000235       0.000000
      0.000063       0.000504       0.000000
      0.000125       0.000351       0.000000
      0.000057      -0.000083       0.000000
      0.000081      -0.000040       0.000000
      0.000010      -0.000070       0.000000
     -0.000013      -0.000158       0.000000
      0.000081      -0.000040       0.000000
      0.000103       0.000019       0.000000
      0.000030       0.000016       0.000000
      0.000010      -0.000070       0.000000
     -0.000013      -0.000158       0.000000
      0.000010      -0.000070       0.000000
     -0.000127      -0.000095       0.000000
     -0.000141      -0.000217       0.000000
      0.000010      -0.000070       0.000000
      0.000030       0.000016       0.000000
     -0.000116       0.000009       0.000000
     -0.000127      -0.000095       0.000000
      0.000103       0.000019       0.000000
      0.000126       0.000099       0.000000
      0.000055       0.000130       0.000000
      0.000030       0.000016       0.000000
      0.000126       0.000099       0.000000
      0.000140       0.000209       0.000000
      0.000074       0.000299       0.000000
      0.000055       0.000130       0.000000
      0.000030       0.000016       0.000000
      0.000055       0.000130       0.000000
     -0.000100       0.000145       0.000000
     -0.000116       0.000009       0.000000
      0.000055       0.000130       0.000000
      0.000074       0.000299       0.000000
     -0.000079       0.000362       0.000000
     -0.000100       0.000145       0.000000
      0.000140       0.000209       0.000000
      0.000125       0.000351       0.000000
      0.000062       0.000537       0.000000
      0.000074       0.000299       0.000000
      0.000125       0.000351       0.000000
      0.000063       0.000504       0.000000
     -0.000018       0.000809       0.000000
      0.000062       0.000537       0.000000
      0.000074       0.000299       0.000000
      0.000062       0.000537       0.000000
     -0.000076       0.000709       0.000000
     -0.000079       0.000362       0.000000
      0.000062       0.000537       0.000000
     -0.000018       0.000809       0.000000
     -0.000162       0.001155       0.000000
     -0.000076       0.000709       0.000000
     -0.000141      -0.000217       0.000000
     -0.000127      -0.000095       0.000000
     -0.000296      -0.000109       0.000000
     -0.000298      -0.000243       0.000000
     -0.000127      -0.000095       0.000000
     -0.000116       0.000009       0.000000
     -0.000305       0.000007       0.000000
     -0.000296      -0.000109       0.000000
     -0.000298      -0.000243       0.000000
     -0.000296      -0.000109       0.000000
     -0.000450      -0.000108       0.000000
     -0.000448      -0.000245       0.000000
     -0.000296      -0.000109       0.000000
     -0.000305       0.000007       0.000000
     -0.000478       0.000020       0.000000
     -0.000450      -0.000108       0.000000
     -0.000116       0.000009       0.000000
     -0.000100       0.000145       0.000000
     -0.000323       0.000151       0.000000
     -0.000305       0.000007       0.000000
     -0.000100       0.000145       0.000000
     -0.000079       0.000362       0.000000
     -0.000341       0.000389       0.000000
     -0.000323       0.000151       0.000000
     -0.000305       0.000007       0.000000
     -0.000323       0.000151       0.000000
     -0.000552       0.000177       0.000000
     -0.000478       0.000020       0.000000
     -0.000323       0.000151       0.000000
     -0.000341       0.000389       0.000000
     -0.000682       0.000424       0.000000
     -0.000552       0.000177       0.000000
     -0.000079       0.000362       0.000000
     -0.000072       0.000518       0.000000
     -0.000188       0.000553       0.000000
     -0.000196       0.000379       0.000000
     -0.000072       0.000518       0.000000
     -0.000076       0.000709       0.000000
     -0.000185       0.000778       0.000000
     -0.000188       0.000553       0.000000
     -0.000196       0.000379       0.000000
     -0.000188       0.000553       0.000000
     -0.000343       0.000572       0.000000
     -0.000341       0.000389       0.000000
     -0.000188       0.000553       0.000000
     -0.000185       0.000778       0.000000
     -0.000339       0.000825       0.000000
     -0.000343       0.000572       0.000000
     -0.000076       0.000709       0.000000
     -0.000103       0.000929       0.000000
     -0.000204       0.001054       0.000000
     -0.000185       0.000778       0.000000
     -0.000103       0.000929       0.000000
     -0.000162       0.001155       0.000000
     -0.000265       0.001351       0.000000
     -0.000204       0.001054       0.000000
     -0.000185       0.000778       0.000000
     -0.000204       0.001054       0.000000
     -0.000343       0.001168       0.000000
     -0.000339       0.000825       0.000000
     -0.000204       0.001054       0.000000
     -0.000265       0.001351       0.000000
     -0.000400       0.001574       0.000000
     -0.000343       0.001168       0.000000
     -0.000341       0.000389       0.000000
     -0.000343       0.000572       0.000000
     -0.000543       0.000585       0.000000
     -0.000510       0.000400       0.000000
     -0.000343       0.000572       0.000000
     -0.000339       0.000825       0.000000
     -0.000567       0.000847       0.000000
     -0.000543       0.000585       0.000000
     -0.000510       0.000400       0.000000
     -0.000543       0.000585       0.000000
     -0.000769       0.000612       0.000000
     -0.000682       0.000424       0.000000
     -0.000543       0.000585       0.000000
     -0.000567       0.000847       0.000000
     -0.000873       0.000873       0.000000
     -0.000769       0.000612       0.000000
     -0.000339       0.000825       0.000000
     -0.000338       0.000985       0.000000
     -0.000439       0.001009       0.000000
     -0.000442       0.000839       0.000000
     -0.000338       0.000985       0.000000
     -0.000343       0.001168       0.000000
     -0.000438       0.001214       0.000000
     -0.000439       0.001009       0.000000
     -0.000442       0.000839       0.000000
     -0.000439       0.001009       0.000000
     -0.000570       0.001023       0.000000
     -0.000567       0.000847       0.000000
     -0.000439       0.001009       0.000000
     -0.000438       0.001214       0.000000
     -0.000566       0.001245       0.000000
     -0.000570       0.001023       0.000000
     -0.000343       0.001168       0.000000
     -0.000361       0.001370       0.000000
     -0.000450       0.001452       0.000000
     -0.000438       0.001214       0.000000
     -0.000361       0.001370       0.000000
     -0.000400       0.001574       0.000000
     -0.000488       0.001703       0.000000
     -0.000450       0.001452       0.000000
     -0.000438       0.001214       0.000000
     -0.000450       0.001452       0.000000
     -0.000565       0.001529       0.000000
     -0.000566       0.001245       0.000000
     -0.000450       0.001452       0.000000
     -0.000488       0.001703       0.000000
     -0.000600       0.001856       0.000000
     -0.000565       0.001529       0.000000
     -0.000567       0.000847       0.000000
     -0.000570       0.001023       0.000000
     -0.000738       0.001031       0.000000
     -0.000714       0.000856       0.000000
     -0.000570       0.001023       0.000000
     -0.000566       0.001245       0.000000
     -0.000751       0.001258       0.000000
     -0.000738       0.001031       0.000000
     -0.000714       0.000856       0.000000
     -0.000738       0.001031       0.000000
     -0.000932       0.001049       0.000000
     -0.000873       0.000873       0.000000
     -0.000738       0.001031       0.000000
     -0.000751       0.001258       0.000000
     -0.001000       0.001274       0.000000
     -0.000932       0.001049       0.000000
     -0.000566       0.001245       0.000000
     -0.000564       0.001379       0.000000
     -0.000646       0.001395       0.000000
     -0.000650       0.001253       0.000000
     -0.000564       0.001379       0.000000
     -0.000565       0.001529       0.000000
     -0.000642       0.001560       0.000000
     -0.000646       0.001395       0.000000
     -0.000650       0.001253       0.000000
     -0.000646       0.001395       0.000000
     -0.000750       0.001403       0.000000
     -0.000751       0.001258       0.000000
     -0.000646       0.001395       0.000000
     -0.000642       0.001560       0.000000
     -0.000742       0.001581       0.000000
     -0.000750       0.001403       0.000000
     -0.000565       0.001529       0.000000
     -0.000575       0.001692       0.000000
     -0.000646       0.001751       0.000000
     -0.000642       0.001560       0.000000
     -0.000575       0.001692       0.000000
     -0.000600       0.001856       0.000000
     -0.000670       0.001950       0.000000
     -0.000646       0.001751       0.000000
     -0.000642       0.001560       0.000000
     -0.000646       0.001751       0.000000
     -0.000736       0.001808       0.000000
     -0.000742       0.001581       0.000000
     -0.000646       0.001751       0.000000
     -0.000670       0.001950       0.000000
     -0.000757       0.002068       0.000000
     -0.000736       0.001808       0.000000
     -0.000751       0.001258       0.000000
     -0.000750       0.001403       0.000000
     -0.000883       0.001407       0.000000
     -0.000870       0.001263       0.000000
     -0.000750       0.001403       0.000000
     -0.000742       0.001581       0.000000
     -0.000887       0.001589       0.000000
     -0.000883       0.001407       0.000000
     -0.000870       0.001263       0.000000
     -0.000883       0.001407       0.000000
     -0.001039       0.001418       0.000000
     -0.001000       0.001274       0.000000
     -0.000883       0.001407       0.000000
     -0.000887       0.001589       0.000000
     -0.001085       0.001600       0.000000
     -0.001039       0.001418       0.000000
     -0.000742       0.001581       0.000000
     -0.000736       0.001808       0.000000
     -0.000872       0.001849       0.000000
     -0.000887       0.001589       0.000000
     -0.000736       0.001808       0.000000
     -0.000757       0.002068       0.000000
     -0.000881       0.002240       0.000000
     -0.000872       0.001849       0.000000
     -0.000887       0.001589       0.000000
     -0.000872       0.001849       0.000000
     -0.001147       0.001870       0.000000
     -0.001085       0.001600       0.000000
     -0.000872       0.001849       0.000000
     -0.000881       0.002240       0.000000
     -0.001218       0.002707       0.000000
     -0.001147       0.001870       0.000000
      0.000000       0.000000       0.000000
      0.000000       0.000000       0.000000
      0.000017       0.000293       0.000000
      0.000077       0.000235       0.000000
      0.000000       0.000000       0.000000
      0.000000       0.000000       0.000000
     -0.000061       0.000337       0.000000
      0.000017       0.000293       0.000000
      0.000077       0.000235       0.000000
      0.000017       0.000293       0.000000
     -0.000046       0.000639       0.000000
      0.000063       0.000504       0.000000
      0.000017       0.000293       0.000000
     -0.000061       0.000337       0.000000
     -0.000189       0.000738       0.000000
     -0.000046       0.000639       0.000000
      0.000000       0.000000       0.000000
      0.000000       0.000000       0.000000
     -0.000151       0.000372       0.000000
     -0.000061       0.000337       0.000000
      0.000000       0.000000       0.000000
      0.000000       0.000000       0.000000
     -0.000253       0.000410       0.000000
     -0.000151       0.000372       0.000000
     -0.000061       0.000337       0.000000
     -0.000151       0.000372       0.000000
     -0.000350       0.000810       0.000000
     -0.000189       0.000738       0.000000
     -0.000151       0.000372       0.000000
     -0.000253       0.000410       0.000000
     -0.000526       0.000886       0.000000
     -0.000350       0.000810       0.000000
      0.000000       0.000000       0.000000
      0.000000       0.000000       0.000000
     -0.000394       0.000492       0.000000
     -0.000253       0.000410       0.000000
      0.000000       0.000000       0.000000
      0.000000       0.000000       0.000000
     -0.000609       0.000742       0.000000
     -0.000394       0.000492       0.000000
     -0.000253       0.000410       0.000000
     -0.000394       0.000492       0.000000
     -0.000723       0.001012       0.000000
     -0.000526       0.000886       0.000000
     -0.000394       0.000492       0.000000
     -0.000609       0.000742       0.000000
     -0.000929       0.001235       0.000000
     -0.000723       0.001012       0.000000
      0.000063       0.000504       0.000000
     -0.000046       0.000639       0.000000
     -0.000173       0.001043       0.000000
     -0.000018       0.000809       0.000000
     -0.000046       0.000639       0.000000
     -0.000189       0.000738       0.000000
     -0.000369       0.001199       0.000000
     -0.000173       0.001043       0.000000
     -0.000018       0.000809       0.000000
     -0.000173       0.001043       0.000000
     -0.000366       0.001521       0.000000
     -0.000162       0.001155       0.000000
     -0.000173       0.001043       0.000000
     -0.000369       0.001199       0.000000
     -0.000595       0.001710       0.000000
     -0.000366       0.001521       0.000000
     -0.000189       0.000738       0.000000
     -0.000350       0.000810       0.000000
     -0.000574       0.001295       0.000000
     -0.000369       0.001199       0.000000
     -0.000350       0.000810       0.000000
     -0.000526       0.000886       0.000000
     -0.000777       0.001380       0.000000
     -0.000574       0.001295       0.000000
     -0.000369       0.001199       0.000000
     -0.000574       0.001295       0.000000
     -0.000801       0.001797       0.000000
     -0.000595       0.001710       0.000000
     -0.000574       0.001295       0.000000
     -0.000777       0.001380       0.000000
     -0.000994       0.001863       0.000000
     -0.000801       0.001797       0.000000
     -0.000526       0.000886       0.000000
     -0.000723       0.001012       0.000000
     -0.000980       0.001498       0.000000
     -0.000777       0.001380       0.000000
     -0.000723       0.001012       0.000000
     -0.000929       0.001235       0.000000
     -0.001171       0.001678       0.000000
     -0.000980       0.001498       0.000000
     -0.000777       0.001380       0.000000
     -0.000980       0.001498       0.000000
     -0.001184       0.001952       0.000000
     -0.000994       0.001863       0.000000
     -0.000980       0.001498       0.000000
     -0.001171       0.001678       0.000000
     -0.001361       0.002085       0.000000
     -0.001184       0.001952       0.000000
     -0.000595       0.001710       0.000000
     -0.000801       0.001797       0.000000
     -0.000992       0.002282       0.000000
     -0.000840       0.002236       0.000000
     -0.000801       0.001797       0.000000
     -0.000994       0.001863       0.000000
     -0.001153       0.002323       0.000000
     -0.000992       0.002282       0.000000
     -0.000840       0.002236       0.000000
     -0.000992       0.002282       0.000000
     -0.001080       0.002732       0.000000
     -0.000976       0.002713       0.000000
     -0.000992       0.002282       0.000000
     -0.001153       0.002323       0.000000
     -0.001222       0.002760       0.000000
     -0.001080       0.002732       0.000000
     -0.000994       0.001863       0.000000
     -0.001184       0.001952       0.000000
     -0.001325       0.002379       0.000000
     -0.001153       0.002323       0.000000
     -0.001184       0.001952       0.000000
     -0.001361       0.002085       0.000000
     -0.001491       0.002460       0.000000
     -0.001325       0.002379       0.000000
     -0.001153       0.002323       0.000000
     -0.001325       0.002379       0.000000
     -0.001386       0.002792       0.000000
     -0.001222       0.002760       0.000000
     -0.001325       0.002379       0.000000
     -0.001491       0.002460       0.000000
     -0.001549       0.002818       0.000000
     -0.001386       0.002792       0.000000
     -0.000162       0.001155       0.000000
     -0.000254       0.001360       0.000000
     -0.000371       0.001612       0.000000
     -0.000265       0.001351       0.000000
     -0.000254       0.001360       0.000000
     -0.000366       0.001521       0.000000
     -0.000497       0.001798       0.000000
     -0.000371       0.001612       0.000000
     -0.000265       0.001351       0.000000
     -0.000371       0.001612       0.000000
     -0.000528       0.001913       0.000000
     -0.000400       0.001574       0.000000
     -0.000371       0.001612       0.000000
     -0.000497       0.001798       0.000000
     -0.000658       0.002103       0.000000
     -0.000528       0.001913       0.000000
     -0.000366       0.001521       0.000000
     -0.000483       0.001635       0.000000
     -0.000615       0.001911       0.000000
     -0.000497       0.001798       0.000000
     -0.000483       0.001635       0.000000
     -0.000595       0.001710       0.000000
     -0.000720       0.001975       0.000000
     -0.000615       0.001911       0.000000
     -0.000497       0.001798       0.000000
     -0.000615       0.001911       0.000000
     -0.000758       0.002192       0.000000