# vtk DataFile Version 2.0
time_10.vtk
ASCII
DATASET UNSTRUCTURED_GRID
POINTS  1152 float
      0.000000       0.000000       0.000000
      0.083333       0.000000       0.000000
      0.083333       0.083333       0.000000
      0.000000       0.083333       0.000000
      0.083333       0.000000       0.000000
      0.166667       0.000000       0.000000
      0.166667       0.083333       0.000000
      0.083333       0.083333       0.000000
      0.000000       0.083333       0.000000
      0.083333       0.083333       0.000000
      0.083333       0.166667       0.000000
      0.000000       0.166667       0.000000
      0.083333       0.083333       0.000000
      0.166667       0.083333       0.000000
      0.166667       0.166667       0.000000
      0.083333       0.166667       0.000000
      0.166667       0.000000       0.000000
      0.250000       0.000000       0.000000
      0.250000       0.083333       0.000000
      0.166667       0.083333       0.000000
      0.250000       0.000000       0.000000
      0.333333       0.000000       0.000000
      0.333333       0.083333       0.000000
      0.250000       0.083333       0.000000
      0.166667       0.083333       0.000000
      0.250000       0.083333       0.000000
      0.250000       0.166667       0.000000
      0.166667       0.166667       0.000000
      0.250000       0.083333       0.000000
      0.333333       0.083333       0.000000
      0.333333       0.166667       0.000000
      0.250000       0.166667       0.000000
      0.333333       0.000000       0.000000
      0.416667       0.000000       0.000000
      0.416667       0.083333       0.000000
      0.333333       0.083333       0.000000
      0.416667       0.000000       0.000000
      0.500000       0.000000       0.000000
      0.500000       0.083333       0.000000
      0.416667       0.083333       0.000000
      0.333333       0.083333       0.000000
      0.416667       0.083333       0.000000
      0.416667       0.166667       0.000000
      0.333333       0.166667       0.000000
      0.416667       0.083333       0.000000
      0.500000       0.083333       0.000000
      0.500000       0.166667       0.000000
      0.416667       0.166667       0.000000
      0.000000       0.166667       0.000000
      0.083333       0.166667       0.000000
      0.083333       0.250000       0.000000
      0.000000       0.250000       0.000000
      0.083333       0.166667       0.000000
      0.166667       0.166667       0.000000
      0.166667       0.250000       0.000000
      0.083333       0.250000       0.000000
      0.000000       0.250000       0.000000
      0.083333       0.250000       0.000000
      0.083333       0.333333       0.000000
      0.000000       0.333333       0.000000
      0.083333       0.250000       0.000000
      0.166667       0.250000       0.000000
      0.166667       0.333333       0.000000
      0.083333       0.333333       0.000000
      0.166667       0.166667       0.000000
      0.250000       0.166667       0.000000
      0.250000       0.250000       0.000000
      0.166667       0.250000       0.000000
      0.250000       0.166667       0.000000
      0.333333       0.166667       0.000000
      0.333333       0.250000       0.000000
      0.250000       0.250000       0.000000
      0.166667       0.250000       0.000000
      0.250000       0.250000       0.000000
      0.250000       0.333333       0.000000
      0.166667       0.333333       0.000000
      0.250000       0.250000       0.000000
      0.333333       0.250000       0.000000
      0.333333       0.333333       0.000000
      0.250000       0.333333       0.000000
      0.333333       0.166667       0.000000
      0.416667       0.166667       0.000000
      0.416667       0.250000       0.000000
      0.333333       0.250000       0.000000
      0.416667       0.166667       0.000000
      0.500000       0.166667       0.000000
      0.500000       0.250000       0.000000
      0.416667       0.250000       0.000000
      0.333333       0.250000       0.000000
      0.416667       0.250000       0.000000
      0.416667       0.333333       0.000000
      0.333333       0.333333       0.000000
      0.416667       0.250000       0.000000
      0.500000       0.250000       0.000000
      0.500000       0.333333       0.000000
      0.416667       0.333333       0.000000
      0.000000       0.333333       0.000000
      0.083333       0.333333       0.000000
      0.083333       0.416667       0.000000
      0.000000       0.416667       0.000000
      0.083333       0.333333       0.000000
      0.166667       0.333333       0.000000
      0.166667       0.416667       0.000000
      0.083333       0.416667       0.000000
      0.000000       0.416667       0.000000
      0.083333       0.416667       0.000000
      0.083333       0.500000       0.000000
      0.000000       0.500000       0.000000
      0.083333       0.416667       0.000000
      0.166667       0.416667       0.000000
      0.166667       0.500000       0.000000
      0.083333       0.500000       0.000000
      0.166667       0.333333       0.000000
      0.250000       0.333333       0.000000
      0.250000       0.416667       0.000000
      0.166667       0.416667       0.000000
      0.250000       0.333333       0.000000
      0.333333       0.333333       0.000000
      0.333333       0.416667       0.000000
      0.250000       0.416667       0.000000
      0.166667       0.416667       0.000000
      0.250000       0.416667       0.000000
      0.250000       0.500000       0.000000
      0.166667       0.500000       0.000000
      0.250000       0.416667       0.000000
      0.333333       0.416667       0.000000
      0.333333       0.500000       0.000000
      0.250000       0.500000       0.000000
      0.333333       0.333333       0.000000
      0.375000       0.333333       0.000000
      0.375000       0.375000       0.000000
      0.333333       0.375000       0.000000
      0.375000       0.333333       0.000000
      0.416667       0.333333       0.000000
      0.416667       0.375000       0.000000
      0.375000       0.375000       0.000000
      0.333333       0.375000       0.000000
      0.375000       0.375000       0.000000
      0.375000       0.416667       0.000000
      0.333333       0.416667       0.000000
      0.375000       0.375000       0.000000
      0.416667       0.375000       0.000000
      0.416667       0.416667       0.000000
      0.375000       0.416667       0.000000
      0.416667       0.333333       0.000000
      0.458333       0.333333       0.000000
      0.458333       0.375000       0.000000
      0.416667       0.375000       0.000000
      0.458333       0.333333       0.000000
      0.500000       0.333333       0.000000
      0.500000       0.375000       0.000000
      0.458333       0.375000       0.000000
      0.416667       0.375000       0.000000
      0.458333       0.375000       0.000000
      0.458333       0.416667       0.000000
      0.416667       0.416667       0.000000
      0.458333       0.375000       0.000000
      0.500000       0.375000       0.000000
      0.500000       0.416667       0.000000
      0.458333       0.416667       0.000000
      0.333333       0.416667       0.000000
      0.375000       0.416667       0.000000
      0.375000       0.458333       0.000000
      0.333333       0.458333       0.000000
      0.375000       0.416667       0.000000
      0.416667       0.416667       0.000000
      0.416667       0.458333       0.000000
      0.375000       0.458333       0.000000
      0.333333       0.458333       0.000000
      0.375000       0.458333       0.000000
      0.375000       0.500000       0.000000
      0.333333       0.500000       0.000000
      0.375000       0.458333       0.000000
      0.416667       0.458333       0.000000
      0.416667       0.500000       0.000000
      0.375000       0.500000       0.000000
      0.416667       0.416667       0.000000
      0.437500       0.416667       0.000000
      0.437500       0.437500       0.000000
      0.416667       0.437500       0.000000
      0.437500       0.416667       0.000000
      0.458333       0.416667       0.000000
      0.458333       0.437500       0.000000
      0.437500       0.437500       0.000000
      0.416667       0.437500       0.000000
      0.437500       0.437500       0.000000
      0.437500       0.458333       0.000000
      0.416667       0.458333       0.000000
      0.437500       0.437500       0.000000
      0.458333       0.437500       0.000000
      0.458333       0.458333       0.000000
      0.437500       0.458333       0.000000
      0.458333       0.416667       0.000000
      0.479167       0.416667       0.000000
      0.479167       0.437500       0.000000
      0.458333       0.437500       0.000000
      0.479167       0.416667       0.000000
      0.500000       0.416667       0.000000
      0.500000       0.437500       0.000000
      0.479167       0.437500       0.000000
      0.458333       0.437500       0.000000
      0.479167       0.437500       0.000000
      0.479167       0.458333       0.000000
      0.458333       0.458333       0.000000
      0.479167       0.437500       0.000000
      0.500000       0.437500       0.000000
      0.500000       0.458333       0.000000
      0.479167       0.458333       0.000000
      0.416667       0.458333       0.000000
      0.437500       0.458333       0.000000
      0.437500       0.479167       0.000000
      0.416667       0.479167       0.000000
      0.437500       0.458333       0.000000
      0.458333       0.458333       0.000000
      0.458333       0.479167       0.000000
      0.437500       0.479167       0.000000
      0.416667       0.479167       0.000000
      0.437500       0.479167       0.000000
      0.437500       0.500000       0.000000
      0.416667       0.500000       0.000000
[...]
POINT_DATA  1152
VECTORS U float 
      0.000000       0.000000       0.000000
      0.000000       0.000000       0.000000
      0.000073      -0.000015       0.000000
      0.000054      -0.000016       0.000000
      0.000000       0.000000       0.000000
      0.000000       0.000000       0.000000
      0.000093       0.000014       0.000000
      0.000073      -0.000015       0.000000
      0.000054      -0.000016       0.000000
      0.000073      -0.000015       0.000000
      0.000081      -0.000041       0.000000
      0.000056      -0.000084       0.000000
      0.000073      -0.000015       0.000000
      0.000093       0.000014       0.000000
      0.000103       0.000019       0.000000
      0.000081      -0.000041       0.000000
      0.000000       0.000000       0.000000
      0.000000       0.000000       0.000000
      0.000110       0.000055       0.000000
      0.000093       0.000014       0.000000
      0.000000       0.000000       0.000000
      0.000000       0.000000       0.000000
      0.000120       0.000107       0.000000
      0.000110       0.000055       0.000000
      0.000093       0.000014       0.000000
      0.000110       0.000055       0.000000
      0.000126       0.000099       0.000000
      0.000103       0.000019       0.000000
      0.000110       0.000055       0.000000
      0.000120       0.000107       0.000000
      0.000140       0.000210       0.000000
      0.000126       0.000099       0.000000
      0.000000       0.000000       0.000000
      0.000000       0.000000       0.000000
      0.000111       0.000170       0.000000
      0.000120       0.000107       0.000000
      0.000000       0.000000       0.000000
      0.000000       0.000000       0.000000
      0.000077       0.000237       0.000000
      0.000111       0.000170       0.000000
      0.000120       0.000107       0.000000
      0.000111       0.000170       0.000000
      0.000125       0.000353       0.000000
      0.000140       0.000210       0.000000
      0.000111       0.000170       0.000000
      0.000077       0.000237       0.000000
      0.000064       0.000508       0.000000
      0.000125       0.000353       0.000000
      0.000056      -0.000084       0.000000
      0.000081      -0.000041       0.000000
      0.000009      -0.000071       0.000000
     -0.000014      -0.000161       0.000000
      0.000081      -0.000041       0.000000
      0.000103       0.000019       0.000000
      0.000029       0.000016       0.000000
      0.000009      -0.000071       0.000000
     -0.000014      -0.000161       0.000000
      0.000009      -0.000071       0.000000
     -0.000130      -0.000097       0.000000
     -0.000144      -0.000220       0.000000
      0.000009      -0.000071       0.000000
      0.000029       0.000016       0.000000
     -0.000118       0.000009       0.000000
     -0.000130      -0.000097       0.000000
      0.000103       0.000019       0.000000
      0.000126       0.000099       0.000000
      0.000054       0.000130       0.000000
      0.000029       0.000016       0.000000
      0.000126       0.000099       0.000000
      0.000140       0.000210       0.000000
      0.000074       0.000301       0.000000
      0.000054       0.000130       0.000000
      0.000029       0.000016       0.000000
      0.000054       0.000130       0.000000
     -0.000102       0.000145       0.000000
     -0.000118       0.000009       0.000000
      0.000054       0.000130       0.000000
      0.000074       0.000301       0.000000
     -0.000082       0.000364       0.000000
     -0.000102       0.000145       0.000000
      0.000140       0.000210       0.000000
      0.000125       0.000353       0.000000
      0.000062       0.000540       0.000000
      0.000074       0.000301       0.000000
      0.000125       0.000353       0.000000
      0.000064       0.000508       0.000000
     -0.000018       0.000815       0.000000
      0.000062       0.000540       0.000000
      0.000074       0.000301       0.000000
      0.000062       0.000540       0.000000
     -0.000079       0.000713       0.000000
     -0.000082       0.000364       0.000000
      0.000062       0.000540       0.000000
     -0.000018       0.000815       0.000000
     -0.000165       0.001164       0.000000
     -0.000079       0.000713       0.000000
     -0.000144      -0.000220       0.000000
     -0.000130      -0.000097       0.000000
     -0.000301      -0.000111       0.000000
     -0.000303      -0.000246       0.000000
     -0.000130      -0.000097       0.000000
     -0.000118       0.000009       0.000000
     -0.000310       0.000006       0.000000
     -0.000301      -0.000111       0.000000
     -0.000303      -0.000246       0.000000
     -0.000301      -0.000111       0.000000
     -0.000455      -0.000110       0.000000
     -0.000453      -0.000248       0.000000
     -0.000301      -0.000111       0.000000
     -0.000310       0.000006       0.000000
     -0.000484       0.000019       0.000000
     -0.000455      -0.000110       0.000000
     -0.000118       0.000009       0.000000
     -0.000102       0.000145       0.000000
     -0.000328       0.000152       0.000000
     -0.000310       0.000006       0.000000
     -0.000102       0.000145       0.000000
     -0.000082       0.000364       0.000000
     -0.000346       0.000391       0.000000
     -0.000328       0.000152       0.000000
     -0.000310       0.000006       0.000000
     -0.000328       0.000152       0.000000
     -0.000559       0.000177       0.000000
     -0.000484       0.000019       0.000000
     -0.000328       0.000152       0.000000
     -0.000346       0.000391       0.000000
     -0.000689       0.000426       0.000000
     -0.000559       0.000177       0.000000
     -0.000082       0.000364       0.000000
     -0.000075       0.000521       0.000000
     -0.000192       0.000556       0.000000
     -0.000199       0.000381       0.000000
     -0.000075       0.000521       0.000000
     -0.000079       0.000713       0.000000
     -0.000189       0.000783       0.000000
     -0.000192       0.000556       0.000000
     -0.000199       0.000381       0.000000
     -0.000192       0.000556       0.000000
     -0.000348       0.000576       0.000000
     -0.000346       0.000391       0.000000
     -0.000192       0.000556       0.000000
     -0.000189       0.000783       0.000000
     -0.000344       0.000830       0.000000
     -0.000348       0.000576       0.000000
     -0.000079       0.000713       0.000000
     -0.000105       0.000935       0.000000
     -0.000207       0.001061       0.000000
     -0.000189       0.000783       0.000000
     -0.000105       0.000935       0.000000
     -0.000165       0.001164       0.000000
     -0.000268       0.001361       0.000000
     -0.000207       0.001061       0.000000
     -0.000189       0.000783       0.000000
     -0.000207       0.001061       0.000000
     -0.000348       0.001175       0.000000
     -0.000344       0.000830       0.000000
     -0.000207       0.001061       0.000000
     -0.000268       0.001361       0.000000
     -0.000406       0.001585       0.000000
     -0.000348       0.001175       0.000000
     -0.000346       0.000391       0.000000
     -0.000348       0.000576       0.000000
     -0.000550       0.000588       0.000000
     -0.000517       0.000402       0.000000
     -0.000348       0.000576       0.000000
     -0.000344       0.000830       0.000000
     -0.000574       0.000852       0.000000
     -0.000550       0.000588       0.000000
     -0.000517       0.000402       0.000000
     -0.000550       0.000588       0.000000
     -0.000777       0.000615       0.000000
     -0.000689       0.000426       0.000000
     -0.000550       0.000588       0.000000
     -0.000574       0.000852       0.000000
     -0.000882       0.000879       0.000000
     -0.000777       0.000615       0.000000
     -0.000344       0.000830       0.000000
     -0.000343       0.000991       0.000000
     -0.000446       0.001015       0.000000
     -0.000448       0.000844       0.000000
     -0.000343       0.000991       0.000000
     -0.000348       0.001175       0.000000
     -0.000445       0.001221       0.000000
     -0.000446       0.001015       0.000000
     -0.000448       0.000844       0.000000
     -0.000446       0.001015       0.000000
     -0.000578       0.001029       0.000000
     -0.000574       0.000852       0.000000
     -0.000446       0.001015       0.000000
     -0.000445       0.001221       0.000000
     -0.000574       0.001252       0.000000
     -0.000578       0.001029       0.000000
     -0.000348       0.001175       0.000000
     -0.000367       0.001378       0.000000
     -0.000456       0.001461       0.000000
     -0.000445       0.001221       0.000000
     -0.000367       0.001378       0.000000
     -0.000406       0.001585       0.000000
     -0.000495       0.001714       0.000000
     -0.000456       0.001461       0.000000
     -0.000445       0.001221       0.000000
     -0.000456       0.001461       0.000000
     -0.000573       0.001537       0.000000
     -0.000574       0.001252       0.000000
     -0.000456       0.001461       0.000000
     -0.000495       0.001714       0.000000
     -0.000608       0.001868       0.000000
     -0.000573       0.001537       0.000000
     -0.000574       0.000852       0.000000
     -0.000578       0.001029       0.000000
     -0.000746       0.001037       0.000000
     -0.000723       0.000861       0.000000
     -0.000578       0.001029       0.000000
     -0.000574       0.001252       0.000000
     -0.000760       0.001265       0.000000
     -0.000746       0.001037       0.000000
     -0.000723       0.000861       0.000000
     -0.000746       0.001037       0.000000
     -0.000942       0.001055       0.000000
     -0.000882       0.000879       0.000000
     -0.000746       0.001037       0.000000
     -0.000760       0.001265       0.000000
     -0.001011       0.001281       0.000000
     -0.000942       0.001055       0.000000
     -0.000574       0.001252       0.000000
     -0.000572       0.001387       0.000000
     -0.000654       0.001402       0.000000
     -0.000658       0.001260       0.000000
     -0.000572       0.001387       0.000000
     -0.000573       0.001537       0.000000
     -0.000650       0.001569       0.000000
     -0.000654       0.001402       0.000000
     -0.000658       0.001260       0.000000
     -0.000654       0.001402       0.000000
     -0.000759       0.001410       0.000000
     -0.000760       0.001265       0.000000
     -0.000654       0.001402       0.000000
     -0.000650       0.001569       0.000000
     -0.000752       0.001590       0.000000
     -0.000759       0.001410       0.000000
     -0.000573       0.001537       0.000000
     -0.000583       0.001702       0.000000
     -0.000655       0.001761       0.000000
     -0.000650       0.001569       0.000000
     -0.000583       0.001702       0.000000
     -0.000608       0.001868       0.000000
     -0.000678       0.001962       0.000000
     -0.000655       0.001761       0.000000
     -0.000650       0.001569       0.000000
     -0.000655       0.001761       0.000000
     -0.000745       0.001818       0.000000
     -0.000752       0.001590       0.000000
     -0.000655       0.001761       0.000000
     -0.000678       0.001962       0.000000
     -0.000767       0.002080       0.000000
     -0.000745       0.001818       0.000000
     -0.000760       0.001265       0.000000
     -0.000759       0.001410       0.000000
     -0.000893       0.001414       0.000000
     -0.000880       0.001270       0.000000
     -0.000759       0.001410       0.000000
     -0.000752       0.001590       0.000000
     -0.000898       0.001597       0.000000
     -0.000893       0.001414       0.000000
     -0.000880       0.001270       0.000000
     -0.000893       0.001414       0.000000
     -0.001050       0.001426       0.000000
     -0.001011       0.001281       0.000000
     -0.000893       0.001414       0.000000
     -0.000898       0.001597       0.000000
     -0.001097       0.001609       0.000000
     -0.001050       0.001426       0.000000
     -0.000752       0.001590       0.000000
     -0.000745       0.001818       0.000000
     -0.000883       0.001859       0.000000
     -0.000898       0.001597       0.000000
     -0.000745       0.001818       0.000000
     -0.000767       0.002080       0.000000
     -0.000892       0.002255       0.000000
     -0.000883       0.001859       0.000000
     -0.000898       0.001597       0.000000
     -0.000883       0.001859       0.000000
     -0.001160       0.001881       0.000000
     -0.001097       0.001609       0.000000
     -0.000883       0.001859       0.000000
     -0.000892       0.002255       0.000000
     -0.001238       0.002741       0.000000
     -0.001160       0.001881       0.000000
      0.000000       0.000000       0.000000
      0.000000       0.000000       0.000000
      0.000017       0.000295       0.000000
      0.000077       0.000237       0.000000
      0.000000       0.000000       0.000000
      0.000000       0.000000       0.000000
     -0.000062       0.000341       0.000000
      0.000017       0.000295       0.000000
      0.000077       0.000237       0.000000
      0.000017       0.000295       0.000000
     -0.000047       0.000645       0.000000
      0.000064       0.000508       0.000000
      0.000017       0.000295       0.000000
     -0.000062       0.000341       0.000000
     -0.000191       0.000746       0.000000
     -0.000047       0.000645       0.000000
      0.000000       0.000000       0.000000
      0.000000       0.000000       0.000000
     -0.000152       0.000376       0.000000
     -0.000062       0.000341       0.000000
      0.000000       0.000000       0.000000
      0.000000       0.000000       0.000000
     -0.000256       0.000415       0.000000
     -0.000152       0.000376       0.000000
     -0.000062       0.000341       0.000000
     -0.000152       0.000376       0.000000
     -0.000354       0.000820       0.000000
     -0.000191       0.000746       0.000000
     -0.000152       0.000376       0.000000
     -0.000256       0.000415       0.000000
     -0.000532       0.000897       0.000000
     -0.000354       0.000820       0.000000
      0.000000       0.000000       0.000000
      0.000000       0.000000       0.000000
     -0.000399       0.000499       0.000000
     -0.000256       0.000415       0.000000
      0.000000       0.000000       0.000000
      0.000000       0.000000       0.000000
     -0.000617       0.000753       0.000000
     -0.000399       0.000499       0.000000
     -0.000256       0.000415       0.000000
     -0.000399       0.000499       0.000000
     -0.000732       0.001025       0.000000
     -0.000532       0.000897       0.000000
     -0.000399       0.000499       0.000000
     -0.000617       0.000753       0.000000
     -0.000940       0.001252       0.000000
     -0.000732       0.001025       0.000000
      0.000064       0.000508       0.000000
     -0.000047       0.000645       0.000000
     -0.000175       0.001053       0.000000
     -0.000018       0.000815       0.000000
     -0.000047       0.000645       0.000000
     -0.000191       0.000746       0.000000
     -0.000374       0.001212       0.000000
     -0.000175       0.001053       0.000000
     -0.000018       0.000815       0.000000
     -0.000175       0.001053       0.000000
     -0.000371       0.001536       0.000000
     -0.000165       0.001164       0.000000
     -0.000175       0.001053       0.000000
     -0.000374       0.001212       0.000000
     -0.000602       0.001730       0.000000
     -0.000371       0.001536       0.000000
     -0.000191       0.000746       0.000000
     -0.000354       0.000820       0.000000
     -0.000581       0.001311       0.000000
     -0.000374       0.001212       0.000000
     -0.000354       0.000820       0.000000
     -0.000532       0.000897       0.000000
     -0.000787       0.001397       0.000000
     -0.000581       0.001311       0.000000
     -0.000374       0.001212       0.000000
     -0.000581       0.001311       0.000000
     -0.000811       0.001819       0.000000
     -0.000602       0.001730       0.000000
     -0.000581       0.001311       0.000000
     -0.000787       0.001397       0.000000
     -0.001008       0.001887       0.000000
     -0.000811       0.001819       0.000000
     -0.000532       0.000897       0.000000
     -0.000732       0.001025       0.000000
     -0.000992       0.001517       0.000000
     -0.000787       0.001397       0.000000
     -0.000732       0.001025       0.000000
     -0.000940       0.001252       0.000000
     -0.001186       0.001701       0.000000
     -0.000992       0.001517       0.000000
     -0.000787       0.001397       0.000000
     -0.000992       0.001517       0.000000
     -0.001199       0.001977       0.000000
     -0.001008       0.001887       0.000000
     -0.000992       0.001517       0.000000
     -0.001186       0.001701       0.000000
     -0.001379       0.002112       0.000000
     -0.001199       0.001977       0.000000
     -0.000602       0.001730       0.000000
     -0.000811       0.001819       0.000000
     -0.001005       0.002310       0.000000
     -0.000852       0.002263       0.000000
     -0.000811       0.001819       0.000000
     -0.001008       0.001887       0.000000
     -0.001169       0.002352       0.000000
     -0.001005       0.002310       0.000000
     -0.000852       0.002263       0.000000
     -0.001005       0.002310       0.000000
     -0.001095       0.002766       0.000000
     -0.000990       0.002747       0.000000
     -0.001005       0.002310       0.000000
     -0.001169       0.002352       0.000000
     -0.001239       0.002794       0.000000
     -0.001095       0.002766       0.000000
     -0.001008       0.001887       0.000000
     -0.001199       0.001977       0.000000
     -0.001343       0.002409       0.000000
     -0.001169       0.002352       0.000000
     -0.001199       0.001977       0.000000
     -0.001379       0.002112       0.000000
     -0.001511       0.002491       0.000000
     -0.001343       0.002409       0.000000
     -0.001169       0.002352       0.000000
     -0.001343       0.002409       0.000000
     -0.001405       0.002826       0.000000
     -0.001239       0.002794       0.000000
     -0.001343       0.002409       0.000000
     -0.001511       0.002491       0.000000
     -0.001570       0.002853       0.000000
     -0.001405       0.002826       0.000000
     -0.000165       0.001164       0.000000
     -0.000257       0.001371       0.000000
     -0.000376       0.001626       0.000000
     -0.000268       0.001361       0.000000
     -0.000257       0.001371       0.000000
     -0.000371       0.001536       0.000000
     -0.000503       0.001816       0.000000
     -0.000376       0.001626       0.000000
     -0.000268       0.001361       0.000000
     -0.000376       0.001626       0.000000
     -0.000534       0.001930       0.000000
     -0.000406       0.001585       0.000000
     -0.000376       0.001626       0.000000
     -0.000503       0.001816       0.000000
     -0.000667       0.002126       0.000000
     -0.000534       0.001930       0.000000
     -0.000371       0.001536       0.000000
     -0.000489       0.001652       0.000000
     -0.000623       0.001932       0.000000
     -0.000503       0.001816       0.000000
     -0.000489       0.001652       0.000000
     -0.000602       0.001730       0.000000
     -0.000729       0.001999       0.000000
     -0.000623       0.001932       0.000000
     -0.000503       0.001816       0.000000
     -0.000623       0.001932       0.000000
     -0.000769       0.002218       0.000000