# vtk DataFile Version 2.0
time_10.vtk
ASCII
DATASET UNSTRUCTURED_GRID
POINTS  1152 float
      0.000000       0.000000       0.000000
      0.083333       0.000000       0.000000
      0.083333       0.083333       0.000000
      0.000000       0.083333       0.000000
      0.083333       0.000000       0.000000
      0.166667       0.000000       0.000000
      0.166667       0.083333       0.000000
      0.083333       0.083333       0.000000
      0.000000       0.083333       0.000000
      0.083333       0.083333       0.000000
      0.083333       0.166667       0.000000
      0.000000       0.166667       0.000000
      0.083333       0.083333       0.000000
      0.166667       0.083333       0.000000
      0.166667       0.166667       0.000000
      0.083333       0.166667       0.000000
      0.166667       0.000000       0.000000
      0.250000       0.000000       0.000000
      0.250000       0.083333       0.000000
      0.166667       0.083333       0.000000
      0.250000       0.000000       0.000000
      0.333333       0.000000       0.000000
      0.333333       0.083333       0.000000
      0.250000       0.083333       0.000000
      0.166667       0.083333       0.000000
      0.250000       0.083333       0.000000
      0.250000       0.166667       0.000000
      0.166667       0.166667       0.000000
      0.250000       0.083333       0.000000
      0.333333       0.083333       0.000000
      0.333333       0.166667       0.000000
      0.250000       0.166667       0.000000
      0.333333       0.000000       0.000000
      0.416667       0.000000       0.000000
      0.416667       0.083333       0.000000
      0.333333       0.083333       0.000000
      0.416667       0.000000       0.000000
      0.500000       0.000000       0.000000
      0.500000       0.083333       0.000000
      0.416667       0.083333       0.000000
      0.333333       0.083333       0.000000
      0.416667       0.083333       0.000000
      0.416667       0.166667       0.000000
      0.333333       0.166667       0.000000
      0.416667       0.083333       0.000000
      0.500000       0.083333       0.000000
      0.500000       0.166667       0.000000
      0.416667       0.166667       0.000000
      0.000000       0.166667       0.000000
      0.083333       0.166667       0.000000
      0.083333       0.250000       0.000000
      0.000000       0.250000       0.000000
      0.083333       0.166667       0.000000
      0.166667       0.166667       0.000000
      0.166667       0.250000       0.000000
      0.083333       0.250000       0.000000
      0.000000       0.250000       0.000000
      0.083333       0.250000       0.000000
      0.083333       0.333333       0.000000
      0.000000       0.333333       0.000000
      0.083333       0.250000       0.000000
      0.166667       0.250000       0.000000
      0.166667       0.333333       0.000000
      0.083333       0.333333       0.000000
      0.166667       0.166667       0.000000
      0.250000       0.166667       0.000000
      0.250000       0.250000       0.000000
      0.166667       0.250000       0.000000
      0.250000       0.166667       0.000000
      0.333333       0.166667       0.000000
      0.333333       0.250000       0.000000
      0.250000       0.250000       0.000000
      0.166667       0.250000       0.000000
      0.250000       0.250000       0.000000
      0.250000       0.333333       0.000000
      0.166667       0.333333       0.000000
      0.250000       0.250000       0.000000
      0.333333       0.250000       0.000000
      0.333333       0.333333       0.000000
      0.250000       0.333333       0.000000
      0.333333       0.166667       0.000000
      0.416667       0.166667       0.000000
      0.416667       0.250000       0.000000
      0.333333       0.250000       0.000000
      0.416667       0.166667       0.000000
      0.500000       0.166667       0.000000
      0.500000       0.250000       0.000000
      0.416667       0.250000       0.000000
      0.333333       0.250000       0.000000
      0.416667       0.250000       0.000000
      0.416667       0.333333       0.000000
      0.333333       0.333333       0.000000
      0.416667       0.250000       0.000000
      0.500000       0.250000       0.000000
      0.500000       0.333333       0.000000
      0.416667       0.333333       0.000000
      0.000000       0.333333       0.000000
      0.083333       0.333333       0.000000
      0.083333       0.416667       0.000000
      0.000000       0.416667       0.000000
      0.083333       0.333333       0.000000
      0.166667       0.333333       0.000000
      0.166667       0.416667       0.000000
      0.083333       0.416667       0.000000
      0.000000       0.416667       0.000000
      0.083333       0.416667       0.000000
      0.083333       0.500000       0.000000
      0.000000       0.500000       0.000000
      0.083333       0.416667       0.000000
      0.166667       0.416667       0.000000
      0.166667       0.500000       0.000000
      0.083333       0.500000       0.000000
      0.166667       0.333333       0.000000
      0.250000       0.333333       0.000000
      0.250000       0.416667       0.000000
      0.166667       0.416667       0.000000
      0.250000       0.333333       0.000000
      0.333333       0.333333       0.000000
      0.333333       0.416667       0.000000
      0.250000       0.416667       0.000000
      0.166667       0.416667       0.000000
      0.250000       0.416667       0.000000
      0.250000       0.500000       0.000000
      0.166667       0.500000       0.000000
      0.250000       0.416667       0.000000
      0.333333       0.416667       0.000000
      0.333333       0.500000       0.000000
      0.250000       0.500000       0.000000
      0.333333       0.333333       0.000000
      0.375000       0.333333       0.000000
      0.375000       0.375000       0.000000
      0.333333       0.375000       0.000000
      0.375000       0.333333       0.000000
      0.416667       0.333333       0.000000
      0.416667       0.375000       0.000000
      0.375000       0.375000       0.000000
      0.333333       0.375000       0.000000
      0.375000       0.375000       0.000000
      0.375000       0.416667       0.000000
      0.333333       0.416667       0.000000
      0.375000       0.375000       0.000000
      0.416667       0.375000       0.000000
      0.416667       0.416667       0.000000
      0.375000       0.416667       0.000000
      0.416667       0.333333       0.000000
      0.458333       0.333333       0.000000
      0.458333       0.375000       0.000000
      0.416667       0.375000       0.000000
      0.458333       0.333333       0.000000
      0.500000       0.333333       0.000000
      0.500000       0.375000       0.000000
      0.458333       0.375000       0.000000
      0.416667       0.375000       0.000000
      0.458333       0.375000       0.000000
      0.458333       0.416667       0.000000
      0.416667       0.416667       0.000000
      0.458333       0.375000       0.000000
      0.500000       0.375000       0.000000
      0.500000       0.416667       0.000000
      0.458333       0.416667       0.000000
      0.333333       0.416667       0.000000
      0.375000       0.416667       0.000000
      0.375000       0.458333       0.000000
      0.333333       0.458333       0.000000
      0.375000       0.416667       0.000000
      0.416667       0.416667       0.000000
      0.416667       0.458333       0.000000
      0.375000       0.458333       0.000000
      0.333333       0.458333       0.000000
      0.375000       0.458333       0.000000
      0.375000       0.500000       0.000000
      0.333333       0.500000       0.000000
      0.375000       0.458333       0.000000
      0.416667       0.458333       0.000000
      0.416667       0.500000       0.000000
      0.375000       0.500000       0.000000
      0.416667       0.416667       0.000000
      0.437500       0.416667       0.000000
      0.437500       0.437500       0.000000
      0.416667       0.437500       0.000000
      0.437500       0.416667       0.000000
      0.458333       0.416667       0.000000
      0.458333       0.437500       0.000000
      0.437500       0.437500       0.000000
      0.416667       0.437500       0.000000
      0.437500       0.437500       0.000000
      0.437500       0.458333       0.000000
      0.416667       0.458333       0.000000
      0.437500       0.437500       0.000000
      0.458333       0.437500       0.000000
      0.458333       0.458333       0.000000
      0.437500       0.458333       0.000000
      0.458333       0.416667       0.000000
      0.479167       0.416667       0.000000
      0.479167       0.437500       0.000000
      0.458333       0.437500       0.000000
      0.479167       0.416667       0.000000
      0.500000       0.416667       0.000000
      0.500000       0.437500       0.000000
      0.479167       0.437500       0.000000
      0.458333       0.437500       0.000000
      0.479167       0.437500       0.000000
      0.479167       0.458333       0.000000
      0.458333       0.458333       0.000000
      0.479167       0.437500       0.000000
      0.500000       0.437500       0.000000
      0.500000       0.458333       0.000000
      0.479167       0.458333       0.000000
      0.416667       0.458333       0.000000
      0.437500       0.458333       0.000000
      0.437500       0.479167       0.000000
      0.416667       0.479167       0.000000
      0.437500       0.458333       0.000000
      0.458333       0.458333       0.000000
      0.458333       0.479167       0.000000
      0.437500       0.479167       0.000000
      0.416667       0.479167       0.000000
      0.437500       0.479167       0.000000
      0.437500       0.500000       0.000000
      0.416667       0.500000       0.000000
[...]
POINT_DATA  1152
VECTORS U float 
      0.000000       0.000000       0.000000
      0.000000       0.000000       0.000000
      0.000073      -0.000015       0.000000
      0.000054      -0.000016       0.000000
      0.000000       0.000000       0.000000
      0.000000       0.000000       0.000000
      0.000092       0.000015       0.000000
      0.000073      -0.000015       0.000000
      0.000054      -0.000016       0.000000
      0.000073      -0.000015       0.000000
      0.000081      -0.000041       0.000000
      0.000056      -0.000084       0.000000
      0.000073      -0.000015       0.000000
      0.000092       0.000015       0.000000
      0.000103       0.000019       0.000000
      0.000081      -0.000041       0.000000
      0.000000       0.000000       0.000000
      0.000000       0.000000       0.000000
      0.000110       0.000055       0.000000
      0.000092       0.000015       0.000000
      0.000000       0.000000       0.000000
      0.000000       0.000000       0.000000
      0.000120       0.000107       0.000000
      0.000110       0.000055       0.000000
      0.000092       0.000015       0.000000
      0.000110       0.000055       0.000000
      0.000126       0.000099       0.000000
      0.000103       0.000019       0.000000
      0.000110       0.000055       0.000000
      0.000120       0.000107       0.000000
      0.000140       0.000210       0.000000
      0.000126       0.000099       0.000000
      0.000000       0.000000       0.000000
      0.000000       0.000000       0.000000
      0.000111       0.000170       0.000000
      0.000120       0.000107       0.000000
      0.000000       0.000000       0.000000
      0.000000       0.000000       0.000000
      0.000077       0.000236       0.000000
      0.000111       0.000170       0.000000
      0.000120       0.000107       0.000000
      0.000111       0.000170       0.000000
      0.000125       0.000352       0.000000
      0.000140       0.000210       0.000000
      0.000111       0.000170       0.000000
      0.000077       0.000236       0.000000
      0.000064       0.000507       0.000000
      0.000125       0.000352       0.000000
      0.000056      -0.000084       0.000000
      0.000081      -0.000041       0.000000
      0.000009      -0.000070       0.000000
     -0.000014      -0.000160       0.000000
      0.000081      -0.000041       0.000000
      0.000103       0.000019       0.000000
      0.000030       0.000016       0.000000
      0.000009      -0.000070       0.000000
     -0.000014      -0.000160       0.000000
      0.000009      -0.000070       0.000000
     -0.000129      -0.000097       0.000000
     -0.000143      -0.000219       0.000000
      0.000009      -0.000070       0.000000
      0.000030       0.000016       0.000000
     -0.000117       0.000009       0.000000
     -0.000129      -0.000097       0.000000
      0.000103       0.000019       0.000000
      0.000126       0.000099       0.000000
      0.000054       0.000130       0.000000
      0.000030       0.000016       0.000000
      0.000126       0.000099       0.000000
      0.000140       0.000210       0.000000
      0.000074       0.000301       0.000000
      0.000054       0.000130       0.000000
      0.000030       0.000016       0.000000
      0.000054       0.000130       0.000000
     -0.000102       0.000145       0.000000
     -0.000117       0.000009       0.000000
      0.000054       0.000130       0.000000
      0.000074       0.000301       0.000000
     -0.000081       0.000363       0.000000
     -0.000102       0.000145       0.000000
      0.000140       0.000210       0.000000
      0.000125       0.000352       0.000000
      0.000062       0.000539       0.000000
      0.000074       0.000301       0.000000
      0.000125       0.000352       0.000000
      0.000064       0.000507       0.000000
     -0.000018       0.000813       0.000000
      0.000062       0.000539       0.000000
      0.000074       0.000301       0.000000
      0.000062       0.000539       0.000000
     -0.000078       0.000712       0.000000
     -0.000081       0.000363       0.000000
      0.000062       0.000539       0.000000
     -0.000018       0.000813       0.000000
     -0.000164       0.001162       0.000000
     -0.000078       0.000712       0.000000
     -0.000143      -0.000219       0.000000
     -0.000129      -0.000097       0.000000
     -0.000299      -0.000110       0.000000
     -0.000301      -0.000245       0.000000
     -0.000129      -0.000097       0.000000
     -0.000117       0.000009       0.000000
     -0.000308       0.000006       0.000000
     -0.000299      -0.000110       0.000000
     -0.000301      -0.000245       0.000000
     -0.000299      -0.000110       0.000000
     -0.000454      -0.000109       0.000000
     -0.000452      -0.000247       0.000000
     -0.000299      -0.000110       0.000000
     -0.000308       0.000006       0.000000
     -0.000482       0.000019       0.000000
     -0.000454      -0.000109       0.000000
     -0.000117       0.000009       0.000000
     -0.000102       0.000145       0.000000
     -0.000327       0.000152       0.000000
     -0.000308       0.000006       0.000000
     -0.000102       0.000145       0.000000
     -0.000081       0.000363       0.000000
     -0.000344       0.000390       0.000000
     -0.000327       0.000152       0.000000
     -0.000308       0.000006       0.000000
     -0.000327       0.000152       0.000000
     -0.000557       0.000177       0.000000
     -0.000482       0.000019       0.000000
     -0.000327       0.000152       0.000000
     -0.000344       0.000390       0.000000
     -0.000687       0.000426       0.000000
     -0.000557       0.000177       0.000000
     -0.000081       0.000363       0.000000
     -0.000074       0.000520       0.000000
     -0.000191       0.000555       0.000000
     -0.000198       0.000380       0.000000
     -0.000074       0.000520       0.000000
     -0.000078       0.000712       0.000000
     -0.000188       0.000782       0.000000
     -0.000191       0.000555       0.000000
     -0.000198       0.000380       0.000000
     -0.000191       0.000555       0.000000
     -0.000347       0.000575       0.000000
     -0.000344       0.000390       0.000000
     -0.000191       0.000555       0.000000
     -0.000188       0.000782       0.000000
     -0.000343       0.000829       0.000000
     -0.000347       0.000575       0.000000
     -0.000078       0.000712       0.000000
     -0.000105       0.000933       0.000000
     -0.000206       0.001059       0.000000
     -0.000188       0.000782       0.000000
     -0.000105       0.000933       0.000000
     -0.000164       0.001162       0.000000
     -0.000267       0.001358       0.000000
     -0.000206       0.001059       0.000000
     -0.000188       0.000782       0.000000
     -0.000206       0.001059       0.000000
     -0.000347       0.001174       0.000000
     -0.000343       0.000829       0.000000
     -0.000206       0.001059       0.000000
     -0.000267       0.001358       0.000000
     -0.000404       0.001582       0.000000
     -0.000347       0.001174       0.000000
     -0.000344       0.000390       0.000000
     -0.000347       0.000575       0.000000
     -0.000548       0.000587       0.000000
     -0.000515       0.000401       0.000000
     -0.000347       0.000575       0.000000
     -0.000343       0.000829       0.000000
     -0.000572       0.000851       0.000000
     -0.000548       0.000587       0.000000
     -0.000515       0.000401       0.000000
     -0.000548       0.000587       0.000000
     -0.000775       0.000614       0.000000
     -0.000687       0.000426       0.000000
     -0.000548       0.000587       0.000000
     -0.000572       0.000851       0.000000
     -0.000879       0.000877       0.000000
     -0.000775       0.000614       0.000000
     -0.000343       0.000829       0.000000
     -0.000342       0.000990       0.000000
     -0.000444       0.001014       0.000000
     -0.000446       0.000842       0.000000
     -0.000342       0.000990       0.000000
     -0.000347       0.001174       0.000000
     -0.000443       0.001219       0.000000
     -0.000444       0.001014       0.000000
     -0.000446       0.000842       0.000000
     -0.000444       0.001014       0.000000
     -0.000575       0.001027       0.000000
     -0.000572       0.000851       0.000000
     -0.000444       0.001014       0.000000
     -0.000443       0.001219       0.000000
     -0.000572       0.001250       0.000000
     -0.000575       0.001027       0.000000
     -0.000347       0.001174       0.000000
     -0.000365       0.001376       0.000000
     -0.000454       0.001459       0.000000
     -0.000443       0.001219       0.000000
     -0.000365       0.001376       0.000000
     -0.000404       0.001582       0.000000
     -0.000493       0.001711       0.000000
     -0.000454       0.001459       0.000000
     -0.000443       0.001219       0.000000
     -0.000454       0.001459       0.000000
     -0.000571       0.001535       0.000000
     -0.000572       0.001250       0.000000
     -0.000454       0.001459       0.000000
     -0.000493       0.001711       0.000000
     -0.000605       0.001865       0.000000
     -0.000571       0.001535       0.000000
     -0.000572       0.000851       0.000000
     -0.000575       0.001027       0.000000
     -0.000744       0.001036       0.000000
     -0.000720       0.000859       0.000000
     -0.000575       0.001027       0.000000
     -0.000572       0.001250       0.000000
     -0.000757       0.001263       0.000000
     -0.000744       0.001036       0.000000
     -0.000720       0.000859       0.000000
     -0.000744       0.001036       0.000000
     -0.000939       0.001053       0.000000
     -0.000879       0.000877       0.000000
     -0.000744       0.001036       0.000000
     -0.000757       0.001263       0.000000
     -0.001008       0.001279       0.000000
     -0.000939       0.001053       0.000000
     -0.000572       0.001250       0.000000
     -0.000570       0.001385       0.000000
     -0.000652       0.001400       0.000000
     -0.000656       0.001259       0.000000
     -0.000570       0.001385       0.000000
     -0.000571       0.001535       0.000000
     -0.000648       0.001567       0.000000
     -0.000652       0.001400       0.000000
     -0.000656       0.001259       0.000000
     -0.000652       0.001400       0.000000
     -0.000756       0.001408       0.000000
     -0.000757       0.001263       0.000000
     -0.000652       0.001400       0.000000
     -0.000648       0.001567       0.000000
     -0.000749       0.001588       0.000000
     -0.000756       0.001408       0.000000
     -0.000571       0.001535       0.000000
     -0.000581       0.001699       0.000000
     -0.000652       0.001758       0.000000
     -0.000648       0.001567       0.000000
     -0.000581       0.001699       0.000000
     -0.000605       0.001865       0.000000
     -0.000676       0.001959       0.000000
     -0.000652       0.001758       0.000000
     -0.000648       0.001567       0.000000
     -0.000652       0.001758       0.000000
     -0.000742       0.001815       0.000000
     -0.000749       0.001588       0.000000
     -0.000652       0.001758       0.000000
     -0.000676       0.001959       0.000000
     -0.000764       0.002077       0.000000
     -0.000742       0.001815       0.000000
     -0.000757       0.001263       0.000000
     -0.000756       0.001408       0.000000
     -0.000890       0.001412       0.000000
     -0.000877       0.001268       0.000000
     -0.000756       0.001408       0.000000
     -0.000749       0.001588       0.000000
     -0.000895       0.001595       0.000000
     -0.000890       0.001412       0.000000
     -0.000877       0.001268       0.000000
     -0.000890       0.001412       0.000000
     -0.001047       0.001424       0.000000
     -0.001008       0.001279       0.000000
     -0.000890       0.001412       0.000000
     -0.000895       0.001595       0.000000
     -0.001094       0.001607       0.000000
     -0.001047       0.001424       0.000000
     -0.000749       0.001588       0.000000
     -0.000742       0.001815       0.000000
     -0.000879       0.001856       0.000000
     -0.000895       0.001595       0.000000
     -0.000742       0.001815       0.000000
     -0.000764       0.002077       0.000000
     -0.000889       0.002251       0.000000
     -0.000879       0.001856       0.000000
     -0.000895       0.001595       0.000000
     -0.000879       0.001856       0.000000
     -0.001157       0.001878       0.000000
     -0.001094       0.001607       0.000000
     -0.000879       0.001856       0.000000
     -0.000889       0.002251       0.000000
     -0.001232       0.002732       0.000000
     -0.001157       0.001878       0.000000
      0.000000       0.000000       0.000000
      0.000000       0.000000       0.000000
      0.000017       0.000295       0.000000
      0.000077       0.000236       0.000000
      0.000000       0.000000       0.000000
      0.000000       0.000000       0.000000
     -0.000062       0.000340       0.000000
      0.000017       0.000295       0.000000
      0.000077       0.000236       0.000000
      0.000017       0.000295       0.000000
     -0.000046       0.000643       0.000000
      0.000064       0.000507       0.000000
      0.000017       0.000295       0.000000
     -0.000062       0.000340       0.000000
     -0.000191       0.000744       0.000000
     -0.000046       0.000643       0.000000
      0.000000       0.000000       0.000000
      0.000000       0.000000       0.000000
     -0.000152       0.000375       0.000000
     -0.000062       0.000340       0.000000
      0.000000       0.000000       0.000000
      0.000000       0.000000       0.000000
     -0.000255       0.000414       0.000000
     -0.000152       0.000375       0.000000
     -0.000062       0.000340       0.000000
     -0.000152       0.000375       0.000000
     -0.000353       0.000817       0.000000
     -0.000191       0.000744       0.000000
     -0.000152       0.000375       0.000000
     -0.000255       0.000414       0.000000
     -0.000530       0.000893       0.000000
     -0.000353       0.000817       0.000000
      0.000000       0.000000       0.000000
      0.000000       0.000000       0.000000
     -0.000397       0.000497       0.000000
     -0.000255       0.000414       0.000000
      0.000000       0.000000       0.000000
      0.000000       0.000000       0.000000
     -0.000615       0.000750       0.000000
     -0.000397       0.000497       0.000000
     -0.000255       0.000414       0.000000
     -0.000397       0.000497       0.000000
     -0.000729       0.001021       0.000000
     -0.000530       0.000893       0.000000
     -0.000397       0.000497       0.000000
     -0.000615       0.000750       0.000000
     -0.000937       0.001247       0.000000
     -0.000729       0.001021       0.000000
      0.000064       0.000507       0.000000
     -0.000046       0.000643       0.000000
     -0.000175       0.001050       0.000000
     -0.000018       0.000813       0.000000
     -0.000046       0.000643       0.000000
     -0.000191       0.000744       0.000000
     -0.000372       0.001208       0.000000
     -0.000175       0.001050       0.000000
     -0.000018       0.000813       0.000000
     -0.000175       0.001050       0.000000
     -0.000369       0.001532       0.000000
     -0.000164       0.001162       0.000000
     -0.000175       0.001050       0.000000
     -0.000372       0.001208       0.000000
     -0.000600       0.001724       0.000000
     -0.000369       0.001532       0.000000
     -0.000191       0.000744       0.000000
     -0.000353       0.000817       0.000000
     -0.000579       0.001306       0.000000
     -0.000372       0.001208       0.000000
     -0.000353       0.000817       0.000000
     -0.000530       0.000893       0.000000
     -0.000784       0.001392       0.000000
     -0.000579       0.001306       0.000000
     -0.000372       0.001208       0.000000
     -0.000579       0.001306       0.000000
     -0.000808       0.001813       0.000000
     -0.000600       0.001724       0.000000
     -0.000579       0.001306       0.000000
     -0.000784       0.001392       0.000000
     -0.001004       0.001880       0.000000
     -0.000808       0.001813       0.000000
     -0.000530       0.000893       0.000000
     -0.000729       0.001021       0.000000
     -0.000989       0.001512       0.000000
     -0.000784       0.001392       0.000000
     -0.000729       0.001021       0.000000
     -0.000937       0.001247       0.000000
     -0.001182       0.001694       0.000000
     -0.000989       0.001512       0.000000
     -0.000784       0.001392       0.000000
     -0.000989       0.001512       0.000000
     -0.001195       0.001970       0.000000
     -0.001004       0.001880       0.000000
     -0.000989       0.001512       0.000000
     -0.001182       0.001694       0.000000
     -0.001374       0.002104       0.000000
     -0.001195       0.001970       0.000000
     -0.000600       0.001724       0.000000
     -0.000808       0.001813       0.000000
     -0.001002       0.002302       0.000000
     -0.000848       0.002256       0.000000
     -0.000808       0.001813       0.000000
     -0.001004       0.001880       0.000000
     -0.001165       0.002344       0.000000
     -0.001002       0.002302       0.000000
     -0.000848       0.002256       0.000000
     -0.001002       0.002302       0.000000
     -0.001091       0.002756       0.000000
     -0.000986       0.002738       0.000000
     -0.001002       0.002302       0.000000
     -0.001165       0.002344       0.000000
     -0.001234       0.002784       0.000000
     -0.001091       0.002756       0.000000
     -0.001004       0.001880       0.000000
     -0.001195       0.001970       0.000000
     -0.001338       0.002401       0.000000
     -0.001165       0.002344       0.000000
     -0.001195       0.001970       0.000000
     -0.001374       0.002104       0.000000
     -0.001505       0.002482       0.000000
     -0.001338       0.002401       0.000000
     -0.001165       0.002344       0.000000
     -0.001338       0.002401       0.000000
     -0.001399       0.002816       0.000000
     -0.001234       0.002784       0.000000
     -0.001338       0.002401       0.000000
     -0.001505       0.002482       0.000000
     -0.001564       0.002843       0.000000
     -0.001399       0.002816       0.000000
     -0.000164       0.001162       0.000000
     -0.000256       0.001368       0.000000
     -0.000375       0.001623       0.000000
     -0.000267       0.001358       0.000000
     -0.000256       0.001368       0.000000
     -0.000369       0.001532       0.000000
     -0.000501       0.001811       0.000000
     -0.000375       0.001623       0.000000
     -0.000267       0.001358       0.000000
     -0.000375       0.001623       0.000000
     -0.000533       0.001925       0.000000
     -0.000404       0.001582       0.000000
     -0.000375       0.001623       0.000000
     -0.000501       0.001811       0.000000
     -0.000664       0.002119       0.000000
     -0.000533       0.001925       0.000000
     -0.000369       0.001532       0.000000
     -0.000487       0.001647       0.000000
     -0.000621       0.001926       0.000000
     -0.000501       0.001811       0.000000
     -0.000487       0.001647       0.000000
     -0.000600       0.001724       0.000000
     -0.000727       0.001992       0.000000
     -0.000621       0.001926       0.000000
     -0.000501       0.001811       0.000000
     -0.000621       0.001926       0.000000
     -0.000766       0.002211       0.000000