# vtk DataFile Version 2.0
time_10.vtk
ASCII
DATASET UNSTRUCTURED_GRID
POINTS  1152 float
      0.000000       0.000000       0.000000
      0.083333       0.000000       0.000000
      0.083333       0.083333       0.000000
      0.000000       0.083333       0.000000
      0.083333       0.000000       0.000000
      0.166667       0.000000       0.000000
      0.166667       0.083333       0.000000
      0.083333       0.083333       0.000000
      0.000000       0.083333       0.000000
      0.083333       0.083333       0.000000
      0.083333       0.166667       0.000000
      0.000000       0.166667       0.000000
      0.083333       0.083333       0.000000
      0.166667       0.083333       0.000000
      0.166667       0.166667       0.000000
      0.083333       0.166667       0.000000
      0.166667       0.000000       0.000000
      0.250000       0.000000       0.000000
      0.250000       0.083333       0.000000
      0.166667       0.083333       0.000000
      0.250000       0.000000       0.000000
      0.333333       0.000000       0.000000
      0.333333       0.083333       0.000000
      0.250000       0.083333       0.000000
      0.166667       0.083333       0.000000
      0.250000       0.083333       0.000000
      0.250000       0.166667       0.000000
      0.166667       0.166667       0.000000
      0.250000       0.083333       0.000000
      0.333333       0.083333       0.000000
      0.333333       0.166667       0.000000
      0.250000       0.166667       0.000000
      0.333333       0.000000       0.000000
      0.416667       0.000000       0.000000
      0.416667       0.083333       0.000000
      0.333333       0.083333       0.000000
      0.416667       0.000000       0.000000
      0.500000       0.000000       0.000000
      0.500000       0.083333       0.000000
      0.416667       0.083333       0.000000
      0.333333       0.083333       0.000000
      0.416667       0.083333       0.000000
      0.416667       0.166667       0.000000
      0.333333       0.166667       0.000000
      0.416667       0.083333       0.000000
      0.500000       0.083333       0.000000
      0.500000       0.166667       0.000000
      0.416667       0.166667       0.000000
      0.000000       0.166667       0.000000
      0.083333       0.166667       0.000000
      0.083333       0.250000       0.000000
      0.000000       0.250000       0.000000
      0.083333       0.166667       0.000000
      0.166667       0.166667       0.000000
      0.166667       0.250000       0.000000
      0.083333       0.250000       0.000000
      0.000000       0.250000       0.000000
      0.083333       0.250000       0.000000
      0.083333       0.333333       0.000000
      0.000000       0.333333       0.000000
      0.083333       0.250000       0.000000
      0.166667       0.250000       0.000000
      0.166667       0.333333       0.000000
      0.083333       0.333333       0.000000
      0.166667       0.166667       0.000000
      0.250000       0.166667       0.000000
      0.250000       0.250000       0.000000
      0.166667       0.250000       0.000000
      0.250000       0.166667       0.000000
      0.333333       0.166667       0.000000
      0.333333       0.250000       0.000000
      0.250000       0.250000       0.000000
      0.166667       0.250000       0.000000
      0.250000       0.250000       0.000000
      0.250000       0.333333       0.000000
      0.166667       0.333333       0.000000
      0.250000       0.250000       0.000000
      0.333333       0.250000       0.000000
      0.333333       0.333333       0.000000
      0.250000       0.333333       0.000000
      0.333333       0.166667       0.000000
      0.416667       0.166667       0.000000
      0.416667       0.250000       0.000000
      0.333333       0.250000       0.000000
      0.416667       0.166667       0.000000
      0.500000       0.166667       0.000000
      0.500000       0.250000       0.000000
      0.416667       0.250000       0.000000
      0.333333       0.250000       0.000000
      0.416667       0.250000       0.000000
      0.416667       0.333333       0.000000
      0.333333       0.333333       0.000000
      0.416667       0.250000       0.000000
      0.500000       0.250000       0.000000
      0.500000       0.333333       0.000000
      0.416667       0.333333       0.000000
      0.000000       0.333333       0.000000
      0.083333       0.333333       0.000000
      0.083333       0.416667       0.000000
      0.000000       0.416667       0.000000
      0.083333       0.333333       0.000000
      0.166667       0.333333       0.000000
      0.166667       0.416667       0.000000
      0.083333       0.416667       0.000000
      0.000000       0.416667       0.000000
      0.083333       0.416667       0.000000
      0.083333       0.500000       0.000000
      0.000000       0.500000       0.000000
      0.083333       0.416667       0.000000
      0.166667       0.416667       0.000000
      0.166667       0.500000       0.000000
      0.083333       0.500000       0.000000
      0.166667       0.333333       0.000000
      0.250000       0.333333       0.000000
      0.250000       0.416667       0.000000
      0.166667       0.416667       0.000000
      0.250000       0.333333       0.000000
      0.333333       0.333333       0.000000
      0.333333       0.416667       0.000000
      0.250000       0.416667       0.000000
      0.166667       0.416667       0.000000
      0.250000       0.416667       0.000000
      0.250000       0.500000       0.000000
      0.166667       0.500000       0.000000
      0.250000       0.416667       0.000000
      0.333333       0.416667       0.000000
      0.333333       0.500000       0.000000
      0.250000       0.500000       0.000000
      0.333333       0.333333       0.000000
      0.375000       0.333333       0.000000
      0.375000       0.375000       0.000000
      0.333333       0.375000       0.000000
      0.375000       0.333333       0.000000
      0.416667       0.333333       0.000000
      0.416667       0.375000       0.000000
      0.375000       0.375000       0.000000
      0.333333       0.375000       0.000000
      0.375000       0.375000       0.000000
      0.375000       0.416667       0.000000
      0.333333       0.416667       0.000000
      0.375000       0.375000       0.000000
      0.416667       0.375000       0.000000
      0.416667       0.416667       0.000000
      0.375000       0.416667       0.000000
      0.416667       0.333333       0.000000
      0.458333       0.333333       0.000000
      0.458333       0.375000       0.000000
      0.416667       0.375000       0.000000
      0.458333       0.333333       0.000000
      0.500000       0.333333       0.000000
      0.500000       0.375000       0.000000
      0.458333       0.375000       0.000000
      0.416667       0.375000       0.000000
      0.458333       0.375000       0.000000
      0.458333       0.416667       0.000000
      0.416667       0.416667       0.000000
      0.458333       0.375000       0.000000
      0.500000       0.375000       0.000000
      0.500000       0.416667       0.000000
      0.458333       0.416667       0.000000
      0.333333       0.416667       0.000000
      0.375000       0.416667       0.000000
      0.375000       0.458333       0.000000
      0.333333       0.458333       0.000000
      0.375000       0.416667       0.000000
      0.416667       0.416667       0.000000
      0.416667       0.458333       0.000000
      0.375000       0.458333       0.000000
      0.333333       0.458333       0.000000
      0.375000       0.458333       0.000000
      0.375000       0.500000       0.000000
      0.333333       0.500000       0.000000
      0.375000       0.458333       0.000000
      0.416667       0.458333       0.000000
      0.416667       0.500000       0.000000
      0.375000       0.500000       0.000000
      0.416667       0.416667       0.000000
      0.437500       0.416667       0.000000
      0.437500       0.437500       0.000000
      0.416667       0.437500       0.000000
      0.437500       0.416667       0.000000
      0.458333       0.416667       0.000000
      0.458333       0.437500       0.000000
      0.437500       0.437500       0.000000
      0.416667       0.437500       0.000000
      0.437500       0.437500       0.000000
      0.437500       0.458333       0.000000
      0.416667       0.458333       0.000000
      0.437500       0.437500       0.000000
      0.458333       0.437500       0.000000
      0.458333       0.458333       0.000000
      0.437500       0.458333       0.000000
      0.458333       0.416667       0.000000
      0.479167       0.416667       0.000000
      0.479167       0.437500       0.000000
      0.458333       0.437500       0.000000
      0.479167       0.416667       0.000000
      0.500000       0.416667       0.000000
      0.500000       0.437500       0.000000
      0.479167       0.437500       0.000000
      0.458333       0.437500       0.000000
      0.479167       0.437500       0.000000
      0.479167       0.458333       0.000000
      0.458333       0.458333       0.000000
      0.479167       0.437500       0.000000
      0.500000       0.437500       0.000000
      0.500000       0.458333       0.000000
      0.479167       0.458333       0.000000
      0.416667       0.458333       0.000000
      0.437500       0.458333       0.000000
      0.437500       0.479167       0.000000
      0.416667       0.479167       0.000000
      0.437500       0.458333       0.000000
      0.458333       0.458333       0.000000
      0.458333       0.479167       0.000000
      0.437500       0.479167       0.000000
      0.416667       0.479167       0.000000
      0.437500       0.479167       0.000000
      0.437500       0.500000       0.000000
      0.416667       0.500000       0.000000
[...]
POINT_DATA  1152
VECTORS U float 
      0.000000       0.000000       0.000000
      0.000000       0.000000       0.000000
      0.000073      -0.000017       0.000000
      0.000053      -0.000019       0.000000
      0.000000       0.000000       0.000000
      0.000000       0.000000       0.000000
      0.000093       0.000014       0.000000
      0.000073      -0.000017       0.000000
      0.000053      -0.000019       0.000000
      0.000073      -0.000017       0.000000
      0.000078      -0.000044       0.000000
      0.000053      -0.000090       0.000000
      0.000073      -0.000017       0.000000
      0.000093       0.000014       0.000000
      0.000101       0.000017       0.000000
      0.000078      -0.000044       0.000000
      0.000000       0.000000       0.000000
      0.000000       0.000000       0.000000
      0.000111       0.000055       0.000000
      0.000093       0.000014       0.000000
      0.000000       0.000000       0.000000
      0.000000       0.000000       0.000000
      0.000122       0.000108       0.000000
      0.000111       0.000055       0.000000
      0.000093       0.000014       0.000000
      0.000111       0.000055       0.000000
      0.000126       0.000099       0.000000
      0.000101       0.000017       0.000000
      0.000111       0.000055       0.000000
      0.000122       0.000108       0.000000
      0.000141       0.000212       0.000000
      0.000126       0.000099       0.000000
      0.000000       0.000000       0.000000
      0.000000       0.000000       0.000000
      0.000114       0.000173       0.000000
      0.000122       0.000108       0.000000
      0.000000       0.000000       0.000000
      0.000000       0.000000       0.000000
      0.000080       0.000242       0.000000
      0.000114       0.000173       0.000000
      0.000122       0.000108       0.000000
      0.000114       0.000173       0.000000
      0.000127       0.000359       0.000000
      0.000141       0.000212       0.000000
      0.000114       0.000173       0.000000
      0.000080       0.000242       0.000000
      0.000066       0.000520       0.000000
      0.000127       0.000359       0.000000
      0.000053      -0.000090       0.000000
      0.000078      -0.000044       0.000000
      0.000003      -0.000076       0.000000
     -0.000021      -0.000168       0.000000
      0.000078      -0.000044       0.000000
      0.000101       0.000017       0.000000
      0.000024       0.000013       0.000000
      0.000003      -0.000076       0.000000
     -0.000021      -0.000168       0.000000
      0.000003      -0.000076       0.000000
     -0.000140      -0.000103       0.000000
     -0.000155      -0.000229       0.000000
      0.000003      -0.000076       0.000000
      0.000024       0.000013       0.000000
     -0.000128       0.000005       0.000000
     -0.000140      -0.000103       0.000000
      0.000101       0.000017       0.000000
      0.000126       0.000099       0.000000
      0.000050       0.000129       0.000000
      0.000024       0.000013       0.000000
      0.000126       0.000099       0.000000
      0.000141       0.000212       0.000000
      0.000071       0.000303       0.000000
      0.000050       0.000129       0.000000
      0.000024       0.000013       0.000000
      0.000050       0.000129       0.000000
     -0.000113       0.000144       0.000000
     -0.000128       0.000005       0.000000
      0.000050       0.000129       0.000000
      0.000071       0.000303       0.000000
     -0.000092       0.000366       0.000000
     -0.000113       0.000144       0.000000
      0.000141       0.000212       0.000000
      0.000127       0.000359       0.000000
      0.000060       0.000548       0.000000
      0.000071       0.000303       0.000000
      0.000127       0.000359       0.000000
      0.000066       0.000520       0.000000
     -0.000020       0.000832       0.000000
      0.000060       0.000548       0.000000
      0.000071       0.000303       0.000000
      0.000060       0.000548       0.000000
     -0.000088       0.000721       0.000000
     -0.000092       0.000366       0.000000
      0.000060       0.000548       0.000000
     -0.000020       0.000832       0.000000
     -0.000172       0.001186       0.000000
     -0.000088       0.000721       0.000000
     -0.000155      -0.000229       0.000000
     -0.000140      -0.000103       0.000000
     -0.000316      -0.000117       0.000000
     -0.000318      -0.000256       0.000000
     -0.000140      -0.000103       0.000000
     -0.000128       0.000005       0.000000
     -0.000325       0.000002       0.000000
     -0.000316      -0.000117       0.000000
     -0.000318      -0.000256       0.000000
     -0.000316      -0.000117       0.000000
     -0.000474      -0.000116       0.000000
     -0.000472      -0.000258       0.000000
     -0.000316      -0.000117       0.000000
     -0.000325       0.000002       0.000000
     -0.000503       0.000016       0.000000
     -0.000474      -0.000116       0.000000
     -0.000128       0.000005       0.000000
     -0.000113       0.000144       0.000000
     -0.000344       0.000151       0.000000
     -0.000325       0.000002       0.000000
     -0.000113       0.000144       0.000000
     -0.000092       0.000366       0.000000
     -0.000363       0.000393       0.000000
     -0.000344       0.000151       0.000000
     -0.000325       0.000002       0.000000
     -0.000344       0.000151       0.000000
     -0.000580       0.000177       0.000000
     -0.000503       0.000016       0.000000
     -0.000344       0.000151       0.000000
     -0.000363       0.000393       0.000000
     -0.000713       0.000430       0.000000
     -0.000580       0.000177       0.000000
     -0.000092       0.000366       0.000000
     -0.000084       0.000525       0.000000
     -0.000206       0.000560       0.000000
     -0.000213       0.000383       0.000000
     -0.000084       0.000525       0.000000
     -0.000088       0.000721       0.000000
     -0.000203       0.000790       0.000000
     -0.000206       0.000560       0.000000
     -0.000213       0.000383       0.000000
     -0.000206       0.000560       0.000000
     -0.000367       0.000580       0.000000
     -0.000363       0.000393       0.000000
     -0.000206       0.000560       0.000000
     -0.000203       0.000790       0.000000
     -0.000364       0.000837       0.000000
     -0.000367       0.000580       0.000000
     -0.000088       0.000721       0.000000
     -0.000114       0.000949       0.000000
     -0.000220       0.001074       0.000000
     -0.000203       0.000790       0.000000
     -0.000114       0.000949       0.000000
     -0.000172       0.001186       0.000000
     -0.000280       0.001384       0.000000
     -0.000220       0.001074       0.000000
     -0.000203       0.000790       0.000000
     -0.000220       0.001074       0.000000
     -0.000368       0.001186       0.000000
     -0.000364       0.000837       0.000000
     -0.000220       0.001074       0.000000
     -0.000280       0.001384       0.000000
     -0.000424       0.001607       0.000000
     -0.000368       0.001186       0.000000
     -0.000363       0.000393       0.000000
     -0.000367       0.000580       0.000000
     -0.000573       0.000593       0.000000
     -0.000538       0.000404       0.000000
     -0.000367       0.000580       0.000000
     -0.000364       0.000837       0.000000
     -0.000599       0.000859       0.000000
     -0.000573       0.000593       0.000000
     -0.000538       0.000404       0.000000
     -0.000573       0.000593       0.000000
     -0.000803       0.000621       0.000000
     -0.000713       0.000430       0.000000
     -0.000573       0.000593       0.000000
     -0.000599       0.000859       0.000000
     -0.000910       0.000887       0.000000
     -0.000803       0.000621       0.000000
     -0.000364       0.000837       0.000000
     -0.000364       0.001000       0.000000
     -0.000470       0.001023       0.000000
     -0.000471       0.000850       0.000000
     -0.000364       0.001000       0.000000
     -0.000368       0.001186       0.000000
     -0.000469       0.001231       0.000000
     -0.000470       0.001023       0.000000
     -0.000471       0.000850       0.000000
     -0.000470       0.001023       0.000000
     -0.000604       0.001037       0.000000
     -0.000599       0.000859       0.000000
     -0.000470       0.001023       0.000000
     -0.000469       0.001231       0.000000
     -0.000603       0.001261       0.000000
     -0.000604       0.001037       0.000000
     -0.000368       0.001186       0.000000
     -0.000386       0.001393       0.000000
     -0.000480       0.001473       0.000000
     -0.000469       0.001231       0.000000
     -0.000386       0.001393       0.000000
     -0.000424       0.001607       0.000000
     -0.000517       0.001734       0.000000
     -0.000480       0.001473       0.000000
     -0.000469       0.001231       0.000000
     -0.000480       0.001473       0.000000
     -0.000602       0.001547       0.000000
     -0.000603       0.001261       0.000000
     -0.000480       0.001473       0.000000
     -0.000517       0.001734       0.000000
     -0.000635       0.001884       0.000000
     -0.000602       0.001547       0.000000
     -0.000599       0.000859       0.000000
     -0.000604       0.001037       0.000000
     -0.000775       0.001046       0.000000
     -0.000750       0.000869       0.000000
     -0.000604       0.001037       0.000000
     -0.000603       0.001261       0.000000
     -0.000790       0.001274       0.000000
     -0.000775       0.001046       0.000000
     -0.000750       0.000869       0.000000
     -0.000775       0.001046       0.000000
     -0.000971       0.001064       0.000000
     -0.000910       0.000887       0.000000
     -0.000775       0.001046       0.000000
     -0.000790       0.001274       0.000000
     -0.001041       0.001291       0.000000
     -0.000971       0.001064       0.000000
     -0.000603       0.001261       0.000000
     -0.000601       0.001395       0.000000
     -0.000685       0.001410       0.000000
     -0.000688       0.001269       0.000000
     -0.000601       0.001395       0.000000
     -0.000602       0.001547       0.000000
     -0.000682       0.001576       0.000000
     -0.000685       0.001410       0.000000
     -0.000688       0.001269       0.000000
     -0.000685       0.001410       0.000000
     -0.000791       0.001418       0.000000
     -0.000790       0.001274       0.000000
     -0.000685       0.001410       0.000000
     -0.000682       0.001576       0.000000
     -0.000785       0.001596       0.000000
     -0.000791       0.001418       0.000000
     -0.000602       0.001547       0.000000
     -0.000612       0.001713       0.000000
     -0.000686       0.001769       0.000000
     -0.000682       0.001576       0.000000
     -0.000612       0.001713       0.000000
     -0.000635       0.001884       0.000000
     -0.000708       0.001976       0.000000
     -0.000686       0.001769       0.000000
     -0.000682       0.001576       0.000000
     -0.000686       0.001769       0.000000
     -0.000779       0.001824       0.000000
     -0.000785       0.001596       0.000000
     -0.000686       0.001769       0.000000
     -0.000708       0.001976       0.000000
     -0.000799       0.002093       0.000000
     -0.000779       0.001824       0.000000
     -0.000790       0.001274       0.000000
     -0.000791       0.001418       0.000000
     -0.000925       0.001423       0.000000
     -0.000911       0.001279       0.000000
     -0.000791       0.001418       0.000000
     -0.000785       0.001596       0.000000
     -0.000931       0.001604       0.000000
     -0.000925       0.001423       0.000000
     -0.000911       0.001279       0.000000
     -0.000925       0.001423       0.000000
     -0.001081       0.001435       0.000000
     -0.001041       0.001291       0.000000
     -0.000925       0.001423       0.000000
     -0.000931       0.001604       0.000000
     -0.001130       0.001617       0.000000
     -0.001081       0.001435       0.000000
     -0.000785       0.001596       0.000000
     -0.000779       0.001824       0.000000
     -0.000918       0.001864       0.000000
     -0.000931       0.001604       0.000000
     -0.000779       0.001824       0.000000
     -0.000799       0.002093       0.000000
     -0.000928       0.002275       0.000000
     -0.000918       0.001864       0.000000
     -0.000931       0.001604       0.000000
     -0.000918       0.001864       0.000000
     -0.001198       0.001890       0.000000
     -0.001130       0.001617       0.000000
     -0.000918       0.001864       0.000000
     -0.000928       0.002275       0.000000
     -0.001313       0.002859       0.000000
     -0.001198       0.001890       0.000000
      0.000000       0.000000       0.000000
      0.000000       0.000000       0.000000
      0.000019       0.000304       0.000000
      0.000080       0.000242       0.000000
      0.000000       0.000000       0.000000
      0.000000       0.000000       0.000000
     -0.000063       0.000352       0.000000
      0.000019       0.000304       0.000000
      0.000080       0.000242       0.000000
      0.000019       0.000304       0.000000
     -0.000047       0.000663       0.000000
      0.000066       0.000520       0.000000
      0.000019       0.000304       0.000000
     -0.000063       0.000352       0.000000
     -0.000196       0.000771       0.000000
     -0.000047       0.000663       0.000000
      0.000000       0.000000       0.000000
      0.000000       0.000000       0.000000
     -0.000156       0.000389       0.000000
     -0.000063       0.000352       0.000000
      0.000000       0.000000       0.000000
      0.000000       0.000000       0.000000
     -0.000265       0.000432       0.000000
     -0.000156       0.000389       0.000000
     -0.000063       0.000352       0.000000
     -0.000156       0.000389       0.000000
     -0.000366       0.000851       0.000000
     -0.000196       0.000771       0.000000
     -0.000156       0.000389       0.000000
     -0.000265       0.000432       0.000000
     -0.000553       0.000934       0.000000
     -0.000366       0.000851       0.000000
      0.000000       0.000000       0.000000
      0.000000       0.000000       0.000000
     -0.000415       0.000521       0.000000
     -0.000265       0.000432       0.000000
      0.000000       0.000000       0.000000
      0.000000       0.000000       0.000000
     -0.000643       0.000788       0.000000
     -0.000415       0.000521       0.000000
     -0.000265       0.000432       0.000000
     -0.000415       0.000521       0.000000
     -0.000762       0.001071       0.000000
     -0.000553       0.000934       0.000000
     -0.000415       0.000521       0.000000
     -0.000643       0.000788       0.000000
     -0.000980       0.001309       0.000000
     -0.000762       0.001071       0.000000
      0.000066       0.000520       0.000000
     -0.000047       0.000663       0.000000
     -0.000180       0.001083       0.000000
     -0.000020       0.000832       0.000000
     -0.000047       0.000663       0.000000
     -0.000196       0.000771       0.000000
     -0.000387       0.001254       0.000000
     -0.000180       0.001083       0.000000
     -0.000020       0.000832       0.000000
     -0.000180       0.001083       0.000000
     -0.000383       0.001582       0.000000
     -0.000172       0.001186       0.000000
     -0.000180       0.001083       0.000000
     -0.000387       0.001254       0.000000
     -0.000627       0.001794       0.000000
     -0.000383       0.001582       0.000000
     -0.000196       0.000771       0.000000
     -0.000366       0.000851       0.000000
     -0.000604       0.001362       0.000000
     -0.000387       0.001254       0.000000
     -0.000366       0.000851       0.000000
     -0.000553       0.000934       0.000000
     -0.000820       0.001456       0.000000
     -0.000604       0.001362       0.000000
     -0.000387       0.001254       0.000000
     -0.000604       0.001362       0.000000
     -0.000847       0.001894       0.000000
     -0.000627       0.001794       0.000000
     -0.000604       0.001362       0.000000
     -0.000820       0.001456       0.000000
     -0.001053       0.001968       0.000000
     -0.000847       0.001894       0.000000
     -0.000553       0.000934       0.000000
     -0.000762       0.001071       0.000000
     -0.001035       0.001584       0.000000
     -0.000820       0.001456       0.000000
     -0.000762       0.001071       0.000000
     -0.000980       0.001309       0.000000
     -0.001237       0.001777       0.000000
     -0.001035       0.001584       0.000000
     -0.000820       0.001456       0.000000
     -0.001035       0.001584       0.000000
     -0.001253       0.002063       0.000000
     -0.001053       0.001968       0.000000
     -0.001035       0.001584       0.000000
     -0.001237       0.001777       0.000000
     -0.001440       0.002205       0.000000
     -0.001253       0.002063       0.000000
     -0.000627       0.001794       0.000000
     -0.000847       0.001894       0.000000
     -0.001054       0.002408       0.000000
     -0.000892       0.002356       0.000000
     -0.000847       0.001894       0.000000
     -0.001053       0.001968       0.000000
     -0.001224       0.002452       0.000000
     -0.001054       0.002408       0.000000
     -0.000892       0.002356       0.000000
     -0.001054       0.002408       0.000000
     -0.001149       0.002884       0.000000
     -0.001041       0.002864       0.000000
     -0.001054       0.002408       0.000000
     -0.001224       0.002452       0.000000
     -0.001298       0.002913       0.000000
     -0.001149       0.002884       0.000000
     -0.001053       0.001968       0.000000
     -0.001253       0.002063       0.000000
     -0.001404       0.002513       0.000000
     -0.001224       0.002452       0.000000
     -0.001253       0.002063       0.000000
     -0.001440       0.002205       0.000000
     -0.001579       0.002598       0.000000
     -0.001404       0.002513       0.000000
     -0.001224       0.002452       0.000000
     -0.001404       0.002513       0.000000
     -0.001470       0.002946       0.000000
     -0.001298       0.002913       0.000000
     -0.001404       0.002513       0.000000
     -0.001579       0.002598       0.000000
     -0.001641       0.002973       0.000000
     -0.001470       0.002946       0.000000
     -0.000172       0.001186       0.000000
     -0.000266       0.001405       0.000000
     -0.000389       0.001665       0.000000
     -0.000280       0.001384       0.000000
     -0.000266       0.001405       0.000000
     -0.000383       0.001582       0.000000
     -0.000521       0.001872       0.000000
     -0.000389       0.001665       0.000000
     -0.000280       0.001384       0.000000
     -0.000389       0.001665       0.000000
     -0.000554       0.001977       0.000000
     -0.000424       0.001607       0.000000
     -0.000389       0.001665       0.000000
     -0.000521       0.001872       0.000000
     -0.000694       0.002197       0.000000
     -0.000554       0.001977       0.000000
     -0.000383       0.001582       0.000000
     -0.000507       0.001709       0.000000
     -0.000648       0.002002       0.000000
     -0.000521       0.001872       0.000000
     -0.000507       0.001709       0.000000
     -0.000627       0.001794       0.000000
     -0.000761       0.002077       0.000000
     -0.000648       0.002002       0.000000
     -0.000521       0.001872       0.000000
     -0.000648       0.002002       0.000000
     -0.000803       0.002303       0.000000