# vtk DataFile Version 2.0
time_10.vtk
ASCII
DATASET UNSTRUCTURED_GRID
POINTS  1152 float
      0.000000       0.000000       0.000000
      0.083333       0.000000       0.000000
      0.083333       0.083333       0.000000
      0.000000       0.083333       0.000000
      0.083333       0.000000       0.000000
      0.166667       0.000000       0.000000
      0.166667       0.083333       0.000000
      0.083333       0.083333       0.000000
      0.000000       0.083333       0.000000
      0.083333       0.083333       0.000000
      0.083333       0.166667       0.000000
      0.000000       0.166667       0.000000
      0.083333       0.083333       0.000000
      0.166667       0.083333       0.000000
      0.166667       0.166667       0.000000
      0.083333       0.166667       0.000000
      0.166667       0.000000       0.000000
      0.250000       0.000000       0.000000
      0.250000       0.083333       0.000000
      0.166667       0.083333       0.000000
      0.250000       0.000000       0.000000
      0.333333       0.000000       0.000000
      0.333333       0.083333       0.000000
      0.250000       0.083333       0.000000
      0.166667       0.083333       0.000000
      0.250000       0.083333       0.000000
      0.250000       0.166667       0.000000
      0.166667       0.166667       0.000000
      0.250000       0.083333       0.000000
      0.333333       0.083333       0.000000
      0.333333       0.166667       0.000000
      0.250000       0.166667       0.000000
      0.333333       0.000000       0.000000
      0.416667       0.000000       0.000000
      0.416667       0.083333       0.000000
      0.333333       0.083333       0.000000
      0.416667       0.000000       0.000000
      0.500000       0.000000       0.000000
      0.500000       0.083333       0.000000
      0.416667       0.083333       0.000000
      0.333333       0.083333       0.000000
      0.416667       0.083333       0.000000
      0.416667       0.166667       0.000000
      0.333333       0.166667       0.000000
      0.416667       0.083333       0.000000
      0.500000       0.083333       0.000000
      0.500000       0.166667       0.000000
      0.416667       0.166667       0.000000
      0.000000       0.166667       0.000000
      0.083333       0.166667       0.000000
      0.083333       0.250000       0.000000
      0.000000       0.250000       0.000000
      0.083333       0.166667       0.000000
      0.166667       0.166667       0.000000
      0.166667       0.250000       0.000000
      0.083333       0.250000       0.000000
      0.000000       0.250000       0.000000
      0.083333       0.250000       0.000000
      0.083333       0.333333       0.000000
      0.000000       0.333333       0.000000
      0.083333       0.250000       0.000000
      0.166667       0.250000       0.000000
      0.166667       0.333333       0.000000
      0.083333       0.333333       0.000000
      0.166667       0.166667       0.000000
      0.250000       0.166667       0.000000
      0.250000       0.250000       0.000000
      0.166667       0.250000       0.000000
      0.250000       0.166667       0.000000
      0.333333       0.166667       0.000000
      0.333333       0.250000       0.000000
      0.250000       0.250000       0.000000
      0.166667       0.250000       0.000000
      0.250000       0.250000       0.000000
      0.250000       0.333333       0.000000
      0.166667       0.333333       0.000000
      0.250000       0.250000       0.000000
      0.333333       0.250000       0.000000
      0.333333       0.333333       0.000000
      0.250000       0.333333       0.000000
      0.333333       0.166667       0.000000
      0.416667       0.166667       0.000000
      0.416667       0.250000       0.000000
      0.333333       0.250000       0.000000
      0.416667       0.166667       0.000000
      0.500000       0.166667       0.000000
      0.500000       0.250000       0.000000
      0.416667       0.250000       0.000000
      0.333333       0.250000       0.000000
      0.416667       0.250000       0.000000
      0.416667       0.333333       0.000000
      0.333333       0.333333       0.000000
      0.416667       0.250000       0.000000
      0.500000       0.250000       0.000000
      0.500000       0.333333       0.000000
      0.416667       0.333333       0.000000
      0.000000       0.333333       0.000000
      0.083333       0.333333       0.000000
      0.083333       0.416667       0.000000
      0.000000       0.416667       0.000000
      0.083333       0.333333       0.000000
      0.166667       0.333333       0.000000
      0.166667       0.416667       0.000000
      0.083333       0.416667       0.000000
      0.000000       0.416667       0.000000
      0.083333       0.416667       0.000000
      0.083333       0.500000       0.000000
      0.000000       0.500000       0.000000
      0.083333       0.416667       0.000000
      0.166667       0.416667       0.000000
      0.166667       0.500000       0.000000
      0.083333       0.500000       0.000000
      0.166667       0.333333       0.000000
      0.250000       0.333333       0.000000
      0.250000       0.416667       0.000000
      0.166667       0.416667       0.000000
      0.250000       0.333333       0.000000
      0.333333       0.333333       0.000000
      0.333333       0.416667       0.000000
      0.250000       0.416667       0.000000
      0.166667       0.416667       0.000000
      0.250000       0.416667       0.000000
      0.250000       0.500000       0.000000
      0.166667       0.500000       0.000000
      0.250000       0.416667       0.000000
      0.333333       0.416667       0.000000
      0.333333       0.500000       0.000000
      0.250000       0.500000       0.000000
      0.333333       0.333333       0.000000
      0.375000       0.333333       0.000000
      0.375000       0.375000       0.000000
      0.333333       0.375000       0.000000
      0.375000       0.333333       0.000000
      0.416667       0.333333       0.000000
      0.416667       0.375000       0.000000
      0.375000       0.375000       0.000000
      0.333333       0.375000       0.000000
      0.375000       0.375000       0.000000
      0.375000       0.416667       0.000000
      0.333333       0.416667       0.000000
      0.375000       0.375000       0.000000
      0.416667       0.375000       0.000000
      0.416667       0.416667       0.000000
      0.375000       0.416667       0.000000
      0.416667       0.333333       0.000000
      0.458333       0.333333       0.000000
      0.458333       0.375000       0.000000
      0.416667       0.375000       0.000000
      0.458333       0.333333       0.000000
      0.500000       0.333333       0.000000
      0.500000       0.375000       0.000000
      0.458333       0.375000       0.000000
      0.416667       0.375000       0.000000
      0.458333       0.375000       0.000000
      0.458333       0.416667       0.000000
      0.416667       0.416667       0.000000
      0.458333       0.375000       0.000000
      0.500000       0.375000       0.000000
      0.500000       0.416667       0.000000
      0.458333       0.416667       0.000000
      0.333333       0.416667       0.000000
      0.375000       0.416667       0.000000
      0.375000       0.458333       0.000000
      0.333333       0.458333       0.000000
      0.375000       0.416667       0.000000
      0.416667       0.416667       0.000000
      0.416667       0.458333       0.000000
      0.375000       0.458333       0.000000
      0.333333       0.458333       0.000000
      0.375000       0.458333       0.000000
      0.375000       0.500000       0.000000
      0.333333       0.500000       0.000000
      0.375000       0.458333       0.000000
      0.416667       0.458333       0.000000
      0.416667       0.500000       0.000000
      0.375000       0.500000       0.000000
      0.416667       0.416667       0.000000
      0.437500       0.416667       0.000000
      0.437500       0.437500       0.000000
      0.416667       0.437500       0.000000
      0.437500       0.416667       0.000000
      0.458333       0.416667       0.000000
      0.458333       0.437500       0.000000
      0.437500       0.437500       0.000000
      0.416667       0.437500       0.000000
      0.437500       0.437500       0.000000
      0.437500       0.458333       0.000000
      0.416667       0.458333       0.000000
      0.437500       0.437500       0.000000
      0.458333       0.437500       0.000000
      0.458333       0.458333       0.000000
      0.437500       0.458333       0.000000
      0.458333       0.416667       0.000000
      0.479167       0.416667       0.000000
      0.479167       0.437500       0.000000
      0.458333       0.437500       0.000000
      0.479167       0.416667       0.000000
      0.500000       0.416667       0.000000
      0.500000       0.437500       0.000000
      0.479167       0.437500       0.000000
      0.458333       0.437500       0.000000
      0.479167       0.437500       0.000000
      0.479167       0.458333       0.000000
      0.458333       0.458333       0.000000
      0.479167       0.437500       0.000000
      0.500000       0.437500       0.000000
      0.500000       0.458333       0.000000
      0.479167       0.458333       0.000000
      0.416667       0.458333       0.000000
      0.437500       0.458333       0.000000
      0.437500       0.479167       0.000000
      0.416667       0.479167       0.000000
      0.437500       0.458333       0.000000
      0.458333       0.458333       0.000000
      0.458333       0.479167       0.000000
      0.437500       0.479167       0.000000
      0.416667       0.479167       0.000000
      0.437500       0.479167       0.000000
      0.437500       0.500000       0.000000
      0.416667       0.500000       0.000000
[...]
POINT_DATA  1152
VECTORS U float 
      0.000000       0.000000       0.000000
      0.000000       0.000000       0.000000
      0.000073      -0.000016       0.000000
      0.000053      -0.000018       0.000000
      0.000000       0.000000       0.000000
      0.000000       0.000000       0.000000
      0.000093       0.000014       0.000000
      0.000073      -0.000016       0.000000
      0.000053      -0.000018       0.000000
      0.000073      -0.000016       0.000000
      0.000079      -0.000043       0.000000
      0.000054      -0.000088       0.000000
      0.000073      -0.000016       0.000000
      0.000093       0.000014       0.000000
      0.000102       0.000017       0.000000
      0.000079      -0.000043       0.000000
      0.000000       0.000000       0.000000
      0.000000       0.000000       0.000000
      0.000111       0.000055       0.000000
      0.000093       0.000014       0.000000
      0.000000       0.000000       0.000000
      0.000000       0.000000       0.000000
      0.000121       0.000108       0.000000
      0.000111       0.000055       0.000000
      0.000093       0.000014       0.000000
      0.000111       0.000055       0.000000
      0.000126       0.000099       0.000000
      0.000102       0.000017       0.000000
      0.000111       0.000055       0.000000
      0.000121       0.000108       0.000000
      0.000141       0.000212       0.000000
      0.000126       0.000099       0.000000
      0.000000       0.000000       0.000000
      0.000000       0.000000       0.000000
      0.000114       0.000173       0.000000
      0.000121       0.000108       0.000000
      0.000000       0.000000       0.000000
      0.000000       0.000000       0.000000
      0.000079       0.000241       0.000000
      0.000114       0.000173       0.000000
      0.000121       0.000108       0.000000
      0.000114       0.000173       0.000000
      0.000127       0.000358       0.000000
      0.000141       0.000212       0.000000
      0.000114       0.000173       0.000000
      0.000079       0.000241       0.000000
      0.000065       0.000517       0.000000
      0.000127       0.000358       0.000000
      0.000054      -0.000088       0.000000
      0.000079      -0.000043       0.000000
      0.000005      -0.000074       0.000000
     -0.000019      -0.000166       0.000000
      0.000079      -0.000043       0.000000
      0.000102       0.000017       0.000000
      0.000026       0.000014       0.000000
      0.000005      -0.000074       0.000000
     -0.000019      -0.000166       0.000000
      0.000005      -0.000074       0.000000
     -0.000137      -0.000101       0.000000
     -0.000152      -0.000226       0.000000
      0.000005      -0.000074       0.000000
      0.000026       0.000014       0.000000
     -0.000125       0.000006       0.000000
     -0.000137      -0.000101       0.000000
      0.000102       0.000017       0.000000
      0.000126       0.000099       0.000000
      0.000051       0.000130       0.000000
      0.000026       0.000014       0.000000
      0.000126       0.000099       0.000000
      0.000141       0.000212       0.000000
      0.000072       0.000303       0.000000
      0.000051       0.000130       0.000000
      0.000026       0.000014       0.000000
      0.000051       0.000130       0.000000
     -0.000110       0.000145       0.000000
     -0.000125       0.000006       0.000000
      0.000051       0.000130       0.000000
      0.000072       0.000303       0.000000
     -0.000089       0.000366       0.000000
     -0.000110       0.000145       0.000000
      0.000141       0.000212       0.000000
      0.000127       0.000358       0.000000
      0.000061       0.000547       0.000000
      0.000072       0.000303       0.000000
      0.000127       0.000358       0.000000
      0.000065       0.000517       0.000000
     -0.000020       0.000829       0.000000
      0.000061       0.000547       0.000000
      0.000072       0.000303       0.000000
      0.000061       0.000547       0.000000
     -0.000085       0.000721       0.000000
     -0.000089       0.000366       0.000000
      0.000061       0.000547       0.000000
     -0.000020       0.000829       0.000000
     -0.000171       0.001183       0.000000
     -0.000085       0.000721       0.000000
     -0.000152      -0.000226       0.000000
     -0.000137      -0.000101       0.000000
     -0.000312      -0.000115       0.000000
     -0.000314      -0.000253       0.000000
     -0.000137      -0.000101       0.000000
     -0.000125       0.000006       0.000000
     -0.000321       0.000004       0.000000
     -0.000312      -0.000115       0.000000
     -0.000314      -0.000253       0.000000
     -0.000312      -0.000115       0.000000
     -0.000470      -0.000114       0.000000
     -0.000468      -0.000255       0.000000
     -0.000312      -0.000115       0.000000
     -0.000321       0.000004       0.000000
     -0.000498       0.000017       0.000000
     -0.000470      -0.000114       0.000000
     -0.000125       0.000006       0.000000
     -0.000110       0.000145       0.000000
     -0.000340       0.000152       0.000000
     -0.000321       0.000004       0.000000
     -0.000110       0.000145       0.000000
     -0.000089       0.000366       0.000000
     -0.000359       0.000393       0.000000
     -0.000340       0.000152       0.000000
     -0.000321       0.000004       0.000000
     -0.000340       0.000152       0.000000
     -0.000575       0.000178       0.000000
     -0.000498       0.000017       0.000000
     -0.000340       0.000152       0.000000
     -0.000359       0.000393       0.000000
     -0.000708       0.000430       0.000000
     -0.000575       0.000178       0.000000
     -0.000089       0.000366       0.000000
     -0.000082       0.000525       0.000000
     -0.000202       0.000560       0.000000
     -0.000209       0.000383       0.000000
     -0.000082       0.000525       0.000000
     -0.000085       0.000721       0.000000
     -0.000199       0.000791       0.000000
     -0.000202       0.000560       0.000000
     -0.000209       0.000383       0.000000
     -0.000202       0.000560       0.000000
     -0.000362       0.000580       0.000000
     -0.000359       0.000393       0.000000
     -0.000202       0.000560       0.000000
     -0.000199       0.000791       0.000000
     -0.000359       0.000838       0.000000
     -0.000362       0.000580       0.000000
     -0.000085       0.000721       0.000000
     -0.000111       0.000947       0.000000
     -0.000217       0.001074       0.000000
     -0.000199       0.000791       0.000000
     -0.000111       0.000947       0.000000
     -0.000171       0.001183       0.000000
     -0.000278       0.001381       0.000000
     -0.000217       0.001074       0.000000
     -0.000199       0.000791       0.000000
     -0.000217       0.001074       0.000000
     -0.000363       0.001187       0.000000
     -0.000359       0.000838       0.000000
     -0.000217       0.001074       0.000000
     -0.000278       0.001381       0.000000
     -0.000419       0.001605       0.000000
     -0.000363       0.001187       0.000000
     -0.000359       0.000393       0.000000
     -0.000362       0.000580       0.000000
     -0.000568       0.000593       0.000000
     -0.000533       0.000405       0.000000
     -0.000362       0.000580       0.000000
     -0.000359       0.000838       0.000000
     -0.000593       0.000860       0.000000
     -0.000568       0.000593       0.000000
     -0.000533       0.000405       0.000000
     -0.000568       0.000593       0.000000
     -0.000797       0.000621       0.000000
     -0.000708       0.000430       0.000000
     -0.000568       0.000593       0.000000
     -0.000593       0.000860       0.000000
     -0.000904       0.000887       0.000000
     -0.000797       0.000621       0.000000
     -0.000359       0.000838       0.000000
     -0.000358       0.001000       0.000000
     -0.000463       0.001024       0.000000
     -0.000465       0.000851       0.000000
     -0.000358       0.001000       0.000000
     -0.000363       0.001187       0.000000
     -0.000463       0.001232       0.000000
     -0.000463       0.001024       0.000000
     -0.000465       0.000851       0.000000
     -0.000463       0.001024       0.000000
     -0.000598       0.001038       0.000000
     -0.000593       0.000860       0.000000
     -0.000463       0.001024       0.000000
     -0.000463       0.001232       0.000000
     -0.000595       0.001262       0.000000
     -0.000598       0.001038       0.000000
     -0.000363       0.001187       0.000000
     -0.000381       0.001393       0.000000
     -0.000474       0.001474       0.000000
     -0.000463       0.001232       0.000000
     -0.000381       0.001393       0.000000
     -0.000419       0.001605       0.000000
     -0.000511       0.001734       0.000000
     -0.000474       0.001474       0.000000
     -0.000463       0.001232       0.000000
     -0.000474       0.001474       0.000000
     -0.000595       0.001549       0.000000
     -0.000595       0.001262       0.000000
     -0.000474       0.001474       0.000000
     -0.000511       0.001734       0.000000
     -0.000628       0.001886       0.000000
     -0.000595       0.001549       0.000000
     -0.000593       0.000860       0.000000
     -0.000598       0.001038       0.000000
     -0.000768       0.001047       0.000000
     -0.000743       0.000869       0.000000
     -0.000598       0.001038       0.000000
     -0.000595       0.001262       0.000000
     -0.000783       0.001275       0.000000
     -0.000768       0.001047       0.000000
     -0.000743       0.000869       0.000000
     -0.000768       0.001047       0.000000
     -0.000965       0.001065       0.000000
     -0.000904       0.000887       0.000000
     -0.000768       0.001047       0.000000
     -0.000783       0.001275       0.000000
     -0.001035       0.001292       0.000000
     -0.000965       0.001065       0.000000
     -0.000595       0.001262       0.000000
     -0.000593       0.001397       0.000000
     -0.000677       0.001413       0.000000
     -0.000681       0.001271       0.000000
     -0.000593       0.001397       0.000000
     -0.000595       0.001549       0.000000
     -0.000674       0.001580       0.000000
     -0.000677       0.001413       0.000000
     -0.000681       0.001271       0.000000
     -0.000677       0.001413       0.000000
     -0.000783       0.001421       0.000000
     -0.000783       0.001275       0.000000
     -0.000677       0.001413       0.000000
     -0.000674       0.001580       0.000000
     -0.000777       0.001600       0.000000
     -0.000783       0.001421       0.000000
     -0.000595       0.001549       0.000000
     -0.000604       0.001715       0.000000
     -0.000678       0.001773       0.000000
     -0.000674       0.001580       0.000000
     -0.000604       0.001715       0.000000
     -0.000628       0.001886       0.000000
     -0.000701       0.001979       0.000000
     -0.000678       0.001773       0.000000
     -0.000674       0.001580       0.000000
     -0.000678       0.001773       0.000000
     -0.000770       0.001829       0.000000
     -0.000777       0.001600       0.000000
     -0.000678       0.001773       0.000000
     -0.000701       0.001979       0.000000
     -0.000791       0.002098       0.000000
     -0.000770       0.001829       0.000000
     -0.000783       0.001275       0.000000
     -0.000783       0.001421       0.000000
     -0.000918       0.001425       0.000000
     -0.000904       0.001281       0.000000
     -0.000783       0.001421       0.000000
     -0.000777       0.001600       0.000000
     -0.000923       0.001608       0.000000
     -0.000918       0.001425       0.000000
     -0.000904       0.001281       0.000000
     -0.000918       0.001425       0.000000
     -0.001075       0.001437       0.000000
     -0.001035       0.001292       0.000000
     -0.000918       0.001425       0.000000
     -0.000923       0.001608       0.000000
     -0.001123       0.001620       0.000000
     -0.001075       0.001437       0.000000
     -0.000777       0.001600       0.000000
     -0.000770       0.001829       0.000000
     -0.000909       0.001870       0.000000
     -0.000923       0.001608       0.000000
     -0.000770       0.001829       0.000000
     -0.000791       0.002098       0.000000
     -0.000920       0.002279       0.000000
     -0.000909       0.001870       0.000000
     -0.000923       0.001608       0.000000
     -0.000909       0.001870       0.000000
     -0.001191       0.001895       0.000000
     -0.001123       0.001620       0.000000
     -0.000909       0.001870       0.000000
     -0.000920       0.002279       0.000000
     -0.001293       0.002830       0.000000
     -0.001191       0.001895       0.000000
      0.000000       0.000000       0.000000
      0.000000       0.000000       0.000000
      0.000018       0.000302       0.000000
      0.000079       0.000241       0.000000
      0.000000       0.000000       0.000000
      0.000000       0.000000       0.000000
     -0.000063       0.000349       0.000000
      0.000018       0.000302       0.000000
      0.000079       0.000241       0.000000
      0.000018       0.000302       0.000000
     -0.000047       0.000659       0.000000
      0.000065       0.000517       0.000000
      0.000018       0.000302       0.000000
     -0.000063       0.000349       0.000000
     -0.000196       0.000765       0.000000
     -0.000047       0.000659       0.000000
      0.000000       0.000000       0.000000
      0.000000       0.000000       0.000000
     -0.000156       0.000386       0.000000
     -0.000063       0.000349       0.000000
      0.000000       0.000000       0.000000
      0.000000       0.000000       0.000000
     -0.000263       0.000428       0.000000
     -0.000156       0.000386       0.000000
     -0.000063       0.000349       0.000000
     -0.000156       0.000386       0.000000
     -0.000364       0.000843       0.000000
     -0.000196       0.000765       0.000000
     -0.000156       0.000386       0.000000
     -0.000263       0.000428       0.000000
     -0.000548       0.000925       0.000000
     -0.000364       0.000843       0.000000
      0.000000       0.000000       0.000000
      0.000000       0.000000       0.000000
     -0.000411       0.000516       0.000000
     -0.000263       0.000428       0.000000
      0.000000       0.000000       0.000000
      0.000000       0.000000       0.000000
     -0.000637       0.000779       0.000000
     -0.000411       0.000516       0.000000
     -0.000263       0.000428       0.000000
     -0.000411       0.000516       0.000000
     -0.000755       0.001060       0.000000
     -0.000548       0.000925       0.000000
     -0.000411       0.000516       0.000000
     -0.000637       0.000779       0.000000
     -0.000970       0.001295       0.000000
     -0.000755       0.001060       0.000000
      0.000065       0.000517       0.000000
     -0.000047       0.000659       0.000000
     -0.000179       0.001077       0.000000
     -0.000020       0.000829       0.000000
     -0.000047       0.000659       0.000000
     -0.000196       0.000765       0.000000
     -0.000384       0.001244       0.000000
     -0.000179       0.001077       0.000000
     -0.000020       0.000829       0.000000
     -0.000179       0.001077       0.000000
     -0.000381       0.001572       0.000000
     -0.000171       0.001183       0.000000
     -0.000179       0.001077       0.000000
     -0.000384       0.001244       0.000000
     -0.000621       0.001779       0.000000
     -0.000381       0.001572       0.000000
     -0.000196       0.000765       0.000000
     -0.000364       0.000843       0.000000
     -0.000598       0.001350       0.000000
     -0.000384       0.001244       0.000000
     -0.000364       0.000843       0.000000
     -0.000548       0.000925       0.000000
     -0.000812       0.001442       0.000000
     -0.000598       0.001350       0.000000
     -0.000384       0.001244       0.000000
     -0.000598       0.001350       0.000000
     -0.000838       0.001875       0.000000
     -0.000621       0.001779       0.000000
     -0.000598       0.001350       0.000000
     -0.000812       0.001442       0.000000
     -0.001042       0.001948       0.000000
     -0.000838       0.001875       0.000000
     -0.000548       0.000925       0.000000
     -0.000755       0.001060       0.000000
     -0.001025       0.001568       0.000000
     -0.000812       0.001442       0.000000
     -0.000755       0.001060       0.000000
     -0.000970       0.001295       0.000000
     -0.001225       0.001758       0.000000
     -0.001025       0.001568       0.000000
     -0.000812       0.001442       0.000000
     -0.001025       0.001568       0.000000
     -0.001240       0.002041       0.000000
     -0.001042       0.001948       0.000000
     -0.001025       0.001568       0.000000
     -0.001225       0.001758       0.000000
     -0.001424       0.002182       0.000000
     -0.001240       0.002041       0.000000
     -0.000621       0.001779       0.000000
     -0.000838       0.001875       0.000000
     -0.001042       0.002383       0.000000
     -0.000882       0.002333       0.000000
     -0.000838       0.001875       0.000000
     -0.001042       0.001948       0.000000
     -0.001210       0.002427       0.000000
     -0.001042       0.002383       0.000000
     -0.000882       0.002333       0.000000
     -0.001042       0.002383       0.000000
     -0.001135       0.002854       0.000000
     -0.001028       0.002835       0.000000
     -0.001042       0.002383       0.000000
     -0.001210       0.002427       0.000000
     -0.001283       0.002883       0.000000
     -0.001135       0.002854       0.000000
     -0.001042       0.001948       0.000000
     -0.001240       0.002041       0.000000
     -0.001389       0.002487       0.000000
     -0.001210       0.002427       0.000000
     -0.001240       0.002041       0.000000
     -0.001424       0.002182       0.000000
     -0.001562       0.002571       0.000000
     -0.001389       0.002487       0.000000
     -0.001210       0.002427       0.000000
     -0.001389       0.002487       0.000000
     -0.001453       0.002916       0.000000
     -0.001283       0.002883       0.000000
     -0.001389       0.002487       0.000000
     -0.001562       0.002571       0.000000
     -0.001623       0.002943       0.000000
     -0.001453       0.002916       0.000000
     -0.000171       0.001183       0.000000
     -0.000264       0.001398       0.000000
     -0.000386       0.001658       0.000000
     -0.000278       0.001381       0.000000
     -0.000264       0.001398       0.000000
     -0.000381       0.001572       0.000000
     -0.000517       0.001860       0.000000
     -0.000386       0.001658       0.000000
     -0.000278       0.001381       0.000000
     -0.000386       0.001658       0.000000
     -0.000549       0.001968       0.000000
     -0.000419       0.001605       0.000000
     -0.000386       0.001658       0.000000
     -0.000517       0.001860       0.000000
     -0.000687       0.002181       0.000000
     -0.000549       0.001968       0.000000
     -0.000381       0.001572       0.000000
     -0.000503       0.001696       0.000000
     -0.000642       0.001985       0.000000
     -0.000517       0.001860       0.000000
     -0.000503       0.001696       0.000000
     -0.000621       0.001779       0.000000
     -0.000753       0.002058       0.000000
     -0.000642       0.001985       0.000000
     -0.000517       0.001860       0.000000
     -0.000642       0.001985       0.000000
     -0.000795       0.002283       0.000000