# vtk DataFile Version 2.0
time_10.vtk
ASCII
DATASET UNSTRUCTURED_GRID
POINTS  1152 float
      0.000000       0.000000       0.000000
      0.083333       0.000000       0.000000
      0.083333       0.083333       0.000000
      0.000000       0.083333       0.000000
      0.083333       0.000000       0.000000
      0.166667       0.000000       0.000000
      0.166667       0.083333       0.000000
      0.083333       0.083333       0.000000
      0.000000       0.083333       0.000000
      0.083333       0.083333       0.000000
      0.083333       0.166667       0.000000
      0.000000       0.166667       0.000000
      0.083333       0.083333       0.000000
      0.166667       0.083333       0.000000
      0.166667       0.166667       0.000000
      0.083333       0.166667       0.000000
      0.166667       0.000000       0.000000
      0.250000       0.000000       0.000000
      0.250000       0.083333       0.000000
      0.166667       0.083333       0.000000
      0.250000       0.000000       0.000000
      0.333333       0.000000       0.000000
      0.333333       0.083333       0.000000
      0.250000       0.083333       0.000000
      0.166667       0.083333       0.000000
      0.250000       0.083333       0.000000
      0.250000       0.166667       0.000000
      0.166667       0.166667       0.000000
      0.250000       0.083333       0.000000
      0.333333       0.083333       0.000000
      0.333333       0.166667       0.000000
      0.250000       0.166667       0.000000
      0.333333       0.000000       0.000000
      0.416667       0.000000       0.000000
      0.416667       0.083333       0.000000
      0.333333       0.083333       0.000000
      0.416667       0.000000       0.000000
      0.500000       0.000000       0.000000
      0.500000       0.083333       0.000000
      0.416667       0.083333       0.000000
      0.333333       0.083333       0.000000
      0.416667       0.083333       0.000000
      0.416667       0.166667       0.000000
      0.333333       0.166667       0.000000
      0.416667       0.083333       0.000000
      0.500000       0.083333       0.000000
      0.500000       0.166667       0.000000
      0.416667       0.166667       0.000000
      0.000000       0.166667       0.000000
      0.083333       0.166667       0.000000
      0.083333       0.250000       0.000000
      0.000000       0.250000       0.000000
      0.083333       0.166667       0.000000
      0.166667       0.166667       0.000000
      0.166667       0.250000       0.000000
      0.083333       0.250000       0.000000
      0.000000       0.250000       0.000000
      0.083333       0.250000       0.000000
      0.083333       0.333333       0.000000
      0.000000       0.333333       0.000000
      0.083333       0.250000       0.000000
      0.166667       0.250000       0.000000
      0.166667       0.333333       0.000000
      0.083333       0.333333       0.000000
      0.166667       0.166667       0.000000
      0.250000       0.166667       0.000000
      0.250000       0.250000       0.000000
      0.166667       0.250000       0.000000
      0.250000       0.166667       0.000000
      0.333333       0.166667       0.000000
      0.333333       0.250000       0.000000
      0.250000       0.250000       0.000000
      0.166667       0.250000       0.000000
      0.250000       0.250000       0.000000
      0.250000       0.333333       0.000000
      0.166667       0.333333       0.000000
      0.250000       0.250000       0.000000
      0.333333       0.250000       0.000000
      0.333333       0.333333       0.000000
      0.250000       0.333333       0.000000
      0.333333       0.166667       0.000000
      0.416667       0.166667       0.000000
      0.416667       0.250000       0.000000
      0.333333       0.250000       0.000000
      0.416667       0.166667       0.000000
      0.500000       0.166667       0.000000
      0.500000       0.250000       0.000000
      0.416667       0.250000       0.000000
      0.333333       0.250000       0.000000
      0.416667       0.250000       0.000000
      0.416667       0.333333       0.000000
      0.333333       0.333333       0.000000
      0.416667       0.250000       0.000000
      0.500000       0.250000       0.000000
      0.500000       0.333333       0.000000
      0.416667       0.333333       0.000000
      0.000000       0.333333       0.000000
      0.083333       0.333333       0.000000
      0.083333       0.416667       0.000000
      0.000000       0.416667       0.000000
      0.083333       0.333333       0.000000
      0.166667       0.333333       0.000000
      0.166667       0.416667       0.000000
      0.083333       0.416667       0.000000
      0.000000       0.416667       0.000000
      0.083333       0.416667       0.000000
      0.083333       0.500000       0.000000
      0.000000       0.500000       0.000000
      0.083333       0.416667       0.000000
      0.166667       0.416667       0.000000
      0.166667       0.500000       0.000000
      0.083333       0.500000       0.000000
      0.166667       0.333333       0.000000
      0.250000       0.333333       0.000000
      0.250000       0.416667       0.000000
      0.166667       0.416667       0.000000
      0.250000       0.333333       0.000000
      0.333333       0.333333       0.000000
      0.333333       0.416667       0.000000
      0.250000       0.416667       0.000000
      0.166667       0.416667       0.000000
      0.250000       0.416667       0.000000
      0.250000       0.500000       0.000000
      0.166667       0.500000       0.000000
      0.250000       0.416667       0.000000
      0.333333       0.416667       0.000000
      0.333333       0.500000       0.000000
      0.250000       0.500000       0.000000
      0.333333       0.333333       0.000000
      0.375000       0.333333       0.000000
      0.375000       0.375000       0.000000
      0.333333       0.375000       0.000000
      0.375000       0.333333       0.000000
      0.416667       0.333333       0.000000
      0.416667       0.375000       0.000000
      0.375000       0.375000       0.000000
      0.333333       0.375000       0.000000
      0.375000       0.375000       0.000000
      0.375000       0.416667       0.000000
      0.333333       0.416667       0.000000
      0.375000       0.375000       0.000000
      0.416667       0.375000       0.000000
      0.416667       0.416667       0.000000
      0.375000       0.416667       0.000000
      0.416667       0.333333       0.000000
      0.458333       0.333333       0.000000
      0.458333       0.375000       0.000000
      0.416667       0.375000       0.000000
      0.458333       0.333333       0.000000
      0.500000       0.333333       0.000000
      0.500000       0.375000       0.000000
      0.458333       0.375000       0.000000
      0.416667       0.375000       0.000000
      0.458333       0.375000       0.000000
      0.458333       0.416667       0.000000
      0.416667       0.416667       0.000000
      0.458333       0.375000       0.000000
      0.500000       0.375000       0.000000
      0.500000       0.416667       0.000000
      0.458333       0.416667       0.000000
      0.333333       0.416667       0.000000
      0.375000       0.416667       0.000000
      0.375000       0.458333       0.000000
      0.333333       0.458333       0.000000
      0.375000       0.416667       0.000000
      0.416667       0.416667       0.000000
      0.416667       0.458333       0.000000
      0.375000       0.458333       0.000000
      0.333333       0.458333       0.000000
      0.375000       0.458333       0.000000
      0.375000       0.500000       0.000000
      0.333333       0.500000       0.000000
      0.375000       0.458333       0.000000
      0.416667       0.458333       0.000000
      0.416667       0.500000       0.000000
      0.375000       0.500000       0.000000
      0.416667       0.416667       0.000000
      0.437500       0.416667       0.000000
      0.437500       0.437500       0.000000
      0.416667       0.437500       0.000000
      0.437500       0.416667       0.000000
      0.458333       0.416667       0.000000
      0.458333       0.437500       0.000000
      0.437500       0.437500       0.000000
      0.416667       0.437500       0.000000
      0.437500       0.437500       0.000000
      0.437500       0.458333       0.000000
      0.416667       0.458333       0.000000
      0.437500       0.437500       0.000000
      0.458333       0.437500       0.000000
      0.458333       0.458333       0.000000
      0.437500       0.458333       0.000000
      0.458333       0.416667       0.000000
      0.479167       0.416667       0.000000
      0.479167       0.437500       0.000000
      0.458333       0.437500       0.000000
      0.479167       0.416667       0.000000
      0.500000       0.416667       0.000000
      0.500000       0.437500       0.000000
      0.479167       0.437500       0.000000
      0.458333       0.437500       0.000000
      0.479167       0.437500       0.000000
      0.479167       0.458333       0.000000
      0.458333       0.458333       0.000000
      0.479167       0.437500       0.000000
      0.500000       0.437500       0.000000
      0.500000       0.458333       0.000000
      0.479167       0.458333       0.000000
      0.416667       0.458333       0.000000
      0.437500       0.458333       0.000000
      0.437500       0.479167       0.000000
      0.416667       0.479167       0.000000
      0.437500       0.458333       0.000000
      0.458333       0.458333       0.000000
      0.458333       0.479167       0.000000
      0.437500       0.479167       0.000000
      0.416667       0.479167       0.000000
      0.437500       0.479167       0.000000
      0.437500       0.500000       0.000000
      0.416667       0.500000       0.000000
[...]
POINT_DATA  1152
VECTORS U float 
      0.000000       0.000000       0.000000
      0.000000       0.000000       0.000000
      0.000073      -0.000015       0.000000
      0.000054      -0.000016       0.000000
      0.000000       0.000000       0.000000
      0.000000       0.000000       0.000000
      0.000093       0.000014       0.000000
      0.000073      -0.000015       0.000000
      0.000054      -0.000016       0.000000
      0.000073      -0.000015       0.000000
      0.000080      -0.000041       0.000000
      0.000056      -0.000085       0.000000
      0.000073      -0.000015       0.000000
      0.000093       0.000014       0.000000
      0.000103       0.000018       0.000000
      0.000080      -0.000041       0.000000
      0.000000       0.000000       0.000000
      0.000000       0.000000       0.000000
      0.000110       0.000055       0.000000
      0.000093       0.000014       0.000000
      0.000000       0.000000       0.000000
      0.000000       0.000000       0.000000
      0.000120       0.000107       0.000000
      0.000110       0.000055       0.000000
      0.000093       0.000014       0.000000
      0.000110       0.000055       0.000000
      0.000126       0.000099       0.000000
      0.000103       0.000018       0.000000
      0.000110       0.000055       0.000000
      0.000120       0.000107       0.000000
      0.000140       0.000211       0.000000
      0.000126       0.000099       0.000000
      0.000000       0.000000       0.000000
      0.000000       0.000000       0.000000
      0.000112       0.000171       0.000000
      0.000120       0.000107       0.000000
      0.000000       0.000000       0.000000
      0.000000       0.000000       0.000000
      0.000078       0.000237       0.000000
      0.000112       0.000171       0.000000
      0.000120       0.000107       0.000000
      0.000112       0.000171       0.000000
      0.000126       0.000354       0.000000
      0.000140       0.000211       0.000000
      0.000112       0.000171       0.000000
      0.000078       0.000237       0.000000
      0.000064       0.000510       0.000000
      0.000126       0.000354       0.000000
      0.000056      -0.000085       0.000000
      0.000080      -0.000041       0.000000
      0.000008      -0.000071       0.000000
     -0.000015      -0.000162       0.000000
      0.000080      -0.000041       0.000000
      0.000103       0.000018       0.000000
      0.000029       0.000016       0.000000
      0.000008      -0.000071       0.000000
     -0.000015      -0.000162       0.000000
      0.000008      -0.000071       0.000000
     -0.000131      -0.000098       0.000000
     -0.000145      -0.000221       0.000000
      0.000008      -0.000071       0.000000
      0.000029       0.000016       0.000000
     -0.000119       0.000008       0.000000
     -0.000131      -0.000098       0.000000
      0.000103       0.000018       0.000000
      0.000126       0.000099       0.000000
      0.000054       0.000130       0.000000
      0.000029       0.000016       0.000000
      0.000126       0.000099       0.000000
      0.000140       0.000211       0.000000
      0.000074       0.000302       0.000000
      0.000054       0.000130       0.000000
      0.000029       0.000016       0.000000
      0.000054       0.000130       0.000000
     -0.000104       0.000145       0.000000
     -0.000119       0.000008       0.000000
      0.000054       0.000130       0.000000
      0.000074       0.000302       0.000000
     -0.000083       0.000364       0.000000
     -0.000104       0.000145       0.000000
      0.000140       0.000211       0.000000
      0.000126       0.000354       0.000000
      0.000062       0.000542       0.000000
      0.000074       0.000302       0.000000
      0.000126       0.000354       0.000000
      0.000064       0.000510       0.000000
     -0.000019       0.000818       0.000000
      0.000062       0.000542       0.000000
      0.000074       0.000302       0.000000
      0.000062       0.000542       0.000000
     -0.000080       0.000715       0.000000
     -0.000083       0.000364       0.000000
      0.000062       0.000542       0.000000
     -0.000019       0.000818       0.000000
     -0.000166       0.001168       0.000000
     -0.000080       0.000715       0.000000
     -0.000145      -0.000221       0.000000
     -0.000131      -0.000098       0.000000
     -0.000302      -0.000112       0.000000
     -0.000305      -0.000247       0.000000
     -0.000131      -0.000098       0.000000
     -0.000119       0.000008       0.000000
     -0.000312       0.000006       0.000000
     -0.000302      -0.000112       0.000000
     -0.000305      -0.000247       0.000000
     -0.000302      -0.000112       0.000000
     -0.000458      -0.000110       0.000000
     -0.000456      -0.000249       0.000000
     -0.000302      -0.000112       0.000000
     -0.000312       0.000006       0.000000
     -0.000486       0.000019       0.000000
     -0.000458      -0.000110       0.000000
     -0.000119       0.000008       0.000000
     -0.000104       0.000145       0.000000
     -0.000330       0.000152       0.000000
     -0.000312       0.000006       0.000000
     -0.000104       0.000145       0.000000
     -0.000083       0.000364       0.000000
     -0.000348       0.000391       0.000000
     -0.000330       0.000152       0.000000
     -0.000312       0.000006       0.000000
     -0.000330       0.000152       0.000000
     -0.000562       0.000178       0.000000
     -0.000486       0.000019       0.000000
     -0.000330       0.000152       0.000000
     -0.000348       0.000391       0.000000
     -0.000693       0.000427       0.000000
     -0.000562       0.000178       0.000000
     -0.000083       0.000364       0.000000
     -0.000076       0.000522       0.000000
     -0.000193       0.000557       0.000000
     -0.000201       0.000381       0.000000
     -0.000076       0.000522       0.000000
     -0.000080       0.000715       0.000000
     -0.000190       0.000785       0.000000
     -0.000193       0.000557       0.000000
     -0.000201       0.000381       0.000000
     -0.000193       0.000557       0.000000
     -0.000350       0.000577       0.000000
     -0.000348       0.000391       0.000000
     -0.000193       0.000557       0.000000
     -0.000190       0.000785       0.000000
     -0.000347       0.000832       0.000000
     -0.000350       0.000577       0.000000
     -0.000080       0.000715       0.000000
     -0.000106       0.000938       0.000000
     -0.000209       0.001064       0.000000
     -0.000190       0.000785       0.000000
     -0.000106       0.000938       0.000000
     -0.000166       0.001168       0.000000
     -0.000270       0.001365       0.000000
     -0.000209       0.001064       0.000000
     -0.000190       0.000785       0.000000
     -0.000209       0.001064       0.000000
     -0.000351       0.001178       0.000000
     -0.000347       0.000832       0.000000
     -0.000209       0.001064       0.000000
     -0.000270       0.001365       0.000000
     -0.000408       0.001589       0.000000
     -0.000351       0.001178       0.000000
     -0.000348       0.000391       0.000000
     -0.000350       0.000577       0.000000
     -0.000553       0.000589       0.000000
     -0.000519       0.000403       0.000000
     -0.000350       0.000577       0.000000
     -0.000347       0.000832       0.000000
     -0.000577       0.000854       0.000000
     -0.000553       0.000589       0.000000
     -0.000519       0.000403       0.000000
     -0.000553       0.000589       0.000000
     -0.000781       0.000617       0.000000
     -0.000693       0.000427       0.000000
     -0.000553       0.000589       0.000000
     -0.000577       0.000854       0.000000
     -0.000886       0.000881       0.000000
     -0.000781       0.000617       0.000000
     -0.000347       0.000832       0.000000
     -0.000346       0.000993       0.000000
     -0.000449       0.001017       0.000000
     -0.000451       0.000845       0.000000
     -0.000346       0.000993       0.000000
     -0.000351       0.001178       0.000000
     -0.000448       0.001224       0.000000
     -0.000449       0.001017       0.000000
     -0.000451       0.000845       0.000000
     -0.000449       0.001017       0.000000
     -0.000581       0.001031       0.000000
     -0.000577       0.000854       0.000000
     -0.000449       0.001017       0.000000
     -0.000448       0.001224       0.000000
     -0.000578       0.001255       0.000000
     -0.000581       0.001031       0.000000
     -0.000351       0.001178       0.000000
     -0.000369       0.001382       0.000000
     -0.000459       0.001464       0.000000
     -0.000448       0.001224       0.000000
     -0.000369       0.001382       0.000000
     -0.000408       0.001589       0.000000
     -0.000497       0.001719       0.000000
     -0.000459       0.001464       0.000000
     -0.000448       0.001224       0.000000
     -0.000459       0.001464       0.000000
     -0.000577       0.001540       0.000000
     -0.000578       0.001255       0.000000
     -0.000459       0.001464       0.000000
     -0.000497       0.001719       0.000000
     -0.000611       0.001872       0.000000
     -0.000577       0.001540       0.000000
     -0.000577       0.000854       0.000000
     -0.000581       0.001031       0.000000
     -0.000750       0.001039       0.000000
     -0.000726       0.000863       0.000000
     -0.000581       0.001031       0.000000
     -0.000578       0.001255       0.000000
     -0.000764       0.001268       0.000000
     -0.000750       0.001039       0.000000
     -0.000726       0.000863       0.000000
     -0.000750       0.001039       0.000000
     -0.000946       0.001057       0.000000
     -0.000886       0.000881       0.000000
     -0.000750       0.001039       0.000000
     -0.000764       0.001268       0.000000
     -0.001015       0.001284       0.000000
     -0.000946       0.001057       0.000000
     -0.000578       0.001255       0.000000
     -0.000575       0.001389       0.000000
     -0.000658       0.001405       0.000000
     -0.000662       0.001263       0.000000
     -0.000575       0.001389       0.000000
     -0.000577       0.001540       0.000000
     -0.000654       0.001572       0.000000
     -0.000658       0.001405       0.000000
     -0.000662       0.001263       0.000000
     -0.000658       0.001405       0.000000
     -0.000763       0.001413       0.000000
     -0.000764       0.001268       0.000000
     -0.000658       0.001405       0.000000
     -0.000654       0.001572       0.000000
     -0.000756       0.001593       0.000000
     -0.000763       0.001413       0.000000
     -0.000577       0.001540       0.000000
     -0.000587       0.001705       0.000000
     -0.000658       0.001764       0.000000
     -0.000654       0.001572       0.000000
     -0.000587       0.001705       0.000000
     -0.000611       0.001872       0.000000
     -0.000682       0.001966       0.000000
     -0.000658       0.001764       0.000000
     -0.000654       0.001572       0.000000
     -0.000658       0.001764       0.000000
     -0.000749       0.001821       0.000000
     -0.000756       0.001593       0.000000
     -0.000658       0.001764       0.000000
     -0.000682       0.001966       0.000000
     -0.000771       0.002085       0.000000
     -0.000749       0.001821       0.000000
     -0.000764       0.001268       0.000000
     -0.000763       0.001413       0.000000
     -0.000897       0.001417       0.000000
     -0.000884       0.001273       0.000000
     -0.000763       0.001413       0.000000
     -0.000756       0.001593       0.000000
     -0.000902       0.001600       0.000000
     -0.000897       0.001417       0.000000
     -0.000884       0.001273       0.000000
     -0.000897       0.001417       0.000000
     -0.001055       0.001429       0.000000
     -0.001015       0.001284       0.000000
     -0.000897       0.001417       0.000000
     -0.000902       0.001600       0.000000
     -0.001102       0.001612       0.000000
     -0.001055       0.001429       0.000000
     -0.000756       0.001593       0.000000
     -0.000749       0.001821       0.000000
     -0.000887       0.001862       0.000000
     -0.000902       0.001600       0.000000
     -0.000749       0.001821       0.000000
     -0.000771       0.002085       0.000000
     -0.000897       0.002261       0.000000
     -0.000887       0.001862       0.000000
     -0.000902       0.001600       0.000000
     -0.000887       0.001862       0.000000
     -0.001166       0.001885       0.000000
     -0.001102       0.001612       0.000000
     -0.000887       0.001862       0.000000
     -0.000897       0.002261       0.000000
     -0.001247       0.002756       0.000000
     -0.001166       0.001885       0.000000
      0.000000       0.000000       0.000000
      0.000000       0.000000       0.000000
      0.000017       0.000296       0.000000
      0.000078       0.000237       0.000000
      0.000000       0.000000       0.000000
      0.000000       0.000000       0.000000
     -0.000062       0.000342       0.000000
      0.000017       0.000296       0.000000
      0.000078       0.000237       0.000000
      0.000017       0.000296       0.000000
     -0.000047       0.000648       0.000000
      0.000064       0.000510       0.000000
      0.000017       0.000296       0.000000
     -0.000062       0.000342       0.000000
     -0.000192       0.000749       0.000000
     -0.000047       0.000648       0.000000
      0.000000       0.000000       0.000000
      0.000000       0.000000       0.000000
     -0.000153       0.000378       0.000000
     -0.000062       0.000342       0.000000
      0.000000       0.000000       0.000000
      0.000000       0.000000       0.000000
     -0.000257       0.000417       0.000000
     -0.000153       0.000378       0.000000
     -0.000062       0.000342       0.000000
     -0.000153       0.000378       0.000000
     -0.000356       0.000824       0.000000
     -0.000192       0.000749       0.000000
     -0.000153       0.000378       0.000000
     -0.000257       0.000417       0.000000
     -0.000535       0.000901       0.000000
     -0.000356       0.000824       0.000000
      0.000000       0.000000       0.000000
      0.000000       0.000000       0.000000
     -0.000401       0.000501       0.000000
     -0.000257       0.000417       0.000000
      0.000000       0.000000       0.000000
      0.000000       0.000000       0.000000
     -0.000621       0.000757       0.000000
     -0.000401       0.000501       0.000000
     -0.000257       0.000417       0.000000
     -0.000401       0.000501       0.000000
     -0.000735       0.001031       0.000000
     -0.000535       0.000901       0.000000
     -0.000401       0.000501       0.000000
     -0.000621       0.000757       0.000000
     -0.000945       0.001259       0.000000
     -0.000735       0.001031       0.000000
      0.000064       0.000510       0.000000
     -0.000047       0.000648       0.000000
     -0.000176       0.001057       0.000000
     -0.000019       0.000818       0.000000
     -0.000047       0.000648       0.000000
     -0.000192       0.000749       0.000000
     -0.000375       0.001218       0.000000
     -0.000176       0.001057       0.000000
     -0.000019       0.000818       0.000000
     -0.000176       0.001057       0.000000
     -0.000372       0.001543       0.000000
     -0.000166       0.001168       0.000000
     -0.000176       0.001057       0.000000
     -0.000375       0.001218       0.000000
     -0.000606       0.001738       0.000000
     -0.000372       0.001543       0.000000
     -0.000192       0.000749       0.000000
     -0.000356       0.000824       0.000000
     -0.000584       0.001317       0.000000
     -0.000375       0.001218       0.000000
     -0.000356       0.000824       0.000000
     -0.000535       0.000901       0.000000
     -0.000791       0.001405       0.000000
     -0.000584       0.001317       0.000000
     -0.000375       0.001218       0.000000
     -0.000584       0.001317       0.000000
     -0.000816       0.001828       0.000000
     -0.000606       0.001738       0.000000
     -0.000584       0.001317       0.000000
     -0.000791       0.001405       0.000000
     -0.001014       0.001897       0.000000
     -0.000816       0.001828       0.000000
     -0.000535       0.000901       0.000000
     -0.000735       0.001031       0.000000
     -0.000998       0.001526       0.000000
     -0.000791       0.001405       0.000000
     -0.000735       0.001031       0.000000
     -0.000945       0.001259       0.000000
     -0.001193       0.001710       0.000000
     -0.000998       0.001526       0.000000
     -0.000791       0.001405       0.000000
     -0.000998       0.001526       0.000000
     -0.001206       0.001988       0.000000
     -0.001014       0.001897       0.000000
     -0.000998       0.001526       0.000000
     -0.001193       0.001710       0.000000
     -0.001386       0.002123       0.000000
     -0.001206       0.001988       0.000000
     -0.000606       0.001738       0.000000
     -0.000816       0.001828       0.000000
     -0.001011       0.002322       0.000000
     -0.000857       0.002275       0.000000
     -0.000816       0.001828       0.000000
     -0.001014       0.001897       0.000000
     -0.001176       0.002364       0.000000
     -0.001011       0.002322       0.000000
     -0.000857       0.002275       0.000000
     -0.001011       0.002322       0.000000
     -0.001102       0.002781       0.000000
     -0.000996       0.002762       0.000000
     -0.001011       0.002322       0.000000
     -0.001176       0.002364       0.000000
     -0.001247       0.002809       0.000000
     -0.001102       0.002781       0.000000
     -0.001014       0.001897       0.000000
     -0.001206       0.001988       0.000000
     -0.001350       0.002422       0.000000
     -0.001176       0.002364       0.000000
     -0.001206       0.001988       0.000000
     -0.001386       0.002123       0.000000
     -0.001519       0.002504       0.000000
     -0.001350       0.002422       0.000000
     -0.001176       0.002364       0.000000
     -0.001350       0.002422       0.000000
     -0.001413       0.002841       0.000000
     -0.001247       0.002809       0.000000
     -0.001350       0.002422       0.000000
     -0.001519       0.002504       0.000000
     -0.001579       0.002868       0.000000
     -0.001413       0.002841       0.000000
     -0.000166       0.001168       0.000000
     -0.000259       0.001376       0.000000
     -0.000378       0.001632       0.000000
     -0.000270       0.001365       0.000000
     -0.000259       0.001376       0.000000
     -0.000372       0.001543       0.000000
     -0.000505       0.001824       0.000000
     -0.000378       0.001632       0.000000
     -0.000270       0.001365       0.000000
     -0.000378       0.001632       0.000000
     -0.000537       0.001937       0.000000
     -0.000408       0.001589       0.000000
     -0.000378       0.001632       0.000000
     -0.000505       0.001824       0.000000
     -0.000670       0.002135       0.000000
     -0.000537       0.001937       0.000000
     -0.000372       0.001543       0.000000
     -0.000491       0.001660       0.000000
     -0.000626       0.001941       0.000000
     -0.000505       0.001824       0.000000
     -0.000491       0.001660       0.000000
     -0.000606       0.001738       0.000000
     -0.000733       0.002009       0.000000
     -0.000626       0.001941       0.000000
     -0.000505       0.001824       0.000000
     -0.000626       0.001941       0.000000
     -0.000773       0.002229       0.000000