# vtk DataFile Version 2.0
time_10.vtk
ASCII
DATASET UNSTRUCTURED_GRID
POINTS  1152 float
      0.000000       0.000000       0.000000
      0.083333       0.000000       0.000000
      0.083333       0.083333       0.000000
      0.000000       0.083333       0.000000
      0.083333       0.000000       0.000000
      0.166667       0.000000       0.000000
      0.166667       0.083333       0.000000
      0.083333       0.083333       0.000000
      0.000000       0.083333       0.000000
      0.083333       0.083333       0.000000
      0.083333       0.166667       0.000000
      0.000000       0.166667       0.000000
      0.083333       0.083333       0.000000
      0.166667       0.083333       0.000000
      0.166667       0.166667       0.000000
      0.083333       0.166667       0.000000
      0.166667       0.000000       0.000000
      0.250000       0.000000       0.000000
      0.250000       0.083333       0.000000
      0.166667       0.083333       0.000000
      0.250000       0.000000       0.000000
      0.333333       0.000000       0.000000
      0.333333       0.083333       0.000000
      0.250000       0.083333       0.000000
      0.166667       0.083333       0.000000
      0.250000       0.083333       0.000000
      0.250000       0.166667       0.000000
      0.166667       0.166667       0.000000
      0.250000       0.083333       0.000000
      0.333333       0.083333       0.000000
      0.333333       0.166667       0.000000
      0.250000       0.166667       0.000000
      0.333333       0.000000       0.000000
      0.416667       0.000000       0.000000
      0.416667       0.083333       0.000000
      0.333333       0.083333       0.000000
      0.416667       0.000000       0.000000
      0.500000       0.000000       0.000000
      0.500000       0.083333       0.000000
      0.416667       0.083333       0.000000
      0.333333       0.083333       0.000000
      0.416667       0.083333       0.000000
      0.416667       0.166667       0.000000
      0.333333       0.166667       0.000000
      0.416667       0.083333       0.000000
      0.500000       0.083333       0.000000
      0.500000       0.166667       0.000000
      0.416667       0.166667       0.000000
      0.000000       0.166667       0.000000
      0.083333       0.166667       0.000000
      0.083333       0.250000       0.000000
      0.000000       0.250000       0.000000
      0.083333       0.166667       0.000000
      0.166667       0.166667       0.000000
      0.166667       0.250000       0.000000
      0.083333       0.250000       0.000000
      0.000000       0.250000       0.000000
      0.083333       0.250000       0.000000
      0.083333       0.333333       0.000000
      0.000000       0.333333       0.000000
      0.083333       0.250000       0.000000
      0.166667       0.250000       0.000000
      0.166667       0.333333       0.000000
      0.083333       0.333333       0.000000
      0.166667       0.166667       0.000000
      0.250000       0.166667       0.000000
      0.250000       0.250000       0.000000
      0.166667       0.250000       0.000000
      0.250000       0.166667       0.000000
      0.333333       0.166667       0.000000
      0.333333       0.250000       0.000000
      0.250000       0.250000       0.000000
      0.166667       0.250000       0.000000
      0.250000       0.250000       0.000000
      0.250000       0.333333       0.000000
      0.166667       0.333333       0.000000
      0.250000       0.250000       0.000000
      0.333333       0.250000       0.000000
      0.333333       0.333333       0.000000
      0.250000       0.333333       0.000000
      0.333333       0.166667       0.000000
      0.416667       0.166667       0.000000
      0.416667       0.250000       0.000000
      0.333333       0.250000       0.000000
      0.416667       0.166667       0.000000
      0.500000       0.166667       0.000000
      0.500000       0.250000       0.000000
      0.416667       0.250000       0.000000
      0.333333       0.250000       0.000000
      0.416667       0.250000       0.000000
      0.416667       0.333333       0.000000
      0.333333       0.333333       0.000000
      0.416667       0.250000       0.000000
      0.500000       0.250000       0.000000
      0.500000       0.333333       0.000000
      0.416667       0.333333       0.000000
      0.000000       0.333333       0.000000
      0.083333       0.333333       0.000000
      0.083333       0.416667       0.000000
      0.000000       0.416667       0.000000
      0.083333       0.333333       0.000000
      0.166667       0.333333       0.000000
      0.166667       0.416667       0.000000
      0.083333       0.416667       0.000000
      0.000000       0.416667       0.000000
      0.083333       0.416667       0.000000
      0.083333       0.500000       0.000000
      0.000000       0.500000       0.000000
      0.083333       0.416667       0.000000
      0.166667       0.416667       0.000000
      0.166667       0.500000       0.000000
      0.083333       0.500000       0.000000
      0.166667       0.333333       0.000000
      0.250000       0.333333       0.000000
      0.250000       0.416667       0.000000
      0.166667       0.416667       0.000000
      0.250000       0.333333       0.000000
      0.333333       0.333333       0.000000
      0.333333       0.416667       0.000000
      0.250000       0.416667       0.000000
      0.166667       0.416667       0.000000
      0.250000       0.416667       0.000000
      0.250000       0.500000       0.000000
      0.166667       0.500000       0.000000
      0.250000       0.416667       0.000000
      0.333333       0.416667       0.000000
      0.333333       0.500000       0.000000
      0.250000       0.500000       0.000000
      0.333333       0.333333       0.000000
      0.375000       0.333333       0.000000
      0.375000       0.375000       0.000000
      0.333333       0.375000       0.000000
      0.375000       0.333333       0.000000
      0.416667       0.333333       0.000000
      0.416667       0.375000       0.000000
      0.375000       0.375000       0.000000
      0.333333       0.375000       0.000000
      0.375000       0.375000       0.000000
      0.375000       0.416667       0.000000
      0.333333       0.416667       0.000000
      0.375000       0.375000       0.000000
      0.416667       0.375000       0.000000
      0.416667       0.416667       0.000000
      0.375000       0.416667       0.000000
      0.416667       0.333333       0.000000
      0.458333       0.333333       0.000000
      0.458333       0.375000       0.000000
      0.416667       0.375000       0.000000
      0.458333       0.333333       0.000000
      0.500000       0.333333       0.000000
      0.500000       0.375000       0.000000
      0.458333       0.375000       0.000000
      0.416667       0.375000       0.000000
      0.458333       0.375000       0.000000
      0.458333       0.416667       0.000000
      0.416667       0.416667       0.000000
      0.458333       0.375000       0.000000
      0.500000       0.375000       0.000000
      0.500000       0.416667       0.000000
      0.458333       0.416667       0.000000
      0.333333       0.416667       0.000000
      0.375000       0.416667       0.000000
      0.375000       0.458333       0.000000
      0.333333       0.458333       0.000000
      0.375000       0.416667       0.000000
      0.416667       0.416667       0.000000
      0.416667       0.458333       0.000000
      0.375000       0.458333       0.000000
      0.333333       0.458333       0.000000
      0.375000       0.458333       0.000000
      0.375000       0.500000       0.000000
      0.333333       0.500000       0.000000
      0.375000       0.458333       0.000000
      0.416667       0.458333       0.000000
      0.416667       0.500000       0.000000
      0.375000       0.500000       0.000000
      0.416667       0.416667       0.000000
      0.437500       0.416667       0.000000
      0.437500       0.437500       0.000000
      0.416667       0.437500       0.000000
      0.437500       0.416667       0.000000
      0.458333       0.416667       0.000000
      0.458333       0.437500       0.000000
      0.437500       0.437500       0.000000
      0.416667       0.437500       0.000000
      0.437500       0.437500       0.000000
      0.437500       0.458333       0.000000
      0.416667       0.458333       0.000000
      0.437500       0.437500       0.000000
      0.458333       0.437500       0.000000
      0.458333       0.458333       0.000000
      0.437500       0.458333       0.000000
      0.458333       0.416667       0.000000
      0.479167       0.416667       0.000000
      0.479167       0.437500       0.000000
      0.458333       0.437500       0.000000
      0.479167       0.416667       0.000000
      0.500000       0.416667       0.000000
      0.500000       0.437500       0.000000
      0.479167       0.437500       0.000000
      0.458333       0.437500       0.000000
      0.479167       0.437500       0.000000
      0.479167       0.458333       0.000000
      0.458333       0.458333       0.000000
      0.479167       0.437500       0.000000
      0.500000       0.437500       0.000000
      0.500000       0.458333       0.000000
      0.479167       0.458333       0.000000
      0.416667       0.458333       0.000000
      0.437500       0.458333       0.000000
      0.437500       0.479167       0.000000
      0.416667       0.479167       0.000000
      0.437500       0.458333       0.000000
      0.458333       0.458333       0.000000
      0.458333       0.479167       0.000000
      0.437500       0.479167       0.000000
      0.416667       0.479167       0.000000
      0.437500       0.479167       0.000000
      0.437500       0.500000       0.000000
      0.416667       0.500000       0.000000
[...]
POINT_DATA  1152
VECTORS U float 
      0.000000       0.000000       0.000000
      0.000000       0.000000       0.000000
      0.000073      -0.000016       0.000000
      0.000053      -0.000018       0.000000
      0.000000       0.000000       0.000000
      0.000000       0.000000       0.000000
      0.000093       0.000014       0.000000
      0.000073      -0.000016       0.000000
      0.000053      -0.000018       0.000000
      0.000073      -0.000016       0.000000
      0.000079      -0.000043       0.000000
      0.000054      -0.000088       0.000000
      0.000073      -0.000016       0.000000
      0.000093       0.000014       0.000000
      0.000102       0.000017       0.000000
      0.000079      -0.000043       0.000000
      0.000000       0.000000       0.000000
      0.000000       0.000000       0.000000
      0.000111       0.000055       0.000000
      0.000093       0.000014       0.000000
      0.000000       0.000000       0.000000
      0.000000       0.000000       0.000000
      0.000121       0.000108       0.000000
      0.000111       0.000055       0.000000
      0.000093       0.000014       0.000000
      0.000111       0.000055       0.000000
      0.000126       0.000099       0.000000
      0.000102       0.000017       0.000000
      0.000111       0.000055       0.000000
      0.000121       0.000108       0.000000
      0.000141       0.000212       0.000000
      0.000126       0.000099       0.000000
      0.000000       0.000000       0.000000
      0.000000       0.000000       0.000000
      0.000114       0.000173       0.000000
      0.000121       0.000108       0.000000
      0.000000       0.000000       0.000000
      0.000000       0.000000       0.000000
      0.000079       0.000241       0.000000
      0.000114       0.000173       0.000000
      0.000121       0.000108       0.000000
      0.000114       0.000173       0.000000
      0.000127       0.000358       0.000000
      0.000141       0.000212       0.000000
      0.000114       0.000173       0.000000
      0.000079       0.000241       0.000000
      0.000065       0.000518       0.000000
      0.000127       0.000358       0.000000
      0.000054      -0.000088       0.000000
      0.000079      -0.000043       0.000000
      0.000004      -0.000074       0.000000
     -0.000019      -0.000167       0.000000
      0.000079      -0.000043       0.000000
      0.000102       0.000017       0.000000
      0.000026       0.000014       0.000000
      0.000004      -0.000074       0.000000
     -0.000019      -0.000167       0.000000
      0.000004      -0.000074       0.000000
     -0.000138      -0.000101       0.000000
     -0.000152      -0.000227       0.000000
      0.000004      -0.000074       0.000000
      0.000026       0.000014       0.000000
     -0.000126       0.000006       0.000000
     -0.000138      -0.000101       0.000000
      0.000102       0.000017       0.000000
      0.000126       0.000099       0.000000
      0.000051       0.000130       0.000000
      0.000026       0.000014       0.000000
      0.000126       0.000099       0.000000
      0.000141       0.000212       0.000000
      0.000072       0.000303       0.000000
      0.000051       0.000130       0.000000
      0.000026       0.000014       0.000000
      0.000051       0.000130       0.000000
     -0.000110       0.000145       0.000000
     -0.000126       0.000006       0.000000
      0.000051       0.000130       0.000000
      0.000072       0.000303       0.000000
     -0.000089       0.000366       0.000000
     -0.000110       0.000145       0.000000
      0.000141       0.000212       0.000000
      0.000127       0.000358       0.000000
      0.000061       0.000547       0.000000
      0.000072       0.000303       0.000000
      0.000127       0.000358       0.000000
      0.000065       0.000518       0.000000
     -0.000020       0.000830       0.000000
      0.000061       0.000547       0.000000
      0.000072       0.000303       0.000000
      0.000061       0.000547       0.000000
     -0.000086       0.000721       0.000000
     -0.000089       0.000366       0.000000
      0.000061       0.000547       0.000000
     -0.000020       0.000830       0.000000
     -0.000171       0.001183       0.000000
     -0.000086       0.000721       0.000000
     -0.000152      -0.000227       0.000000
     -0.000138      -0.000101       0.000000
     -0.000312      -0.000116       0.000000
     -0.000315      -0.000254       0.000000
     -0.000138      -0.000101       0.000000
     -0.000126       0.000006       0.000000
     -0.000322       0.000003       0.000000
     -0.000312      -0.000116       0.000000
     -0.000315      -0.000254       0.000000
     -0.000312      -0.000116       0.000000
     -0.000470      -0.000114       0.000000
     -0.000468      -0.000256       0.000000
     -0.000312      -0.000116       0.000000
     -0.000322       0.000003       0.000000
     -0.000499       0.000017       0.000000
     -0.000470      -0.000114       0.000000
     -0.000126       0.000006       0.000000
     -0.000110       0.000145       0.000000
     -0.000341       0.000151       0.000000
     -0.000322       0.000003       0.000000
     -0.000110       0.000145       0.000000
     -0.000089       0.000366       0.000000
     -0.000360       0.000393       0.000000
     -0.000341       0.000151       0.000000
     -0.000322       0.000003       0.000000
     -0.000341       0.000151       0.000000
     -0.000576       0.000178       0.000000
     -0.000499       0.000017       0.000000
     -0.000341       0.000151       0.000000
     -0.000360       0.000393       0.000000
     -0.000709       0.000430       0.000000
     -0.000576       0.000178       0.000000
     -0.000089       0.000366       0.000000
     -0.000082       0.000526       0.000000
     -0.000203       0.000560       0.000000
     -0.000210       0.000383       0.000000
     -0.000082       0.000526       0.000000
     -0.000086       0.000721       0.000000
     -0.000200       0.000791       0.000000
     -0.000203       0.000560       0.000000
     -0.000210       0.000383       0.000000
     -0.000203       0.000560       0.000000
     -0.000363       0.000580       0.000000
     -0.000360       0.000393       0.000000
     -0.000203       0.000560       0.000000
     -0.000200       0.000791       0.000000
     -0.000360       0.000838       0.000000
     -0.000363       0.000580       0.000000
     -0.000086       0.000721       0.000000
     -0.000112       0.000948       0.000000
     -0.000217       0.001074       0.000000
     -0.000200       0.000791       0.000000
     -0.000112       0.000948       0.000000
     -0.000171       0.001183       0.000000
     -0.000278       0.001382       0.000000
     -0.000217       0.001074       0.000000
     -0.000200       0.000791       0.000000
     -0.000217       0.001074       0.000000
     -0.000364       0.001187       0.000000
     -0.000360       0.000838       0.000000
     -0.000217       0.001074       0.000000
     -0.000278       0.001382       0.000000
     -0.000420       0.001606       0.000000
     -0.000364       0.001187       0.000000
     -0.000360       0.000393       0.000000
     -0.000363       0.000580       0.000000
     -0.000569       0.000594       0.000000
     -0.000534       0.000405       0.000000
     -0.000363       0.000580       0.000000
     -0.000360       0.000838       0.000000
     -0.000594       0.000860       0.000000
     -0.000569       0.000594       0.000000
     -0.000534       0.000405       0.000000
     -0.000569       0.000594       0.000000
     -0.000798       0.000621       0.000000
     -0.000709       0.000430       0.000000
     -0.000569       0.000594       0.000000
     -0.000594       0.000860       0.000000
     -0.000905       0.000887       0.000000
     -0.000798       0.000621       0.000000
     -0.000360       0.000838       0.000000
     -0.000359       0.001000       0.000000
     -0.000464       0.001024       0.000000
     -0.000466       0.000851       0.000000
     -0.000359       0.001000       0.000000
     -0.000364       0.001187       0.000000
     -0.000464       0.001232       0.000000
     -0.000464       0.001024       0.000000
     -0.000466       0.000851       0.000000
     -0.000464       0.001024       0.000000
     -0.000599       0.001038       0.000000
     -0.000594       0.000860       0.000000
     -0.000464       0.001024       0.000000
     -0.000464       0.001232       0.000000
     -0.000596       0.001262       0.000000
     -0.000599       0.001038       0.000000
     -0.000364       0.001187       0.000000
     -0.000382       0.001393       0.000000
     -0.000475       0.001475       0.000000
     -0.000464       0.001232       0.000000
     -0.000382       0.001393       0.000000
     -0.000420       0.001606       0.000000
     -0.000512       0.001734       0.000000
     -0.000475       0.001475       0.000000
     -0.000464       0.001232       0.000000
     -0.000475       0.001475       0.000000
     -0.000596       0.001549       0.000000
     -0.000596       0.001262       0.000000
     -0.000475       0.001475       0.000000
     -0.000512       0.001734       0.000000
     -0.000629       0.001886       0.000000
     -0.000596       0.001549       0.000000
     -0.000594       0.000860       0.000000
     -0.000599       0.001038       0.000000
     -0.000769       0.001047       0.000000
     -0.000744       0.000869       0.000000
     -0.000599       0.001038       0.000000
     -0.000596       0.001262       0.000000
     -0.000784       0.001275       0.000000
     -0.000769       0.001047       0.000000
     -0.000744       0.000869       0.000000
     -0.000769       0.001047       0.000000
     -0.000966       0.001065       0.000000
     -0.000905       0.000887       0.000000
     -0.000769       0.001047       0.000000
     -0.000784       0.001275       0.000000
     -0.001036       0.001292       0.000000
     -0.000966       0.001065       0.000000
     -0.000596       0.001262       0.000000
     -0.000594       0.001397       0.000000
     -0.000679       0.001413       0.000000
     -0.000682       0.001271       0.000000
     -0.000594       0.001397       0.000000
     -0.000596       0.001549       0.000000
     -0.000675       0.001580       0.000000
     -0.000679       0.001413       0.000000
     -0.000682       0.001271       0.000000
     -0.000679       0.001413       0.000000
     -0.000785       0.001421       0.000000
     -0.000784       0.001275       0.000000
     -0.000679       0.001413       0.000000
     -0.000675       0.001580       0.000000
     -0.000778       0.001600       0.000000
     -0.000785       0.001421       0.000000
     -0.000596       0.001549       0.000000
     -0.000606       0.001715       0.000000
     -0.000679       0.001773       0.000000
     -0.000675       0.001580       0.000000
     -0.000606       0.001715       0.000000
     -0.000629       0.001886       0.000000
     -0.000702       0.001979       0.000000
     -0.000679       0.001773       0.000000
     -0.000675       0.001580       0.000000
     -0.000679       0.001773       0.000000
     -0.000772       0.001829       0.000000
     -0.000778       0.001600       0.000000
     -0.000679       0.001773       0.000000
     -0.000702       0.001979       0.000000
     -0.000793       0.002098       0.000000
     -0.000772       0.001829       0.000000
     -0.000784       0.001275       0.000000
     -0.000785       0.001421       0.000000
     -0.000919       0.001425       0.000000
     -0.000905       0.001281       0.000000
     -0.000785       0.001421       0.000000
     -0.000778       0.001600       0.000000
     -0.000925       0.001607       0.000000
     -0.000919       0.001425       0.000000
     -0.000905       0.001281       0.000000
     -0.000919       0.001425       0.000000
     -0.001076       0.001437       0.000000
     -0.001036       0.001292       0.000000
     -0.000919       0.001425       0.000000
     -0.000925       0.001607       0.000000
     -0.001125       0.001620       0.000000
     -0.001076       0.001437       0.000000
     -0.000778       0.001600       0.000000
     -0.000772       0.001829       0.000000
     -0.000911       0.001869       0.000000
     -0.000925       0.001607       0.000000
     -0.000772       0.001829       0.000000
     -0.000793       0.002098       0.000000
     -0.000921       0.002279       0.000000
     -0.000911       0.001869       0.000000
     -0.000925       0.001607       0.000000
     -0.000911       0.001869       0.000000
     -0.001192       0.001894       0.000000
     -0.001125       0.001620       0.000000
     -0.000911       0.001869       0.000000
     -0.000921       0.002279       0.000000
     -0.001296       0.002834       0.000000
     -0.001192       0.001894       0.000000
      0.000000       0.000000       0.000000
      0.000000       0.000000       0.000000
      0.000018       0.000302       0.000000
      0.000079       0.000241       0.000000
      0.000000       0.000000       0.000000
      0.000000       0.000000       0.000000
     -0.000063       0.000350       0.000000
      0.000018       0.000302       0.000000
      0.000079       0.000241       0.000000
      0.000018       0.000302       0.000000
     -0.000047       0.000660       0.000000
      0.000065       0.000518       0.000000
      0.000018       0.000302       0.000000
     -0.000063       0.000350       0.000000
     -0.000196       0.000766       0.000000
     -0.000047       0.000660       0.000000
      0.000000       0.000000       0.000000
      0.000000       0.000000       0.000000
     -0.000156       0.000387       0.000000
     -0.000063       0.000350       0.000000
      0.000000       0.000000       0.000000
      0.000000       0.000000       0.000000
     -0.000263       0.000428       0.000000
     -0.000156       0.000387       0.000000
     -0.000063       0.000350       0.000000
     -0.000156       0.000387       0.000000
     -0.000364       0.000845       0.000000
     -0.000196       0.000766       0.000000
     -0.000156       0.000387       0.000000
     -0.000263       0.000428       0.000000
     -0.000549       0.000926       0.000000
     -0.000364       0.000845       0.000000
      0.000000       0.000000       0.000000
      0.000000       0.000000       0.000000
     -0.000412       0.000517       0.000000
     -0.000263       0.000428       0.000000
      0.000000       0.000000       0.000000
      0.000000       0.000000       0.000000
     -0.000638       0.000781       0.000000
     -0.000412       0.000517       0.000000
     -0.000263       0.000428       0.000000
     -0.000412       0.000517       0.000000
     -0.000756       0.001062       0.000000
     -0.000549       0.000926       0.000000
     -0.000412       0.000517       0.000000
     -0.000638       0.000781       0.000000
     -0.000972       0.001297       0.000000
     -0.000756       0.001062       0.000000
      0.000065       0.000518       0.000000
     -0.000047       0.000660       0.000000
     -0.000179       0.001078       0.000000
     -0.000020       0.000830       0.000000
     -0.000047       0.000660       0.000000
     -0.000196       0.000766       0.000000
     -0.000384       0.001246       0.000000
     -0.000179       0.001078       0.000000
     -0.000020       0.000830       0.000000
     -0.000179       0.001078       0.000000
     -0.000381       0.001574       0.000000
     -0.000171       0.001183       0.000000
     -0.000179       0.001078       0.000000
     -0.000384       0.001246       0.000000
     -0.000622       0.001781       0.000000
     -0.000381       0.001574       0.000000
     -0.000196       0.000766       0.000000
     -0.000364       0.000845       0.000000
     -0.000599       0.001352       0.000000
     -0.000384       0.001246       0.000000
     -0.000364       0.000845       0.000000
     -0.000549       0.000926       0.000000
     -0.000814       0.001444       0.000000
     -0.000599       0.001352       0.000000
     -0.000384       0.001246       0.000000
     -0.000599       0.001352       0.000000
     -0.000840       0.001879       0.000000
     -0.000622       0.001781       0.000000
     -0.000599       0.001352       0.000000
     -0.000814       0.001444       0.000000
     -0.001044       0.001951       0.000000
     -0.000840       0.001879       0.000000
     -0.000549       0.000926       0.000000
     -0.000756       0.001062       0.000000
     -0.001026       0.001570       0.000000
     -0.000814       0.001444       0.000000
     -0.000756       0.001062       0.000000
     -0.000972       0.001297       0.000000
     -0.001227       0.001761       0.000000
     -0.001026       0.001570       0.000000
     -0.000814       0.001444       0.000000
     -0.001026       0.001570       0.000000
     -0.001242       0.002045       0.000000
     -0.001044       0.001951       0.000000
     -0.001026       0.001570       0.000000
     -0.001227       0.001761       0.000000
     -0.001427       0.002186       0.000000
     -0.001242       0.002045       0.000000
     -0.000622       0.001781       0.000000
     -0.000840       0.001879       0.000000
     -0.001044       0.002387       0.000000
     -0.000884       0.002337       0.000000
     -0.000840       0.001879       0.000000
     -0.001044       0.001951       0.000000
     -0.001213       0.002431       0.000000
     -0.001044       0.002387       0.000000
     -0.000884       0.002337       0.000000
     -0.001044       0.002387       0.000000
     -0.001138       0.002859       0.000000
     -0.001030       0.002840       0.000000
     -0.001044       0.002387       0.000000
     -0.001213       0.002431       0.000000
     -0.001286       0.002888       0.000000
     -0.001138       0.002859       0.000000
     -0.001044       0.001951       0.000000
     -0.001242       0.002045       0.000000
     -0.001392       0.002491       0.000000
     -0.001213       0.002431       0.000000
     -0.001242       0.002045       0.000000
     -0.001427       0.002186       0.000000
     -0.001565       0.002576       0.000000
     -0.001392       0.002491       0.000000
     -0.001213       0.002431       0.000000
     -0.001392       0.002491       0.000000
     -0.001456       0.002921       0.000000
     -0.001286       0.002888       0.000000
     -0.001392       0.002491       0.000000
     -0.001565       0.002576       0.000000
     -0.001626       0.002948       0.000000
     -0.001456       0.002921       0.000000
     -0.000171       0.001183       0.000000
     -0.000265       0.001399       0.000000
     -0.000387       0.001659       0.000000
     -0.000278       0.001382       0.000000
     -0.000265       0.001399       0.000000
     -0.000381       0.001574       0.000000
     -0.000518       0.001862       0.000000
     -0.000387       0.001659       0.000000
     -0.000278       0.001382       0.000000
     -0.000387       0.001659       0.000000
     -0.000550       0.001970       0.000000
     -0.000420       0.001606       0.000000
     -0.000387       0.001659       0.000000
     -0.000518       0.001862       0.000000
     -0.000688       0.002184       0.000000
     -0.000550       0.001970       0.000000
     -0.000381       0.001574       0.000000
     -0.000503       0.001698       0.000000
     -0.000643       0.001988       0.000000
     -0.000518       0.001862       0.000000
     -0.000503       0.001698       0.000000
     -0.000622       0.001781       0.000000
     -0.000755       0.002061       0.000000
     -0.000643       0.001988       0.000000
     -0.000518       0.001862       0.000000
     -0.000643       0.001988       0.000000
     -0.000796       0.002286       0.000000