# vtk DataFile Version 2.0
time_10.vtk
ASCII
DATASET UNSTRUCTURED_GRID
POINTS  1152 float
      0.000000       0.000000       0.000000
      0.083333       0.000000       0.000000
      0.083333       0.083333       0.000000
      0.000000       0.083333       0.000000
      0.083333       0.000000       0.000000
      0.166667       0.000000       0.000000
      0.166667       0.083333       0.000000
      0.083333       0.083333       0.000000
      0.000000       0.083333       0.000000
      0.083333       0.083333       0.000000
      0.083333       0.166667       0.000000
      0.000000       0.166667       0.000000
      0.083333       0.083333       0.000000
      0.166667       0.083333       0.000000
      0.166667       0.166667       0.000000
      0.083333       0.166667       0.000000
      0.166667       0.000000       0.000000
      0.250000       0.000000       0.000000
      0.250000       0.083333       0.000000
      0.166667       0.083333       0.000000
      0.250000       0.000000       0.000000
      0.333333       0.000000       0.000000
      0.333333       0.083333       0.000000
      0.250000       0.083333       0.000000
      0.166667       0.083333       0.000000
      0.250000       0.083333       0.000000
      0.250000       0.166667       0.000000
      0.166667       0.166667       0.000000
      0.250000       0.083333       0.000000
      0.333333       0.083333       0.000000
      0.333333       0.166667       0.000000
      0.250000       0.166667       0.000000
      0.333333       0.000000       0.000000
      0.416667       0.000000       0.000000
      0.416667       0.083333       0.000000
      0.333333       0.083333       0.000000
      0.416667       0.000000       0.000000
      0.500000       0.000000       0.000000
      0.500000       0.083333       0.000000
      0.416667       0.083333       0.000000
      0.333333       0.083333       0.000000
      0.416667       0.083333       0.000000
      0.416667       0.166667       0.000000
      0.333333       0.166667       0.000000
      0.416667       0.083333       0.000000
      0.500000       0.083333       0.000000
      0.500000       0.166667       0.000000
      0.416667       0.166667       0.000000
      0.000000       0.166667       0.000000
      0.083333       0.166667       0.000000
      0.083333       0.250000       0.000000
      0.000000       0.250000       0.000000
      0.083333       0.166667       0.000000
      0.166667       0.166667       0.000000
      0.166667       0.250000       0.000000
      0.083333       0.250000       0.000000
      0.000000       0.250000       0.000000
      0.083333       0.250000       0.000000
      0.083333       0.333333       0.000000
      0.000000       0.333333       0.000000
      0.083333       0.250000       0.000000
      0.166667       0.250000       0.000000
      0.166667       0.333333       0.000000
      0.083333       0.333333       0.000000
      0.166667       0.166667       0.000000
      0.250000       0.166667       0.000000
      0.250000       0.250000       0.000000
      0.166667       0.250000       0.000000
      0.250000       0.166667       0.000000
      0.333333       0.166667       0.000000
      0.333333       0.250000       0.000000
      0.250000       0.250000       0.000000
      0.166667       0.250000       0.000000
      0.250000       0.250000       0.000000
      0.250000       0.333333       0.000000
      0.166667       0.333333       0.000000
      0.250000       0.250000       0.000000
      0.333333       0.250000       0.000000
      0.333333       0.333333       0.000000
      0.250000       0.333333       0.000000
      0.333333       0.166667       0.000000
      0.416667       0.166667       0.000000
      0.416667       0.250000       0.000000
      0.333333       0.250000       0.000000
      0.416667       0.166667       0.000000
      0.500000       0.166667       0.000000
      0.500000       0.250000       0.000000
      0.416667       0.250000       0.000000
      0.333333       0.250000       0.000000
      0.416667       0.250000       0.000000
      0.416667       0.333333       0.000000
      0.333333       0.333333       0.000000
      0.416667       0.250000       0.000000
      0.500000       0.250000       0.000000
      0.500000       0.333333       0.000000
      0.416667       0.333333       0.000000
      0.000000       0.333333       0.000000
      0.083333       0.333333       0.000000
      0.083333       0.416667       0.000000
      0.000000       0.416667       0.000000
      0.083333       0.333333       0.000000
      0.166667       0.333333       0.000000
      0.166667       0.416667       0.000000
      0.083333       0.416667       0.000000
      0.000000       0.416667       0.000000
      0.083333       0.416667       0.000000
      0.083333       0.500000       0.000000
      0.000000       0.500000       0.000000
      0.083333       0.416667       0.000000
      0.166667       0.416667       0.000000
      0.166667       0.500000       0.000000
      0.083333       0.500000       0.000000
      0.166667       0.333333       0.000000
      0.250000       0.333333       0.000000
      0.250000       0.416667       0.000000
      0.166667       0.416667       0.000000
      0.250000       0.333333       0.000000
      0.333333       0.333333       0.000000
      0.333333       0.416667       0.000000
      0.250000       0.416667       0.000000
      0.166667       0.416667       0.000000
      0.250000       0.416667       0.000000
      0.250000       0.500000       0.000000
      0.166667       0.500000       0.000000
      0.250000       0.416667       0.000000
      0.333333       0.416667       0.000000
      0.333333       0.500000       0.000000
      0.250000       0.500000       0.000000
      0.333333       0.333333       0.000000
      0.375000       0.333333       0.000000
      0.375000       0.375000       0.000000
      0.333333       0.375000       0.000000
      0.375000       0.333333       0.000000
      0.416667       0.333333       0.000000
      0.416667       0.375000       0.000000
      0.375000       0.375000       0.000000
      0.333333       0.375000       0.000000
      0.375000       0.375000       0.000000
      0.375000       0.416667       0.000000
      0.333333       0.416667       0.000000
      0.375000       0.375000       0.000000
      0.416667       0.375000       0.000000
      0.416667       0.416667       0.000000
      0.375000       0.416667       0.000000
      0.416667       0.333333       0.000000
      0.458333       0.333333       0.000000
      0.458333       0.375000       0.000000
      0.416667       0.375000       0.000000
      0.458333       0.333333       0.000000
      0.500000       0.333333       0.000000
      0.500000       0.375000       0.000000
      0.458333       0.375000       0.000000
      0.416667       0.375000       0.000000
      0.458333       0.375000       0.000000
      0.458333       0.416667       0.000000
      0.416667       0.416667       0.000000
      0.458333       0.375000       0.000000
      0.500000       0.375000       0.000000
      0.500000       0.416667       0.000000
      0.458333       0.416667       0.000000
      0.333333       0.416667       0.000000
      0.375000       0.416667       0.000000
      0.375000       0.458333       0.000000
      0.333333       0.458333       0.000000
      0.375000       0.416667       0.000000
      0.416667       0.416667       0.000000
      0.416667       0.458333       0.000000
      0.375000       0.458333       0.000000
      0.333333       0.458333       0.000000
      0.375000       0.458333       0.000000
      0.375000       0.500000       0.000000
      0.333333       0.500000       0.000000
      0.375000       0.458333       0.000000
      0.416667       0.458333       0.000000
      0.416667       0.500000       0.000000
      0.375000       0.500000       0.000000
      0.416667       0.416667       0.000000
      0.437500       0.416667       0.000000
      0.437500       0.437500       0.000000
      0.416667       0.437500       0.000000
      0.437500       0.416667       0.000000
      0.458333       0.416667       0.000000
      0.458333       0.437500       0.000000
      0.437500       0.437500       0.000000
      0.416667       0.437500       0.000000
      0.437500       0.437500       0.000000
      0.437500       0.458333       0.000000
      0.416667       0.458333       0.000000
      0.437500       0.437500       0.000000
      0.458333       0.437500       0.000000
      0.458333       0.458333       0.000000
      0.437500       0.458333       0.000000
      0.458333       0.416667       0.000000
      0.479167       0.416667       0.000000
      0.479167       0.437500       0.000000
      0.458333       0.437500       0.000000
      0.479167       0.416667       0.000000
      0.500000       0.416667       0.000000
      0.500000       0.437500       0.000000
      0.479167       0.437500       0.000000
      0.458333       0.437500       0.000000
      0.479167       0.437500       0.000000
      0.479167       0.458333       0.000000
      0.458333       0.458333       0.000000
      0.479167       0.437500       0.000000
      0.500000       0.437500       0.000000
      0.500000       0.458333       0.000000
      0.479167       0.458333       0.000000
      0.416667       0.458333       0.000000
      0.437500       0.458333       0.000000
      0.437500       0.479167       0.000000
      0.416667       0.479167       0.000000
      0.437500       0.458333       0.000000
      0.458333       0.458333       0.000000
      0.458333       0.479167       0.000000
      0.437500       0.479167       0.000000
      0.416667       0.479167       0.000000
      0.437500       0.479167       0.000000
      0.437500       0.500000       0.000000
      0.416667       0.500000       0.000000
[...]
POINT_DATA  1152
VECTORS U float 
      0.000000       0.000000       0.000000
      0.000000       0.000000       0.000000
      0.000073      -0.000016       0.000000
      0.000054      -0.000017       0.000000
      0.000000       0.000000       0.000000
      0.000000       0.000000       0.000000
      0.000093       0.000014       0.000000
      0.000073      -0.000016       0.000000
      0.000054      -0.000017       0.000000
      0.000073      -0.000016       0.000000
      0.000080      -0.000042       0.000000
      0.000055      -0.000086       0.000000
      0.000073      -0.000016       0.000000
      0.000093       0.000014       0.000000
      0.000103       0.000018       0.000000
      0.000080      -0.000042       0.000000
      0.000000       0.000000       0.000000
      0.000000       0.000000       0.000000
      0.000111       0.000055       0.000000
      0.000093       0.000014       0.000000
      0.000000       0.000000       0.000000
      0.000000       0.000000       0.000000
      0.000121       0.000108       0.000000
      0.000111       0.000055       0.000000
      0.000093       0.000014       0.000000
      0.000111       0.000055       0.000000
      0.000126       0.000099       0.000000
      0.000103       0.000018       0.000000
      0.000111       0.000055       0.000000
      0.000121       0.000108       0.000000
      0.000141       0.000211       0.000000
      0.000126       0.000099       0.000000
      0.000000       0.000000       0.000000
      0.000000       0.000000       0.000000
      0.000112       0.000172       0.000000
      0.000121       0.000108       0.000000
      0.000000       0.000000       0.000000
      0.000000       0.000000       0.000000
      0.000078       0.000239       0.000000
      0.000112       0.000172       0.000000
      0.000121       0.000108       0.000000
      0.000112       0.000172       0.000000
      0.000126       0.000356       0.000000
      0.000141       0.000211       0.000000
      0.000112       0.000172       0.000000
      0.000078       0.000239       0.000000
      0.000064       0.000513       0.000000
      0.000126       0.000356       0.000000
      0.000055      -0.000086       0.000000
      0.000080      -0.000042       0.000000
      0.000007      -0.000072       0.000000
     -0.000016      -0.000163       0.000000
      0.000080      -0.000042       0.000000
      0.000103       0.000018       0.000000
      0.000028       0.000015       0.000000
      0.000007      -0.000072       0.000000
     -0.000016      -0.000163       0.000000
      0.000007      -0.000072       0.000000
     -0.000133      -0.000099       0.000000
     -0.000147      -0.000223       0.000000
      0.000007      -0.000072       0.000000
      0.000028       0.000015       0.000000
     -0.000121       0.000008       0.000000
     -0.000133      -0.000099       0.000000
      0.000103       0.000018       0.000000
      0.000126       0.000099       0.000000
      0.000053       0.000130       0.000000
      0.000028       0.000015       0.000000
      0.000126       0.000099       0.000000
      0.000141       0.000211       0.000000
      0.000073       0.000302       0.000000
      0.000053       0.000130       0.000000
      0.000028       0.000015       0.000000
      0.000053       0.000130       0.000000
     -0.000106       0.000145       0.000000
     -0.000121       0.000008       0.000000
      0.000053       0.000130       0.000000
      0.000073       0.000302       0.000000
     -0.000085       0.000365       0.000000
     -0.000106       0.000145       0.000000
      0.000141       0.000211       0.000000
      0.000126       0.000356       0.000000
      0.000061       0.000544       0.000000
      0.000073       0.000302       0.000000
      0.000126       0.000356       0.000000
      0.000064       0.000513       0.000000
     -0.000019       0.000822       0.000000
      0.000061       0.000544       0.000000
      0.000073       0.000302       0.000000
      0.000061       0.000544       0.000000
     -0.000081       0.000718       0.000000
     -0.000085       0.000365       0.000000
      0.000061       0.000544       0.000000
     -0.000019       0.000822       0.000000
     -0.000167       0.001173       0.000000
     -0.000081       0.000718       0.000000
     -0.000147      -0.000223       0.000000
     -0.000133      -0.000099       0.000000
     -0.000306      -0.000113       0.000000
     -0.000308      -0.000249       0.000000
     -0.000133      -0.000099       0.000000
     -0.000121       0.000008       0.000000
     -0.000315       0.000005       0.000000
     -0.000306      -0.000113       0.000000
     -0.000308      -0.000249       0.000000
     -0.000306      -0.000113       0.000000
     -0.000462      -0.000112       0.000000
     -0.000460      -0.000251       0.000000
     -0.000306      -0.000113       0.000000
     -0.000315       0.000005       0.000000
     -0.000490       0.000018       0.000000
     -0.000462      -0.000112       0.000000
     -0.000121       0.000008       0.000000
     -0.000106       0.000145       0.000000
     -0.000333       0.000152       0.000000
     -0.000315       0.000005       0.000000
     -0.000106       0.000145       0.000000
     -0.000085       0.000365       0.000000
     -0.000351       0.000392       0.000000
     -0.000333       0.000152       0.000000
     -0.000315       0.000005       0.000000
     -0.000333       0.000152       0.000000
     -0.000566       0.000178       0.000000
     -0.000490       0.000018       0.000000
     -0.000333       0.000152       0.000000
     -0.000351       0.000392       0.000000
     -0.000698       0.000429       0.000000
     -0.000566       0.000178       0.000000
     -0.000085       0.000365       0.000000
     -0.000078       0.000524       0.000000
     -0.000196       0.000558       0.000000
     -0.000204       0.000382       0.000000
     -0.000078       0.000524       0.000000
     -0.000081       0.000718       0.000000
     -0.000193       0.000787       0.000000
     -0.000196       0.000558       0.000000
     -0.000204       0.000382       0.000000
     -0.000196       0.000558       0.000000
     -0.000354       0.000578       0.000000
     -0.000351       0.000392       0.000000
     -0.000196       0.000558       0.000000
     -0.000193       0.000787       0.000000
     -0.000351       0.000835       0.000000
     -0.000354       0.000578       0.000000
     -0.000081       0.000718       0.000000
     -0.000108       0.000941       0.000000
     -0.000211       0.001068       0.000000
     -0.000193       0.000787       0.000000
     -0.000108       0.000941       0.000000
     -0.000167       0.001173       0.000000
     -0.000273       0.001371       0.000000
     -0.000211       0.001068       0.000000
     -0.000193       0.000787       0.000000
     -0.000211       0.001068       0.000000
     -0.000355       0.001182       0.000000
     -0.000351       0.000835       0.000000
     -0.000211       0.001068       0.000000
     -0.000273       0.001371       0.000000
     -0.000412       0.001595       0.000000
     -0.000355       0.001182       0.000000
     -0.000351       0.000392       0.000000
     -0.000354       0.000578       0.000000
     -0.000558       0.000591       0.000000
     -0.000524       0.000404       0.000000
     -0.000354       0.000578       0.000000
     -0.000351       0.000835       0.000000
     -0.000582       0.000856       0.000000
     -0.000558       0.000591       0.000000
     -0.000524       0.000404       0.000000
     -0.000558       0.000591       0.000000
     -0.000786       0.000619       0.000000
     -0.000698       0.000429       0.000000
     -0.000558       0.000591       0.000000
     -0.000582       0.000856       0.000000
     -0.000892       0.000884       0.000000
     -0.000786       0.000619       0.000000
     -0.000351       0.000835       0.000000
     -0.000350       0.000996       0.000000
     -0.000453       0.001020       0.000000
     -0.000455       0.000848       0.000000
     -0.000350       0.000996       0.000000
     -0.000355       0.001182       0.000000
     -0.000453       0.001228       0.000000
     -0.000453       0.001020       0.000000
     -0.000455       0.000848       0.000000
     -0.000453       0.001020       0.000000
     -0.000586       0.001034       0.000000
     -0.000582       0.000856       0.000000
     -0.000453       0.001020       0.000000
     -0.000453       0.001228       0.000000
     -0.000583       0.001258       0.000000
     -0.000586       0.001034       0.000000
     -0.000355       0.001182       0.000000
     -0.000373       0.001387       0.000000
     -0.000464       0.001469       0.000000
     -0.000453       0.001228       0.000000
     -0.000373       0.001387       0.000000
     -0.000412       0.001595       0.000000
     -0.000502       0.001725       0.000000
     -0.000464       0.001469       0.000000
     -0.000453       0.001228       0.000000
     -0.000464       0.001469       0.000000
     -0.000582       0.001545       0.000000
     -0.000583       0.001258       0.000000
     -0.000464       0.001469       0.000000
     -0.000502       0.001725       0.000000
     -0.000617       0.001879       0.000000
     -0.000582       0.001545       0.000000
     -0.000582       0.000856       0.000000
     -0.000586       0.001034       0.000000
     -0.000756       0.001043       0.000000
     -0.000732       0.000865       0.000000
     -0.000586       0.001034       0.000000
     -0.000583       0.001258       0.000000
     -0.000770       0.001271       0.000000
     -0.000756       0.001043       0.000000
     -0.000732       0.000865       0.000000
     -0.000756       0.001043       0.000000
     -0.000953       0.001061       0.000000
     -0.000892       0.000884       0.000000
     -0.000756       0.001043       0.000000
     -0.000770       0.001271       0.000000
     -0.001022       0.001288       0.000000
     -0.000953       0.001061       0.000000
     -0.000583       0.001258       0.000000
     -0.000581       0.001393       0.000000
     -0.000664       0.001409       0.000000
     -0.000668       0.001267       0.000000
     -0.000581       0.001393       0.000000
     -0.000582       0.001545       0.000000
     -0.000661       0.001576       0.000000
     -0.000664       0.001409       0.000000
     -0.000668       0.001267       0.000000
     -0.000664       0.001409       0.000000
     -0.000770       0.001417       0.000000
     -0.000770       0.001271       0.000000
     -0.000664       0.001409       0.000000
     -0.000661       0.001576       0.000000
     -0.000763       0.001597       0.000000
     -0.000770       0.001417       0.000000
     -0.000582       0.001545       0.000000
     -0.000593       0.001710       0.000000
     -0.000665       0.001769       0.000000
     -0.000661       0.001576       0.000000
     -0.000593       0.001710       0.000000
     -0.000617       0.001879       0.000000
     -0.000688       0.001973       0.000000
     -0.000665       0.001769       0.000000
     -0.000661       0.001576       0.000000
     -0.000665       0.001769       0.000000
     -0.000756       0.001826       0.000000
     -0.000763       0.001597       0.000000
     -0.000665       0.001769       0.000000
     -0.000688       0.001973       0.000000
     -0.000778       0.002092       0.000000
     -0.000756       0.001826       0.000000
     -0.000770       0.001271       0.000000
     -0.000770       0.001417       0.000000
     -0.000905       0.001421       0.000000
     -0.000891       0.001276       0.000000
     -0.000770       0.001417       0.000000
     -0.000763       0.001597       0.000000
     -0.000909       0.001604       0.000000
     -0.000905       0.001421       0.000000
     -0.000891       0.001276       0.000000
     -0.000905       0.001421       0.000000
     -0.001062       0.001433       0.000000
     -0.001022       0.001288       0.000000
     -0.000905       0.001421       0.000000
     -0.000909       0.001604       0.000000
     -0.001110       0.001616       0.000000
     -0.001062       0.001433       0.000000
     -0.000763       0.001597       0.000000
     -0.000756       0.001826       0.000000
     -0.000895       0.001867       0.000000
     -0.000909       0.001604       0.000000
     -0.000756       0.001826       0.000000
     -0.000778       0.002092       0.000000
     -0.000905       0.002270       0.000000
     -0.000895       0.001867       0.000000
     -0.000909       0.001604       0.000000
     -0.000895       0.001867       0.000000
     -0.001175       0.001890       0.000000
     -0.001110       0.001616       0.000000
     -0.000895       0.001867       0.000000
     -0.000905       0.002270       0.000000
     -0.001262       0.002780       0.000000
     -0.001175       0.001890       0.000000
      0.000000       0.000000       0.000000
      0.000000       0.000000       0.000000
      0.000017       0.000298       0.000000
      0.000078       0.000239       0.000000
      0.000000       0.000000       0.000000
      0.000000       0.000000       0.000000
     -0.000062       0.000345       0.000000
      0.000017       0.000298       0.000000
      0.000078       0.000239       0.000000
      0.000017       0.000298       0.000000
     -0.000047       0.000652       0.000000
      0.000064       0.000513       0.000000
      0.000017       0.000298       0.000000
     -0.000062       0.000345       0.000000
     -0.000193       0.000755       0.000000
     -0.000047       0.000652       0.000000
      0.000000       0.000000       0.000000
      0.000000       0.000000       0.000000
     -0.000154       0.000380       0.000000
     -0.000062       0.000345       0.000000
      0.000000       0.000000       0.000000
      0.000000       0.000000       0.000000
     -0.000259       0.000421       0.000000
     -0.000154       0.000380       0.000000
     -0.000062       0.000345       0.000000
     -0.000154       0.000380       0.000000
     -0.000358       0.000830       0.000000
     -0.000193       0.000755       0.000000
     -0.000154       0.000380       0.000000
     -0.000259       0.000421       0.000000
     -0.000539       0.000909       0.000000
     -0.000358       0.000830       0.000000
      0.000000       0.000000       0.000000
      0.000000       0.000000       0.000000
     -0.000404       0.000506       0.000000
     -0.000259       0.000421       0.000000
      0.000000       0.000000       0.000000
      0.000000       0.000000       0.000000
     -0.000626       0.000764       0.000000
     -0.000404       0.000506       0.000000
     -0.000259       0.000421       0.000000
     -0.000404       0.000506       0.000000
     -0.000742       0.001041       0.000000
     -0.000539       0.000909       0.000000
     -0.000404       0.000506       0.000000
     -0.000626       0.000764       0.000000
     -0.000954       0.001271       0.000000
     -0.000742       0.001041       0.000000
      0.000064       0.000513       0.000000
     -0.000047       0.000652       0.000000
     -0.000177       0.001064       0.000000
     -0.000019       0.000822       0.000000
     -0.000047       0.000652       0.000000
     -0.000193       0.000755       0.000000
     -0.000378       0.001227       0.000000
     -0.000177       0.001064       0.000000
     -0.000019       0.000822       0.000000
     -0.000177       0.001064       0.000000
     -0.000375       0.001553       0.000000
     -0.000167       0.001173       0.000000
     -0.000177       0.001064       0.000000
     -0.000378       0.001227       0.000000
     -0.000611       0.001752       0.000000
     -0.000375       0.001553       0.000000
     -0.000193       0.000755       0.000000
     -0.000358       0.000830       0.000000
     -0.000589       0.001328       0.000000
     -0.000378       0.001227       0.000000
     -0.000358       0.000830       0.000000
     -0.000539       0.000909       0.000000
     -0.000799       0.001417       0.000000
     -0.000589       0.001328       0.000000
     -0.000378       0.001227       0.000000
     -0.000589       0.001328       0.000000
     -0.000823       0.001844       0.000000
     -0.000611       0.001752       0.000000
     -0.000589       0.001328       0.000000
     -0.000799       0.001417       0.000000
     -0.001023       0.001914       0.000000
     -0.000823       0.001844       0.000000
     -0.000539       0.000909       0.000000
     -0.000742       0.001041       0.000000
     -0.001007       0.001540       0.000000
     -0.000799       0.001417       0.000000
     -0.000742       0.001041       0.000000
     -0.000954       0.001271       0.000000
     -0.001203       0.001726       0.000000
     -0.001007       0.001540       0.000000
     -0.000799       0.001417       0.000000
     -0.001007       0.001540       0.000000
     -0.001217       0.002005       0.000000
     -0.001023       0.001914       0.000000
     -0.001007       0.001540       0.000000
     -0.001203       0.001726       0.000000
     -0.001399       0.002143       0.000000
     -0.001217       0.002005       0.000000
     -0.000611       0.001752       0.000000
     -0.000823       0.001844       0.000000
     -0.001021       0.002343       0.000000
     -0.000865       0.002294       0.000000
     -0.000823       0.001844       0.000000
     -0.001023       0.001914       0.000000
     -0.001187       0.002385       0.000000
     -0.001021       0.002343       0.000000
     -0.000865       0.002294       0.000000
     -0.001021       0.002343       0.000000
     -0.001113       0.002805       0.000000
     -0.001007       0.002786       0.000000
     -0.001021       0.002343       0.000000
     -0.001187       0.002385       0.000000
     -0.001259       0.002834       0.000000
     -0.001113       0.002805       0.000000
     -0.001023       0.001914       0.000000
     -0.001217       0.002005       0.000000
     -0.001363       0.002444       0.000000
     -0.001187       0.002385       0.000000
     -0.001217       0.002005       0.000000
     -0.001399       0.002143       0.000000
     -0.001533       0.002527       0.000000
     -0.001363       0.002444       0.000000
     -0.001187       0.002385       0.000000
     -0.001363       0.002444       0.000000
     -0.001426       0.002866       0.000000
     -0.001259       0.002834       0.000000
     -0.001363       0.002444       0.000000
     -0.001533       0.002527       0.000000
     -0.001593       0.002893       0.000000
     -0.001426       0.002866       0.000000
     -0.000167       0.001173       0.000000
     -0.000261       0.001384       0.000000
     -0.000381       0.001642       0.000000
     -0.000273       0.001371       0.000000
     -0.000261       0.001384       0.000000
     -0.000375       0.001553       0.000000
     -0.000509       0.001836       0.000000
     -0.000381       0.001642       0.000000
     -0.000273       0.001371       0.000000
     -0.000381       0.001642       0.000000
     -0.000541       0.001948       0.000000
     -0.000412       0.001595       0.000000
     -0.000381       0.001642       0.000000
     -0.000509       0.001836       0.000000
     -0.000676       0.002151       0.000000
     -0.000541       0.001948       0.000000
     -0.000375       0.001553       0.000000
     -0.000495       0.001672       0.000000
     -0.000632       0.001956       0.000000
     -0.000509       0.001836       0.000000
     -0.000495       0.001672       0.000000
     -0.000611       0.001752       0.000000
     -0.000740       0.002025       0.000000
     -0.000632       0.001956       0.000000
     -0.000509       0.001836       0.000000
     -0.000632       0.001956       0.000000
     -0.000780       0.002247       0.000000