# vtk DataFile Version 2.0
time_10.vtk
ASCII
DATASET UNSTRUCTURED_GRID
POINTS  1152 float
      0.000000       0.000000       0.000000
      0.083333       0.000000       0.000000
      0.083333       0.083333       0.000000
      0.000000       0.083333       0.000000
      0.083333       0.000000       0.000000
      0.166667       0.000000       0.000000
      0.166667       0.083333       0.000000
      0.083333       0.083333       0.000000
      0.000000       0.083333       0.000000
      0.083333       0.083333       0.000000
      0.083333       0.166667       0.000000
      0.000000       0.166667       0.000000
      0.083333       0.083333       0.000000
      0.166667       0.083333       0.000000
      0.166667       0.166667       0.000000
      0.083333       0.166667       0.000000
      0.166667       0.000000       0.000000
      0.250000       0.000000       0.000000
      0.250000       0.083333       0.000000
      0.166667       0.083333       0.000000
      0.250000       0.000000       0.000000
      0.333333       0.000000       0.000000
      0.333333       0.083333       0.000000
      0.250000       0.083333       0.000000
      0.166667       0.083333       0.000000
      0.250000       0.083333       0.000000
      0.250000       0.166667       0.000000
      0.166667       0.166667       0.000000
      0.250000       0.083333       0.000000
      0.333333       0.083333       0.000000
      0.333333       0.166667       0.000000
      0.250000       0.166667       0.000000
      0.333333       0.000000       0.000000
      0.416667       0.000000       0.000000
      0.416667       0.083333       0.000000
      0.333333       0.083333       0.000000
      0.416667       0.000000       0.000000
      0.500000       0.000000       0.000000
      0.500000       0.083333       0.000000
      0.416667       0.083333       0.000000
      0.333333       0.083333       0.000000
      0.416667       0.083333       0.000000
      0.416667       0.166667       0.000000
      0.333333       0.166667       0.000000
      0.416667       0.083333       0.000000
      0.500000       0.083333       0.000000
      0.500000       0.166667       0.000000
      0.416667       0.166667       0.000000
      0.000000       0.166667       0.000000
      0.083333       0.166667       0.000000
      0.083333       0.250000       0.000000
      0.000000       0.250000       0.000000
      0.083333       0.166667       0.000000
      0.166667       0.166667       0.000000
      0.166667       0.250000       0.000000
      0.083333       0.250000       0.000000
      0.000000       0.250000       0.000000
      0.083333       0.250000       0.000000
      0.083333       0.333333       0.000000
      0.000000       0.333333       0.000000
      0.083333       0.250000       0.000000
      0.166667       0.250000       0.000000
      0.166667       0.333333       0.000000
      0.083333       0.333333       0.000000
      0.166667       0.166667       0.000000
      0.250000       0.166667       0.000000
      0.250000       0.250000       0.000000
      0.166667       0.250000       0.000000
      0.250000       0.166667       0.000000
      0.333333       0.166667       0.000000
      0.333333       0.250000       0.000000
      0.250000       0.250000       0.000000
      0.166667       0.250000       0.000000
      0.250000       0.250000       0.000000
      0.250000       0.333333       0.000000
      0.166667       0.333333       0.000000
      0.250000       0.250000       0.000000
      0.333333       0.250000       0.000000
      0.333333       0.333333       0.000000
      0.250000       0.333333       0.000000
      0.333333       0.166667       0.000000
      0.416667       0.166667       0.000000
      0.416667       0.250000       0.000000
      0.333333       0.250000       0.000000
      0.416667       0.166667       0.000000
      0.500000       0.166667       0.000000
      0.500000       0.250000       0.000000
      0.416667       0.250000       0.000000
      0.333333       0.250000       0.000000
      0.416667       0.250000       0.000000
      0.416667       0.333333       0.000000
      0.333333       0.333333       0.000000
      0.416667       0.250000       0.000000
      0.500000       0.250000       0.000000
      0.500000       0.333333       0.000000
      0.416667       0.333333       0.000000
      0.000000       0.333333       0.000000
      0.083333       0.333333       0.000000
      0.083333       0.416667       0.000000
      0.000000       0.416667       0.000000
      0.083333       0.333333       0.000000
      0.166667       0.333333       0.000000
      0.166667       0.416667       0.000000
      0.083333       0.416667       0.000000
      0.000000       0.416667       0.000000
      0.083333       0.416667       0.000000
      0.083333       0.500000       0.000000
      0.000000       0.500000       0.000000
      0.083333       0.416667       0.000000
      0.166667       0.416667       0.000000
      0.166667       0.500000       0.000000
      0.083333       0.500000       0.000000
      0.166667       0.333333       0.000000
      0.250000       0.333333       0.000000
      0.250000       0.416667       0.000000
      0.166667       0.416667       0.000000
      0.250000       0.333333       0.000000
      0.333333       0.333333       0.000000
      0.333333       0.416667       0.000000
      0.250000       0.416667       0.000000
      0.166667       0.416667       0.000000
      0.250000       0.416667       0.000000
      0.250000       0.500000       0.000000
      0.166667       0.500000       0.000000
      0.250000       0.416667       0.000000
      0.333333       0.416667       0.000000
      0.333333       0.500000       0.000000
      0.250000       0.500000       0.000000
      0.333333       0.333333       0.000000
      0.375000       0.333333       0.000000
      0.375000       0.375000       0.000000
      0.333333       0.375000       0.000000
      0.375000       0.333333       0.000000
      0.416667       0.333333       0.000000
      0.416667       0.375000       0.000000
      0.375000       0.375000       0.000000
      0.333333       0.375000       0.000000
      0.375000       0.375000       0.000000
      0.375000       0.416667       0.000000
      0.333333       0.416667       0.000000
      0.375000       0.375000       0.000000
      0.416667       0.375000       0.000000
      0.416667       0.416667       0.000000
      0.375000       0.416667       0.000000
      0.416667       0.333333       0.000000
      0.458333       0.333333       0.000000
      0.458333       0.375000       0.000000
      0.416667       0.375000       0.000000
      0.458333       0.333333       0.000000
      0.500000       0.333333       0.000000
      0.500000       0.375000       0.000000
      0.458333       0.375000       0.000000
      0.416667       0.375000       0.000000
      0.458333       0.375000       0.000000
      0.458333       0.416667       0.000000
      0.416667       0.416667       0.000000
      0.458333       0.375000       0.000000
      0.500000       0.375000       0.000000
      0.500000       0.416667       0.000000
      0.458333       0.416667       0.000000
      0.333333       0.416667       0.000000
      0.375000       0.416667       0.000000
      0.375000       0.458333       0.000000
      0.333333       0.458333       0.000000
      0.375000       0.416667       0.000000
      0.416667       0.416667       0.000000
      0.416667       0.458333       0.000000
      0.375000       0.458333       0.000000
      0.333333       0.458333       0.000000
      0.375000       0.458333       0.000000
      0.375000       0.500000       0.000000
      0.333333       0.500000       0.000000
      0.375000       0.458333       0.000000
      0.416667       0.458333       0.000000
      0.416667       0.500000       0.000000
      0.375000       0.500000       0.000000
      0.416667       0.416667       0.000000
      0.437500       0.416667       0.000000
      0.437500       0.437500       0.000000
      0.416667       0.437500       0.000000
      0.437500       0.416667       0.000000
      0.458333       0.416667       0.000000
      0.458333       0.437500       0.000000
      0.437500       0.437500       0.000000
      0.416667       0.437500       0.000000
      0.437500       0.437500       0.000000
      0.437500       0.458333       0.000000
      0.416667       0.458333       0.000000
      0.437500       0.437500       0.000000
      0.458333       0.437500       0.000000
      0.458333       0.458333       0.000000
      0.437500       0.458333       0.000000
      0.458333       0.416667       0.000000
      0.479167       0.416667       0.000000
      0.479167       0.437500       0.000000
      0.458333       0.437500       0.000000
      0.479167       0.416667       0.000000
      0.500000       0.416667       0.000000
      0.500000       0.437500       0.000000
      0.479167       0.437500       0.000000
      0.458333       0.437500       0.000000
      0.479167       0.437500       0.000000
      0.479167       0.458333       0.000000
      0.458333       0.458333       0.000000
      0.479167       0.437500       0.000000
      0.500000       0.437500       0.000000
      0.500000       0.458333       0.000000
      0.479167       0.458333       0.000000
      0.416667       0.458333       0.000000
      0.437500       0.458333       0.000000
      0.437500       0.479167       0.000000
      0.416667       0.479167       0.000000
      0.437500       0.458333       0.000000
      0.458333       0.458333       0.000000
      0.458333       0.479167       0.000000
      0.437500       0.479167       0.000000
      0.416667       0.479167       0.000000
      0.437500       0.479167       0.000000
      0.437500       0.500000       0.000000
      0.416667       0.500000       0.000000
[...]
POINT_DATA  1152
VECTORS U float 
      0.000000       0.000000       0.000000
      0.000000       0.000000       0.000000
      0.000073      -0.000016       0.000000
      0.000054      -0.000018       0.000000
      0.000000       0.000000       0.000000
      0.000000       0.000000       0.000000
      0.000093       0.000014       0.000000
      0.000073      -0.000016       0.000000
      0.000054      -0.000018       0.000000
      0.000073      -0.000016       0.000000
      0.000079      -0.000043       0.000000
      0.000055      -0.000087       0.000000
      0.000073      -0.000016       0.000000
      0.000093       0.000014       0.000000
      0.000102       0.000018       0.000000
      0.000079      -0.000043       0.000000
      0.000000       0.000000       0.000000
      0.000000       0.000000       0.000000
      0.000111       0.000055       0.000000
      0.000093       0.000014       0.000000
      0.000000       0.000000       0.000000
      0.000000       0.000000       0.000000
      0.000121       0.000108       0.000000
      0.000111       0.000055       0.000000
      0.000093       0.000014       0.000000
      0.000111       0.000055       0.000000
      0.000126       0.000099       0.000000
      0.000102       0.000018       0.000000
      0.000111       0.000055       0.000000
      0.000121       0.000108       0.000000
      0.000141       0.000212       0.000000
      0.000126       0.000099       0.000000
      0.000000       0.000000       0.000000
      0.000000       0.000000       0.000000
      0.000113       0.000172       0.000000
      0.000121       0.000108       0.000000
      0.000000       0.000000       0.000000
      0.000000       0.000000       0.000000
      0.000079       0.000240       0.000000
      0.000113       0.000172       0.000000
      0.000121       0.000108       0.000000
      0.000113       0.000172       0.000000
      0.000127       0.000357       0.000000
      0.000141       0.000212       0.000000
      0.000113       0.000172       0.000000
      0.000079       0.000240       0.000000
      0.000065       0.000516       0.000000
      0.000127       0.000357       0.000000
      0.000055      -0.000087       0.000000
      0.000079      -0.000043       0.000000
      0.000005      -0.000074       0.000000
     -0.000018      -0.000165       0.000000
      0.000079      -0.000043       0.000000
      0.000102       0.000018       0.000000
      0.000027       0.000014       0.000000
      0.000005      -0.000074       0.000000
     -0.000018      -0.000165       0.000000
      0.000005      -0.000074       0.000000
     -0.000136      -0.000100       0.000000
     -0.000151      -0.000225       0.000000
      0.000005      -0.000074       0.000000
      0.000027       0.000014       0.000000
     -0.000124       0.000007       0.000000
     -0.000136      -0.000100       0.000000
      0.000102       0.000018       0.000000
      0.000126       0.000099       0.000000
      0.000052       0.000130       0.000000
      0.000027       0.000014       0.000000
      0.000126       0.000099       0.000000
      0.000141       0.000212       0.000000
      0.000072       0.000303       0.000000
      0.000052       0.000130       0.000000
      0.000027       0.000014       0.000000
      0.000052       0.000130       0.000000
     -0.000108       0.000145       0.000000
     -0.000124       0.000007       0.000000
      0.000052       0.000130       0.000000
      0.000072       0.000303       0.000000
     -0.000088       0.000366       0.000000
     -0.000108       0.000145       0.000000
      0.000141       0.000212       0.000000
      0.000127       0.000357       0.000000
      0.000061       0.000546       0.000000
      0.000072       0.000303       0.000000
      0.000127       0.000357       0.000000
      0.000065       0.000516       0.000000
     -0.000020       0.000827       0.000000
      0.000061       0.000546       0.000000
      0.000072       0.000303       0.000000
      0.000061       0.000546       0.000000
     -0.000084       0.000720       0.000000
     -0.000088       0.000366       0.000000
      0.000061       0.000546       0.000000
     -0.000020       0.000827       0.000000
     -0.000170       0.001180       0.000000
     -0.000084       0.000720       0.000000
     -0.000151      -0.000225       0.000000
     -0.000136      -0.000100       0.000000
     -0.000310      -0.000115       0.000000
     -0.000312      -0.000252       0.000000
     -0.000136      -0.000100       0.000000
     -0.000124       0.000007       0.000000
     -0.000319       0.000004       0.000000
     -0.000310      -0.000115       0.000000
     -0.000312      -0.000252       0.000000
     -0.000310      -0.000115       0.000000
     -0.000467      -0.000113       0.000000
     -0.000465      -0.000254       0.000000
     -0.000310      -0.000115       0.000000
     -0.000319       0.000004       0.000000
     -0.000496       0.000017       0.000000
     -0.000467      -0.000113       0.000000
     -0.000124       0.000007       0.000000
     -0.000108       0.000145       0.000000
     -0.000338       0.000152       0.000000
     -0.000319       0.000004       0.000000
     -0.000108       0.000145       0.000000
     -0.000088       0.000366       0.000000
     -0.000357       0.000393       0.000000
     -0.000338       0.000152       0.000000
     -0.000319       0.000004       0.000000
     -0.000338       0.000152       0.000000
     -0.000572       0.000178       0.000000
     -0.000496       0.000017       0.000000
     -0.000338       0.000152       0.000000
     -0.000357       0.000393       0.000000
     -0.000705       0.000430       0.000000
     -0.000572       0.000178       0.000000
     -0.000088       0.000366       0.000000
     -0.000080       0.000525       0.000000
     -0.000200       0.000560       0.000000
     -0.000208       0.000383       0.000000
     -0.000080       0.000525       0.000000
     -0.000084       0.000720       0.000000
     -0.000197       0.000790       0.000000
     -0.000200       0.000560       0.000000
     -0.000208       0.000383       0.000000
     -0.000200       0.000560       0.000000
     -0.000360       0.000580       0.000000
     -0.000357       0.000393       0.000000
     -0.000200       0.000560       0.000000
     -0.000197       0.000790       0.000000
     -0.000356       0.000837       0.000000
     -0.000360       0.000580       0.000000
     -0.000084       0.000720       0.000000
     -0.000110       0.000946       0.000000
     -0.000215       0.001072       0.000000
     -0.000197       0.000790       0.000000
     -0.000110       0.000946       0.000000
     -0.000170       0.001180       0.000000
     -0.000276       0.001379       0.000000
     -0.000215       0.001072       0.000000
     -0.000197       0.000790       0.000000
     -0.000215       0.001072       0.000000
     -0.000360       0.001186       0.000000
     -0.000356       0.000837       0.000000
     -0.000215       0.001072       0.000000
     -0.000276       0.001379       0.000000
     -0.000417       0.001603       0.000000
     -0.000360       0.001186       0.000000
     -0.000357       0.000393       0.000000
     -0.000360       0.000580       0.000000
     -0.000565       0.000593       0.000000
     -0.000530       0.000405       0.000000
     -0.000360       0.000580       0.000000
     -0.000356       0.000837       0.000000
     -0.000590       0.000859       0.000000
     -0.000565       0.000593       0.000000
     -0.000530       0.000405       0.000000
     -0.000565       0.000593       0.000000
     -0.000794       0.000621       0.000000
     -0.000705       0.000430       0.000000
     -0.000565       0.000593       0.000000
     -0.000590       0.000859       0.000000
     -0.000901       0.000887       0.000000
     -0.000794       0.000621       0.000000
     -0.000356       0.000837       0.000000
     -0.000355       0.001000       0.000000
     -0.000460       0.001023       0.000000
     -0.000462       0.000850       0.000000
     -0.000355       0.001000       0.000000
     -0.000360       0.001186       0.000000
     -0.000460       0.001231       0.000000
     -0.000460       0.001023       0.000000
     -0.000462       0.000850       0.000000
     -0.000460       0.001023       0.000000
     -0.000594       0.001037       0.000000
     -0.000590       0.000859       0.000000
     -0.000460       0.001023       0.000000
     -0.000460       0.001231       0.000000
     -0.000592       0.001262       0.000000
     -0.000594       0.001037       0.000000
     -0.000360       0.001186       0.000000
     -0.000379       0.001392       0.000000
     -0.000471       0.001473       0.000000
     -0.000460       0.001231       0.000000
     -0.000379       0.001392       0.000000
     -0.000417       0.001603       0.000000
     -0.000509       0.001732       0.000000
     -0.000471       0.001473       0.000000
     -0.000460       0.001231       0.000000
     -0.000471       0.001473       0.000000
     -0.000591       0.001549       0.000000
     -0.000592       0.001262       0.000000
     -0.000471       0.001473       0.000000
     -0.000509       0.001732       0.000000
     -0.000624       0.001885       0.000000
     -0.000591       0.001549       0.000000
     -0.000590       0.000859       0.000000
     -0.000594       0.001037       0.000000
     -0.000765       0.001046       0.000000
     -0.000740       0.000868       0.000000
     -0.000594       0.001037       0.000000
     -0.000592       0.001262       0.000000
     -0.000779       0.001275       0.000000
     -0.000765       0.001046       0.000000
     -0.000740       0.000868       0.000000
     -0.000765       0.001046       0.000000
     -0.000962       0.001064       0.000000
     -0.000901       0.000887       0.000000
     -0.000765       0.001046       0.000000
     -0.000779       0.001275       0.000000
     -0.001031       0.001292       0.000000
     -0.000962       0.001064       0.000000
     -0.000592       0.001262       0.000000
     -0.000590       0.001397       0.000000
     -0.000673       0.001412       0.000000
     -0.000677       0.001270       0.000000
     -0.000590       0.001397       0.000000
     -0.000591       0.001549       0.000000
     -0.000670       0.001579       0.000000
     -0.000673       0.001412       0.000000
     -0.000677       0.001270       0.000000
     -0.000673       0.001412       0.000000
     -0.000779       0.001420       0.000000
     -0.000779       0.001275       0.000000
     -0.000673       0.001412       0.000000
     -0.000670       0.001579       0.000000
     -0.000773       0.001600       0.000000
     -0.000779       0.001420       0.000000
     -0.000591       0.001549       0.000000
     -0.000601       0.001715       0.000000
     -0.000674       0.001773       0.000000
     -0.000670       0.001579       0.000000
     -0.000601       0.001715       0.000000
     -0.000624       0.001885       0.000000
     -0.000697       0.001978       0.000000
     -0.000674       0.001773       0.000000
     -0.000670       0.001579       0.000000
     -0.000674       0.001773       0.000000
     -0.000766       0.001829       0.000000
     -0.000773       0.001600       0.000000
     -0.000674       0.001773       0.000000
     -0.000697       0.001978       0.000000
     -0.000787       0.002097       0.000000
     -0.000766       0.001829       0.000000
     -0.000779       0.001275       0.000000
     -0.000779       0.001420       0.000000
     -0.000914       0.001425       0.000000
     -0.000900       0.001280       0.000000
     -0.000779       0.001420       0.000000
     -0.000773       0.001600       0.000000
     -0.000919       0.001608       0.000000
     -0.000914       0.001425       0.000000
     -0.000900       0.001280       0.000000
     -0.000914       0.001425       0.000000
     -0.001071       0.001436       0.000000
     -0.001031       0.001292       0.000000
     -0.000914       0.001425       0.000000
     -0.000919       0.001608       0.000000
     -0.001120       0.001620       0.000000
     -0.001071       0.001436       0.000000
     -0.000773       0.001600       0.000000
     -0.000766       0.001829       0.000000
     -0.000905       0.001870       0.000000
     -0.000919       0.001608       0.000000
     -0.000766       0.001829       0.000000
     -0.000787       0.002097       0.000000
     -0.000915       0.002277       0.000000
     -0.000905       0.001870       0.000000
     -0.000919       0.001608       0.000000
     -0.000905       0.001870       0.000000
     -0.001186       0.001894       0.000000
     -0.001120       0.001620       0.000000
     -0.000905       0.001870       0.000000
     -0.000915       0.002277       0.000000
     -0.001283       0.002815       0.000000
     -0.001186       0.001894       0.000000
      0.000000       0.000000       0.000000
      0.000000       0.000000       0.000000
      0.000018       0.000301       0.000000
      0.000079       0.000240       0.000000
      0.000000       0.000000       0.000000
      0.000000       0.000000       0.000000
     -0.000063       0.000348       0.000000
      0.000018       0.000301       0.000000
      0.000079       0.000240       0.000000
      0.000018       0.000301       0.000000
     -0.000047       0.000657       0.000000
      0.000065       0.000516       0.000000
      0.000018       0.000301       0.000000
     -0.000063       0.000348       0.000000
     -0.000195       0.000762       0.000000
     -0.000047       0.000657       0.000000
      0.000000       0.000000       0.000000
      0.000000       0.000000       0.000000
     -0.000155       0.000384       0.000000
     -0.000063       0.000348       0.000000
      0.000000       0.000000       0.000000
      0.000000       0.000000       0.000000
     -0.000262       0.000426       0.000000
     -0.000155       0.000384       0.000000
     -0.000063       0.000348       0.000000
     -0.000155       0.000384       0.000000
     -0.000362       0.000839       0.000000
     -0.000195       0.000762       0.000000
     -0.000155       0.000384       0.000000
     -0.000262       0.000426       0.000000
     -0.000545       0.000920       0.000000
     -0.000362       0.000839       0.000000
      0.000000       0.000000       0.000000
      0.000000       0.000000       0.000000
     -0.000409       0.000513       0.000000
     -0.000262       0.000426       0.000000
      0.000000       0.000000       0.000000
      0.000000       0.000000       0.000000
     -0.000634       0.000775       0.000000
     -0.000409       0.000513       0.000000
     -0.000262       0.000426       0.000000
     -0.000409       0.000513       0.000000
     -0.000751       0.001054       0.000000
     -0.000545       0.000920       0.000000
     -0.000409       0.000513       0.000000
     -0.000634       0.000775       0.000000
     -0.000965       0.001287       0.000000
     -0.000751       0.001054       0.000000
      0.000065       0.000516       0.000000
     -0.000047       0.000657       0.000000
     -0.000179       0.001073       0.000000
     -0.000020       0.000827       0.000000
     -0.000047       0.000657       0.000000
     -0.000195       0.000762       0.000000
     -0.000382       0.001239       0.000000
     -0.000179       0.001073       0.000000
     -0.000020       0.000827       0.000000
     -0.000179       0.001073       0.000000
     -0.000379       0.001566       0.000000
     -0.000170       0.001180       0.000000
     -0.000179       0.001073       0.000000
     -0.000382       0.001239       0.000000
     -0.000618       0.001771       0.000000
     -0.000379       0.001566       0.000000
     -0.000195       0.000762       0.000000
     -0.000362       0.000839       0.000000
     -0.000595       0.001343       0.000000
     -0.000382       0.001239       0.000000
     -0.000362       0.000839       0.000000
     -0.000545       0.000920       0.000000
     -0.000808       0.001434       0.000000
     -0.000595       0.001343       0.000000
     -0.000382       0.001239       0.000000
     -0.000595       0.001343       0.000000
     -0.000834       0.001866       0.000000
     -0.000618       0.001771       0.000000
     -0.000595       0.001343       0.000000
     -0.000808       0.001434       0.000000
     -0.001036       0.001937       0.000000
     -0.000834       0.001866       0.000000
     -0.000545       0.000920       0.000000
     -0.000751       0.001054       0.000000
     -0.001019       0.001559       0.000000
     -0.000808       0.001434       0.000000
     -0.000751       0.001054       0.000000
     -0.000965       0.001287       0.000000
     -0.001218       0.001748       0.000000
     -0.001019       0.001559       0.000000
     -0.000808       0.001434       0.000000
     -0.001019       0.001559       0.000000
     -0.001233       0.002031       0.000000
     -0.001036       0.001937       0.000000
     -0.001019       0.001559       0.000000
     -0.001218       0.001748       0.000000
     -0.001417       0.002170       0.000000
     -0.001233       0.002031       0.000000
     -0.000618       0.001771       0.000000
     -0.000834       0.001866       0.000000
     -0.001035       0.002371       0.000000
     -0.000877       0.002321       0.000000
     -0.000834       0.001866       0.000000
     -0.001036       0.001937       0.000000
     -0.001203       0.002415       0.000000
     -0.001035       0.002371       0.000000
     -0.000877       0.002321       0.000000
     -0.001035       0.002371       0.000000
     -0.001128       0.002840       0.000000
     -0.001021       0.002820       0.000000
     -0.001035       0.002371       0.000000
     -0.001203       0.002415       0.000000
     -0.001276       0.002868       0.000000
     -0.001128       0.002840       0.000000
     -0.001036       0.001937       0.000000
     -0.001233       0.002031       0.000000
     -0.001381       0.002474       0.000000
     -0.001203       0.002415       0.000000
     -0.001233       0.002031       0.000000
     -0.001417       0.002170       0.000000
     -0.001553       0.002558       0.000000
     -0.001381       0.002474       0.000000
     -0.001203       0.002415       0.000000
     -0.001381       0.002474       0.000000
     -0.001445       0.002901       0.000000
     -0.001276       0.002868       0.000000
     -0.001381       0.002474       0.000000
     -0.001553       0.002558       0.000000
     -0.001614       0.002928       0.000000
     -0.001445       0.002901       0.000000
     -0.000170       0.001180       0.000000
     -0.000263       0.001394       0.000000
     -0.000384       0.001653       0.000000
     -0.000276       0.001379       0.000000
     -0.000263       0.001394       0.000000
     -0.000379       0.001566       0.000000
     -0.000515       0.001853       0.000000
     -0.000384       0.001653       0.000000
     -0.000276       0.001379       0.000000
     -0.000384       0.001653       0.000000
     -0.000547       0.001962       0.000000
     -0.000417       0.001603       0.000000
     -0.000384       0.001653       0.000000
     -0.000515       0.001853       0.000000
     -0.000684       0.002172       0.000000
     -0.000547       0.001962       0.000000
     -0.000379       0.001566       0.000000
     -0.000500       0.001689       0.000000
     -0.000639       0.001977       0.000000
     -0.000515       0.001853       0.000000
     -0.000500       0.001689       0.000000
     -0.000618       0.001771       0.000000
     -0.000750       0.002048       0.000000
     -0.000639       0.001977       0.000000
     -0.000515       0.001853       0.000000
     -0.000639       0.001977       0.000000
     -0.000791       0.002272       0.000000