# vtk DataFile Version 2.0
time_10.vtk
ASCII
DATASET UNSTRUCTURED_GRID
POINTS  1152 float
      0.000000       0.000000       0.000000
      0.083333       0.000000       0.000000
      0.083333       0.083333       0.000000
      0.000000       0.083333       0.000000
      0.083333       0.000000       0.000000
      0.166667       0.000000       0.000000
      0.166667       0.083333       0.000000
      0.083333       0.083333       0.000000
      0.000000       0.083333       0.000000
      0.083333       0.083333       0.000000
      0.083333       0.166667       0.000000
      0.000000       0.166667       0.000000
      0.083333       0.083333       0.000000
      0.166667       0.083333       0.000000
      0.166667       0.166667       0.000000
      0.083333       0.166667       0.000000
      0.166667       0.000000       0.000000
      0.250000       0.000000       0.000000
      0.250000       0.083333       0.000000
      0.166667       0.083333       0.000000
      0.250000       0.000000       0.000000
      0.333333       0.000000       0.000000
      0.333333       0.083333       0.000000
      0.250000       0.083333       0.000000
      0.166667       0.083333       0.000000
      0.250000       0.083333       0.000000
      0.250000       0.166667       0.000000
      0.166667       0.166667       0.000000
      0.250000       0.083333       0.000000
      0.333333       0.083333       0.000000
      0.333333       0.166667       0.000000
      0.250000       0.166667       0.000000
      0.333333       0.000000       0.000000
      0.416667      -0.000000       0.000000
      0.416667       0.083333       0.000000
      0.333333       0.083333       0.000000
      0.416667      -0.000000       0.000000
      0.500000       0.000000       0.000000
      0.500000       0.083333       0.000000
      0.416667       0.083333       0.000000
      0.333333       0.083333       0.000000
      0.416667       0.083333       0.000000
      0.416667       0.166667       0.000000
      0.333333       0.166667       0.000000
      0.416667       0.083333       0.000000
      0.500000       0.083333       0.000000
      0.500000       0.166667       0.000000
      0.416667       0.166667       0.000000
      0.000000       0.166667       0.000000
      0.083333       0.166667       0.000000
      0.083333       0.250000       0.000000
      0.000000       0.250000       0.000000
      0.083333       0.166667       0.000000
      0.166667       0.166667       0.000000
      0.166667       0.250000       0.000000
      0.083333       0.250000       0.000000
      0.000000       0.250000       0.000000
      0.083333       0.250000       0.000000
      0.083333       0.333333       0.000000
      0.000000       0.333333       0.000000
      0.083333       0.250000       0.000000
      0.166667       0.250000       0.000000
      0.166667       0.333333       0.000000
      0.083333       0.333333       0.000000
      0.166667       0.166667       0.000000
      0.250000       0.166667       0.000000
      0.250000       0.250000       0.000000
      0.166667       0.250000       0.000000
      0.250000       0.166667       0.000000
      0.333333       0.166667       0.000000
      0.333333       0.250000       0.000000
      0.250000       0.250000       0.000000
      0.166667       0.250000       0.000000
      0.250000       0.250000       0.000000
      0.250000       0.333333       0.000000
      0.166667       0.333333       0.000000
      0.250000       0.250000       0.000000
      0.333333       0.250000       0.000000
      0.333333       0.333333       0.000000
      0.250000       0.333333       0.000000
      0.333333       0.166667       0.000000
      0.416667       0.166667       0.000000
      0.416667       0.250000       0.000000
      0.333333       0.250000       0.000000
      0.416667       0.166667       0.000000
      0.500000       0.166667       0.000000
      0.500000       0.250000       0.000000
      0.416667       0.250000       0.000000
      0.333333       0.250000       0.000000
      0.416667       0.250000       0.000000
      0.416667       0.333333       0.000000
      0.333333       0.333333       0.000000
      0.416667       0.250000       0.000000
      0.500000       0.250000       0.000000
      0.500000       0.333333       0.000000
      0.416667       0.333333       0.000000
      0.000000       0.333333       0.000000
      0.083333       0.333333       0.000000
      0.083333       0.416667       0.000000
     -0.000000       0.416667       0.000000
      0.083333       0.333333       0.000000
      0.166667       0.333333       0.000000
      0.166667       0.416667       0.000000
      0.083333       0.416667       0.000000
     -0.000000       0.416667       0.000000
      0.083333       0.416667       0.000000
      0.083333       0.500000       0.000000
      0.000000       0.500000       0.000000
      0.083333       0.416667       0.000000
      0.166667       0.416667       0.000000
      0.166667       0.500000       0.000000
      0.083333       0.500000       0.000000
      0.166667       0.333333       0.000000
      0.250000       0.333333       0.000000
      0.250000       0.416667       0.000000
      0.166667       0.416667       0.000000
      0.250000       0.333333       0.000000
      0.333333       0.333333       0.000000
      0.333333       0.416667       0.000000
      0.250000       0.416667       0.000000
      0.166667       0.416667       0.000000
      0.250000       0.416667       0.000000
      0.250000       0.500000       0.000000
      0.166667       0.500000       0.000000
      0.250000       0.416667       0.000000
      0.333333       0.416667       0.000000
      0.333333       0.500000       0.000000
      0.250000       0.500000       0.000000
      0.333333       0.333333       0.000000
      0.375000       0.333333       0.000000
      0.375000       0.375000       0.000000
      0.333333       0.375000       0.000000
      0.375000       0.333333       0.000000
      0.416667       0.333333       0.000000
      0.416667       0.375000       0.000000
      0.375000       0.375000       0.000000
      0.333333       0.375000       0.000000
      0.375000       0.375000       0.000000
      0.375000       0.416667       0.000000
      0.333333       0.416667       0.000000
      0.375000       0.375000       0.000000
      0.416667       0.375000       0.000000
      0.416667       0.416667       0.000000
      0.375000       0.416667       0.000000
      0.416667       0.333333       0.000000
      0.458333       0.333333       0.000000
      0.458333       0.375000       0.000000
      0.416667       0.375000       0.000000
      0.458333       0.333333       0.000000
      0.500000       0.333333       0.000000
      0.500000       0.375000       0.000000
      0.458333       0.375000       0.000000
      0.416667       0.375000       0.000000
      0.458333       0.375000       0.000000
      0.458333       0.416667       0.000000
      0.416667       0.416667       0.000000
      0.458333       0.375000       0.000000
      0.500000       0.375000       0.000000
      0.500000       0.416667       0.000000
      0.458333       0.416667       0.000000
      0.333333       0.416667       0.000000
      0.375000       0.416667       0.000000
      0.375000       0.458333       0.000000
      0.333333       0.458333       0.000000
      0.375000       0.416667       0.000000
      0.416667       0.416667       0.000000
      0.416667       0.458333       0.000000
      0.375000       0.458333       0.000000
      0.333333       0.458333       0.000000
      0.375000       0.458333       0.000000
      0.375000       0.500000       0.000000
      0.333333       0.500000       0.000000
      0.375000       0.458333       0.000000
      0.416667       0.458333       0.000000
      0.416667       0.500000       0.000000
      0.375000       0.500000       0.000000
      0.416667       0.416667       0.000000
      0.437500       0.416667       0.000000
      0.437500       0.437500       0.000000
      0.416667       0.437500       0.000000
      0.437500       0.416667       0.000000
      0.458333       0.416667       0.000000
      0.458333       0.437500       0.000000
      0.437500       0.437500       0.000000
      0.416667       0.437500       0.000000
      0.437500       0.437500       0.000000
      0.437500       0.458333       0.000000
      0.416667       0.458333       0.000000
      0.437500       0.437500       0.000000
      0.458333       0.437500       0.000000
      0.458333       0.458333       0.000000
      0.437500       0.458333       0.000000
      0.458333       0.416667       0.000000
      0.479167       0.416667       0.000000
      0.479167       0.437500       0.000000
      0.458333       0.437500       0.000000
      0.479167       0.416667       0.000000
      0.500000       0.416667       0.000000
      0.500000       0.437500       0.000000
      0.479167       0.437500       0.000000
      0.458333       0.437500       0.000000
      0.479167       0.437500       0.000000
      0.479167       0.458333       0.000000
      0.458333       0.458333       0.000000
      0.479167       0.437500       0.000000
      0.500000       0.437500       0.000000
      0.500000       0.458333       0.000000
      0.479167       0.458333       0.000000
      0.416667       0.458333       0.000000
      0.437500       0.458333       0.000000
      0.437500       0.479167       0.000000
      0.416667       0.479167       0.000000
      0.437500       0.458333       0.000000
      0.458333       0.458333       0.000000
      0.458333       0.479167       0.000000
      0.437500       0.479167       0.000000
      0.416667       0.479167       0.000000
      0.437500       0.479167       0.000000
      0.437500       0.500000       0.000000
      0.416667       0.500000       0.000000
[...]
POINT_DATA  1152
VECTORS U float 
      0.000000       0.000000       0.000000
      0.000000       0.000000       0.000000
      0.000071      -0.000018       0.000000
      0.000051      -0.000020       0.000000
      0.000000       0.000000       0.000000
      0.000000       0.000000       0.000000
      0.000092       0.000013       0.000000
      0.000071      -0.000018       0.000000
      0.000051      -0.000020       0.000000
      0.000071      -0.000018       0.000000
      0.000076      -0.000046       0.000000
      0.000050      -0.000092       0.000000
      0.000071      -0.000018       0.000000
      0.000092       0.000013       0.000000
      0.000099       0.000016       0.000000
      0.000076      -0.000046       0.000000
      0.000000       0.000000       0.000000
      0.000000       0.000000       0.000000
      0.000111       0.000054       0.000000
      0.000092       0.000013       0.000000
      0.000000       0.000000       0.000000
      0.000000       0.000000       0.000000
      0.000122       0.000108       0.000000
      0.000111       0.000054       0.000000
      0.000092       0.000013       0.000000
      0.000111       0.000054       0.000000
      0.000124       0.000097       0.000000
      0.000099       0.000016       0.000000
      0.000111       0.000054       0.000000
      0.000122       0.000108       0.000000
      0.000140       0.000211       0.000000
      0.000124       0.000097       0.000000
      0.000000       0.000000       0.000000
      0.000000       0.000000       0.000000
      0.000115       0.000173       0.000000
      0.000122       0.000108       0.000000
      0.000000       0.000000       0.000000
      0.000000       0.000000       0.000000
      0.000081       0.000242       0.000000
      0.000115       0.000173       0.000000
      0.000122       0.000108       0.000000
      0.000115       0.000173       0.000000
      0.000127       0.000358       0.000000
      0.000140       0.000211       0.000000
      0.000115       0.000173       0.000000
      0.000081       0.000242       0.000000
      0.000066       0.000520       0.000000
      0.000127       0.000358       0.000000
      0.000050      -0.000092       0.000000
      0.000076      -0.000046       0.000000
     -0.000001      -0.000078       0.000000
     -0.000024      -0.000171       0.000000
      0.000076      -0.000046       0.000000
      0.000099       0.000016       0.000000
      0.000021       0.000011       0.000000
     -0.000001      -0.000078       0.000000
     -0.000024      -0.000171       0.000000
     -0.000001      -0.000078       0.000000
     -0.000144      -0.000105       0.000000
     -0.000159      -0.000231       0.000000
     -0.000001      -0.000078       0.000000
      0.000021       0.000011       0.000000
     -0.000133       0.000003       0.000000
     -0.000144      -0.000105       0.000000
      0.000099       0.000016       0.000000
      0.000124       0.000097       0.000000
      0.000047       0.000127       0.000000
      0.000021       0.000011       0.000000
      0.000124       0.000097       0.000000
      0.000140       0.000211       0.000000
      0.000068       0.000300       0.000000
      0.000047       0.000127       0.000000
      0.000021       0.000011       0.000000
      0.000047       0.000127       0.000000
     -0.000117       0.000141       0.000000
     -0.000133       0.000003       0.000000
      0.000047       0.000127       0.000000
      0.000068       0.000300       0.000000
     -0.000096       0.000362       0.000000
     -0.000117       0.000141       0.000000
      0.000140       0.000211       0.000000
      0.000127       0.000358       0.000000
      0.000058       0.000546       0.000000
      0.000068       0.000300       0.000000
      0.000127       0.000358       0.000000
      0.000066       0.000520       0.000000
     -0.000020       0.000832       0.000000
      0.000058       0.000546       0.000000
      0.000068       0.000300       0.000000
      0.000058       0.000546       0.000000
     -0.000092       0.000717       0.000000
     -0.000096       0.000362       0.000000
      0.000058       0.000546       0.000000
     -0.000020       0.000832       0.000000
     -0.000174       0.001184       0.000000
     -0.000092       0.000717       0.000000
     -0.000159      -0.000231       0.000000
     -0.000144      -0.000105       0.000000
     -0.000320      -0.000119       0.000000
     -0.000322      -0.000258       0.000000
     -0.000144      -0.000105       0.000000
     -0.000133       0.000003       0.000000
     -0.000330      -0.000000       0.000000
     -0.000320      -0.000119       0.000000
     -0.000322      -0.000258       0.000000
     -0.000320      -0.000119       0.000000
     -0.000479      -0.000118       0.000000
     -0.000477      -0.000260       0.000000
     -0.000320      -0.000119       0.000000
     -0.000330      -0.000000       0.000000
     -0.000508       0.000014       0.000000
     -0.000479      -0.000118       0.000000
     -0.000133       0.000003       0.000000
     -0.000117       0.000141       0.000000
     -0.000350       0.000148       0.000000
     -0.000330      -0.000000       0.000000
     -0.000117       0.000141       0.000000
     -0.000096       0.000362       0.000000
     -0.000370       0.000389       0.000000
     -0.000350       0.000148       0.000000
     -0.000330      -0.000000       0.000000
     -0.000350       0.000148       0.000000
     -0.000585       0.000174       0.000000
     -0.000508       0.000014       0.000000
     -0.000350       0.000148       0.000000
     -0.000370       0.000389       0.000000
     -0.000718       0.000426       0.000000
     -0.000585       0.000174       0.000000
     -0.000096       0.000362       0.000000
     -0.000089       0.000521       0.000000
     -0.000212       0.000555       0.000000
     -0.000219       0.000378       0.000000
     -0.000089       0.000521       0.000000
     -0.000092       0.000717       0.000000
     -0.000209       0.000784       0.000000
     -0.000212       0.000555       0.000000
     -0.000219       0.000378       0.000000
     -0.000212       0.000555       0.000000
     -0.000374       0.000574       0.000000
     -0.000370       0.000389       0.000000
     -0.000212       0.000555       0.000000
     -0.000209       0.000784       0.000000
     -0.000372       0.000830       0.000000
     -0.000374       0.000574       0.000000
     -0.000092       0.000717       0.000000
     -0.000117       0.000945       0.000000
     -0.000225       0.001068       0.000000
     -0.000209       0.000784       0.000000
     -0.000117       0.000945       0.000000
     -0.000174       0.001184       0.000000
     -0.000283       0.001380       0.000000
     -0.000225       0.001068       0.000000
     -0.000209       0.000784       0.000000
     -0.000225       0.001068       0.000000
     -0.000376       0.001177       0.000000
     -0.000372       0.000830       0.000000
     -0.000225       0.001068       0.000000
     -0.000283       0.001380       0.000000
     -0.000428       0.001598       0.000000
     -0.000376       0.001177       0.000000
     -0.000370       0.000389       0.000000
     -0.000374       0.000574       0.000000
     -0.000580       0.000588       0.000000
     -0.000544       0.000400       0.000000
     -0.000374       0.000574       0.000000
     -0.000372       0.000830       0.000000
     -0.000607       0.000852       0.000000
     -0.000580       0.000588       0.000000
     -0.000544       0.000400       0.000000
     -0.000580       0.000588       0.000000
     -0.000808       0.000616       0.000000
     -0.000718       0.000426       0.000000
     -0.000580       0.000588       0.000000
     -0.000607       0.000852       0.000000
     -0.000915       0.000880       0.000000
     -0.000808       0.000616       0.000000
     -0.000372       0.000830       0.000000
     -0.000371       0.000991       0.000000
     -0.000478       0.001014       0.000000
     -0.000479       0.000843       0.000000
     -0.000371       0.000991       0.000000
     -0.000376       0.001177       0.000000
     -0.000478       0.001220       0.000000
     -0.000478       0.001014       0.000000
     -0.000479       0.000843       0.000000
     -0.000478       0.001014       0.000000
     -0.000613       0.001028       0.000000
     -0.000607       0.000852       0.000000
     -0.000478       0.001014       0.000000
     -0.000478       0.001220       0.000000
     -0.000612       0.001248       0.000000
     -0.000613       0.001028       0.000000
     -0.000376       0.001177       0.000000
     -0.000392       0.001383       0.000000
     -0.000488       0.001460       0.000000
     -0.000478       0.001220       0.000000
     -0.000392       0.001383       0.000000
     -0.000428       0.001598       0.000000
     -0.000523       0.001722       0.000000
     -0.000488       0.001460       0.000000
     -0.000478       0.001220       0.000000
     -0.000488       0.001460       0.000000
     -0.000612       0.001530       0.000000
     -0.000612       0.001248       0.000000
     -0.000488       0.001460       0.000000
     -0.000523       0.001722       0.000000
     -0.000642       0.001866       0.000000
     -0.000612       0.001530       0.000000
     -0.000607       0.000852       0.000000
     -0.000613       0.001028       0.000000
     -0.000782       0.001037       0.000000
     -0.000756       0.000861       0.000000
     -0.000613       0.001028       0.000000
     -0.000612       0.001248       0.000000
     -0.000799       0.001261       0.000000
     -0.000782       0.001037       0.000000
     -0.000756       0.000861       0.000000
     -0.000782       0.001037       0.000000
     -0.000976       0.001056       0.000000
     -0.000915       0.000880       0.000000
     -0.000782       0.001037       0.000000
     -0.000799       0.001261       0.000000
     -0.001045       0.001279       0.000000
     -0.000976       0.001056       0.000000
     -0.000612       0.001248       0.000000
     -0.000611       0.001381       0.000000
     -0.000695       0.001395       0.000000
     -0.000697       0.001256       0.000000
     -0.000611       0.001381       0.000000
     -0.000612       0.001530       0.000000
     -0.000692       0.001558       0.000000
     -0.000695       0.001395       0.000000
     -0.000697       0.001256       0.000000
     -0.000695       0.001395       0.000000
     -0.000800       0.001403       0.000000
     -0.000799       0.001261       0.000000
     -0.000695       0.001395       0.000000
     -0.000692       0.001558       0.000000
     -0.000795       0.001577       0.000000
     -0.000800       0.001403       0.000000
     -0.000612       0.001530       0.000000
     -0.000621       0.001694       0.000000
     -0.000696       0.001748       0.000000
     -0.000692       0.001558       0.000000
     -0.000621       0.001694       0.000000
     -0.000642       0.001866       0.000000
     -0.000717       0.001954       0.000000
     -0.000696       0.001748       0.000000
     -0.000692       0.001558       0.000000
     -0.000696       0.001748       0.000000
     -0.000790       0.001800       0.000000
     -0.000795       0.001577       0.000000
     -0.000696       0.001748       0.000000
     -0.000717       0.001954       0.000000
     -0.000809       0.002066       0.000000
     -0.000790       0.001800       0.000000
     -0.000799       0.001261       0.000000
     -0.000800       0.001403       0.000000
     -0.000932       0.001408       0.000000
     -0.000917       0.001267       0.000000
     -0.000800       0.001403       0.000000
     -0.000795       0.001577       0.000000
     -0.000938       0.001584       0.000000
     -0.000932       0.001408       0.000000
     -0.000917       0.001267       0.000000
     -0.000932       0.001408       0.000000
     -0.001085       0.001421       0.000000
     -0.001045       0.001279       0.000000
     -0.000932       0.001408       0.000000
     -0.000938       0.001584       0.000000
     -0.001133       0.001600       0.000000
     -0.001085       0.001421       0.000000
     -0.000795       0.001577       0.000000
     -0.000790       0.001800       0.000000
     -0.000926       0.001838       0.000000
     -0.000938       0.001584       0.000000
     -0.000790       0.001800       0.000000
     -0.000809       0.002066       0.000000
     -0.000937       0.002245       0.000000
     -0.000926       0.001838       0.000000
     -0.000938       0.001584       0.000000
     -0.000926       0.001838       0.000000
     -0.001203       0.001870       0.000000
     -0.001133       0.001600       0.000000
     -0.000926       0.001838       0.000000
     -0.000937       0.002245       0.000000
     -0.001334       0.002895       0.000000
     -0.001203       0.001870       0.000000
      0.000000       0.000000       0.000000
      0.000000       0.000000       0.000000
      0.000020       0.000305       0.000000
      0.000081       0.000242       0.000000
      0.000000       0.000000       0.000000
      0.000000       0.000000       0.000000
     -0.000062       0.000354       0.000000
      0.000020       0.000305       0.000000
      0.000081       0.000242       0.000000
      0.000020       0.000305       0.000000
     -0.000046       0.000666       0.000000
      0.000066       0.000520       0.000000
      0.000020       0.000305       0.000000
     -0.000062       0.000354       0.000000
     -0.000197       0.000777       0.000000
     -0.000046       0.000666       0.000000
      0.000000       0.000000       0.000000
      0.000000       0.000000       0.000000
     -0.000157       0.000393       0.000000
     -0.000062       0.000354       0.000000
      0.000000       0.000000       0.000000
      0.000000       0.000000       0.000000
     -0.000267       0.000437       0.000000
     -0.000157       0.000393       0.000000
     -0.000062       0.000354       0.000000
     -0.000157       0.000393       0.000000
     -0.000368       0.000859       0.000000
     -0.000197       0.000777       0.000000
     -0.000157       0.000393       0.000000
     -0.000267       0.000437       0.000000
     -0.000558       0.000945       0.000000
     -0.000368       0.000859       0.000000
      0.000000       0.000000       0.000000
      0.000000       0.000000       0.000000
     -0.000419       0.000528       0.000000
     -0.000267       0.000437       0.000000
      0.000000       0.000000       0.000000
      0.000000       0.000000       0.000000
     -0.000650       0.000798       0.000000
     -0.000419       0.000528       0.000000
     -0.000267       0.000437       0.000000
     -0.000419       0.000528       0.000000
     -0.000769       0.001085       0.000000
     -0.000558       0.000945       0.000000
     -0.000419       0.000528       0.000000
     -0.000650       0.000798       0.000000
     -0.000990       0.001326       0.000000
     -0.000769       0.001085       0.000000
      0.000066       0.000520       0.000000
     -0.000046       0.000666       0.000000
     -0.000180       0.001088       0.000000
     -0.000020       0.000832       0.000000
     -0.000046       0.000666       0.000000
     -0.000197       0.000777       0.000000
     -0.000388       0.001264       0.000000
     -0.000180       0.001088       0.000000
     -0.000020       0.000832       0.000000
     -0.000180       0.001088       0.000000
     -0.000385       0.001589       0.000000
     -0.000174       0.001184       0.000000
     -0.000180       0.001088       0.000000
     -0.000388       0.001264       0.000000
     -0.000632       0.001811       0.000000
     -0.000385       0.001589       0.000000
     -0.000197       0.000777       0.000000
     -0.000368       0.000859       0.000000
     -0.000609       0.001377       0.000000
     -0.000388       0.001264       0.000000
     -0.000368       0.000859       0.000000
     -0.000558       0.000945       0.000000
     -0.000829       0.001473       0.000000
     -0.000609       0.001377       0.000000
     -0.000388       0.001264       0.000000
     -0.000609       0.001377       0.000000
     -0.000856       0.001915       0.000000
     -0.000632       0.001811       0.000000
     -0.000609       0.001377       0.000000
     -0.000829       0.001473       0.000000
     -0.001066       0.001991       0.000000
     -0.000856       0.001915       0.000000
     -0.000558       0.000945       0.000000
     -0.000769       0.001085       0.000000
     -0.001046       0.001604       0.000000
     -0.000829       0.001473       0.000000
     -0.000769       0.001085       0.000000
     -0.000990       0.001326       0.000000
     -0.001251       0.001800       0.000000
     -0.001046       0.001604       0.000000
     -0.000829       0.001473       0.000000
     -0.001046       0.001604       0.000000
     -0.001268       0.002088       0.000000
     -0.001066       0.001991       0.000000
     -0.001046       0.001604       0.000000
     -0.001251       0.001800       0.000000
     -0.001457       0.002233       0.000000
     -0.001268       0.002088       0.000000
     -0.000632       0.001811       0.000000
     -0.000856       0.001915       0.000000
     -0.001068       0.002436       0.000000
     -0.000903       0.002381       0.000000
     -0.000856       0.001915       0.000000
     -0.001066       0.001991       0.000000
     -0.001240       0.002482       0.000000
     -0.001068       0.002436       0.000000
     -0.000903       0.002381       0.000000
     -0.001068       0.002436       0.000000
     -0.001166       0.002918       0.000000
     -0.001057       0.002899       0.000000
     -0.001068       0.002436       0.000000
     -0.001240       0.002482       0.000000
     -0.001316       0.002947       0.000000
     -0.001166       0.002918       0.000000
     -0.001066       0.001991       0.000000
     -0.001268       0.002088       0.000000
     -0.001423       0.002543       0.000000
     -0.001240       0.002482       0.000000
     -0.001268       0.002088       0.000000
     -0.001457       0.002233       0.000000
     -0.001599       0.002630       0.000000
     -0.001423       0.002543       0.000000
     -0.001240       0.002482       0.000000
     -0.001423       0.002543       0.000000
     -0.001489       0.002980       0.000000
     -0.001316       0.002947       0.000000
     -0.001423       0.002543       0.000000
     -0.001599       0.002630       0.000000
     -0.001662       0.003008       0.000000
     -0.001489       0.002980       0.000000
     -0.000174       0.001184       0.000000
     -0.000267       0.001407       0.000000
     -0.000391       0.001668       0.000000
     -0.000283       0.001380       0.000000
     -0.000267       0.001407       0.000000
     -0.000385       0.001589       0.000000
     -0.000524       0.001882       0.000000
     -0.000391       0.001668       0.000000
     -0.000283       0.001380       0.000000
     -0.000391       0.001668       0.000000
     -0.000556       0.001979       0.000000
     -0.000428       0.001598       0.000000
     -0.000391       0.001668       0.000000
     -0.000524       0.001882       0.000000
     -0.000699       0.002212       0.000000
     -0.000556       0.001979       0.000000
     -0.000385       0.001589       0.000000
     -0.000510       0.001721       0.000000
     -0.000654       0.002018       0.000000
     -0.000524       0.001882       0.000000
     -0.000510       0.001721       0.000000
     -0.000632       0.001811       0.000000
     -0.000769       0.002098       0.000000
     -0.000654       0.002018       0.000000
     -0.000524       0.001882       0.000000
     -0.000654       0.002018       0.000000
     -0.000812       0.002325       0.000000