# vtk DataFile Version 2.0
time_10.vtk
ASCII
DATASET UNSTRUCTURED_GRID
POINTS  1152 float
      0.000000       0.000000       0.000000
      0.083333       0.000000       0.000000
      0.083333       0.083333       0.000000
      0.000000       0.083333       0.000000
      0.083333       0.000000       0.000000
      0.166667       0.000000       0.000000
      0.166667       0.083333       0.000000
      0.083333       0.083333       0.000000
      0.000000       0.083333       0.000000
      0.083333       0.083333       0.000000
      0.083333       0.166667       0.000000
      0.000000       0.166667       0.000000
      0.083333       0.083333       0.000000
      0.166667       0.083333       0.000000
      0.166667       0.166667       0.000000
      0.083333       0.166667       0.000000
      0.166667       0.000000       0.000000
      0.250000       0.000000       0.000000
      0.250000       0.083333       0.000000
      0.166667       0.083333       0.000000
      0.250000       0.000000       0.000000
      0.333333       0.000000       0.000000
      0.333333       0.083333       0.000000
      0.250000       0.083333       0.000000
      0.166667       0.083333       0.000000
      0.250000       0.083333       0.000000
      0.250000       0.166667       0.000000
      0.166667       0.166667       0.000000
      0.250000       0.083333       0.000000
      0.333333       0.083333       0.000000
      0.333333       0.166667       0.000000
      0.250000       0.166667       0.000000
      0.333333       0.000000       0.000000
      0.416667      -0.000000       0.000000
      0.416667       0.083333       0.000000
      0.333333       0.083333       0.000000
      0.416667      -0.000000       0.000000
      0.500000       0.000000       0.000000
      0.500000       0.083333       0.000000
      0.416667       0.083333       0.000000
      0.333333       0.083333       0.000000
      0.416667       0.083333       0.000000
      0.416667       0.166667       0.000000
      0.333333       0.166667       0.000000
      0.416667       0.083333       0.000000
      0.500000       0.083333       0.000000
      0.500000       0.166667       0.000000
      0.416667       0.166667       0.000000
      0.000000       0.166667       0.000000
      0.083333       0.166667       0.000000
      0.083333       0.250000       0.000000
      0.000000       0.250000       0.000000
      0.083333       0.166667       0.000000
      0.166667       0.166667       0.000000
      0.166667       0.250000       0.000000
      0.083333       0.250000       0.000000
      0.000000       0.250000       0.000000
      0.083333       0.250000       0.000000
      0.083333       0.333333       0.000000
      0.000000       0.333333       0.000000
      0.083333       0.250000       0.000000
      0.166667       0.250000       0.000000
      0.166667       0.333333       0.000000
      0.083333       0.333333       0.000000
      0.166667       0.166667       0.000000
      0.250000       0.166667       0.000000
      0.250000       0.250000       0.000000
      0.166667       0.250000       0.000000
      0.250000       0.166667       0.000000
      0.333333       0.166667       0.000000
      0.333333       0.250000       0.000000
      0.250000       0.250000       0.000000
      0.166667       0.250000       0.000000
      0.250000       0.250000       0.000000
      0.250000       0.333333       0.000000
      0.166667       0.333333       0.000000
      0.250000       0.250000       0.000000
      0.333333       0.250000       0.000000
      0.333333       0.333333       0.000000
      0.250000       0.333333       0.000000
      0.333333       0.166667       0.000000
      0.416667       0.166667       0.000000
      0.416667       0.250000       0.000000
      0.333333       0.250000       0.000000
      0.416667       0.166667       0.000000
      0.500000       0.166667       0.000000
      0.500000       0.250000       0.000000
      0.416667       0.250000       0.000000
      0.333333       0.250000       0.000000
      0.416667       0.250000       0.000000
      0.416667       0.333333       0.000000
      0.333333       0.333333       0.000000
      0.416667       0.250000       0.000000
      0.500000       0.250000       0.000000
      0.500000       0.333333       0.000000
      0.416667       0.333333       0.000000
      0.000000       0.333333       0.000000
      0.083333       0.333333       0.000000
      0.083333       0.416667       0.000000
     -0.000000       0.416667       0.000000
      0.083333       0.333333       0.000000
      0.166667       0.333333       0.000000
      0.166667       0.416667       0.000000
      0.083333       0.416667       0.000000
     -0.000000       0.416667       0.000000
      0.083333       0.416667       0.000000
      0.083333       0.500000       0.000000
      0.000000       0.500000       0.000000
      0.083333       0.416667       0.000000
      0.166667       0.416667       0.000000
      0.166667       0.500000       0.000000
      0.083333       0.500000       0.000000
      0.166667       0.333333       0.000000
      0.250000       0.333333       0.000000
      0.250000       0.416667       0.000000
      0.166667       0.416667       0.000000
      0.250000       0.333333       0.000000
      0.333333       0.333333       0.000000
      0.333333       0.416667       0.000000
      0.250000       0.416667       0.000000
      0.166667       0.416667       0.000000
      0.250000       0.416667       0.000000
      0.250000       0.500000       0.000000
      0.166667       0.500000       0.000000
      0.250000       0.416667       0.000000
      0.333333       0.416667       0.000000
      0.333333       0.500000       0.000000
      0.250000       0.500000       0.000000
      0.333333       0.333333       0.000000
      0.375000       0.333333       0.000000
      0.375000       0.375000       0.000000
      0.333333       0.375000       0.000000
      0.375000       0.333333       0.000000
      0.416667       0.333333       0.000000
      0.416667       0.375000       0.000000
      0.375000       0.375000       0.000000
      0.333333       0.375000       0.000000
      0.375000       0.375000       0.000000
      0.375000       0.416667       0.000000
      0.333333       0.416667       0.000000
      0.375000       0.375000       0.000000
      0.416667       0.375000       0.000000
      0.416667       0.416667       0.000000
      0.375000       0.416667       0.000000
      0.416667       0.333333       0.000000
      0.458333       0.333333       0.000000
      0.458333       0.375000       0.000000
      0.416667       0.375000       0.000000
      0.458333       0.333333       0.000000
      0.500000       0.333333       0.000000
      0.500000       0.375000       0.000000
      0.458333       0.375000       0.000000
      0.416667       0.375000       0.000000
      0.458333       0.375000       0.000000
      0.458333       0.416667       0.000000
      0.416667       0.416667       0.000000
      0.458333       0.375000       0.000000
      0.500000       0.375000       0.000000
      0.500000       0.416667       0.000000
      0.458333       0.416667       0.000000
      0.333333       0.416667       0.000000
      0.375000       0.416667       0.000000
      0.375000       0.458333       0.000000
      0.333333       0.458333       0.000000
      0.375000       0.416667       0.000000
      0.416667       0.416667       0.000000
      0.416667       0.458333       0.000000
      0.375000       0.458333       0.000000
      0.333333       0.458333       0.000000
      0.375000       0.458333       0.000000
      0.375000       0.500000       0.000000
      0.333333       0.500000       0.000000
      0.375000       0.458333       0.000000
      0.416667       0.458333       0.000000
      0.416667       0.500000       0.000000
      0.375000       0.500000       0.000000
      0.416667       0.416667       0.000000
      0.437500       0.416667       0.000000
      0.437500       0.437500       0.000000
      0.416667       0.437500       0.000000
      0.437500       0.416667       0.000000
      0.458333       0.416667       0.000000
      0.458333       0.437500       0.000000
      0.437500       0.437500       0.000000
      0.416667       0.437500       0.000000
      0.437500       0.437500       0.000000
      0.437500       0.458333       0.000000
      0.416667       0.458333       0.000000
      0.437500       0.437500       0.000000
      0.458333       0.437500       0.000000
      0.458333       0.458333       0.000000
      0.437500       0.458333       0.000000
      0.458333       0.416667       0.000000
      0.479167       0.416667       0.000000
      0.479167       0.437500       0.000000
      0.458333       0.437500       0.000000
      0.479167       0.416667       0.000000
      0.500000       0.416667       0.000000
      0.500000       0.437500       0.000000
      0.479167       0.437500       0.000000
      0.458333       0.437500       0.000000
      0.479167       0.437500       0.000000
      0.479167       0.458333       0.000000
      0.458333       0.458333       0.000000
      0.479167       0.437500       0.000000
      0.500000       0.437500       0.000000
      0.500000       0.458333       0.000000
      0.479167       0.458333       0.000000
      0.416667       0.458333       0.000000
      0.437500       0.458333       0.000000
      0.437500       0.479167       0.000000
      0.416667       0.479167       0.000000
      0.437500       0.458333       0.000000
      0.458333       0.458333       0.000000
      0.458333       0.479167       0.000000
      0.437500       0.479167       0.000000
      0.416667       0.479167       0.000000
      0.437500       0.479167       0.000000
      0.437500       0.500000       0.000000
      0.416667       0.500000       0.000000
[...]
POINT_DATA  1152
VECTORS U float 
      0.000000       0.000000       0.000000
      0.000000       0.000000       0.000000
      0.000024      -0.000003       0.000000
      0.000020      -0.000001       0.000000
      0.000000       0.000000       0.000000
      0.000000       0.000000       0.000000
      0.000030       0.000005       0.000000
      0.000024      -0.000003       0.000000
      0.000020      -0.000001       0.000000
      0.000024      -0.000003       0.000000
      0.000030      -0.000009       0.000000
      0.000023      -0.000019       0.000000
      0.000024      -0.000003       0.000000
      0.000030       0.000005       0.000000
      0.000036       0.000008       0.000000
      0.000030      -0.000009       0.000000
      0.000000       0.000000       0.000000
      0.000000       0.000000       0.000000
      0.000035       0.000017       0.000000
      0.000030       0.000005       0.000000
      0.000000       0.000000       0.000000
      0.000000       0.000000       0.000000
      0.000037       0.000032       0.000000
      0.000035       0.000017       0.000000
      0.000030       0.000005       0.000000
      0.000035       0.000017       0.000000
      0.000042       0.000031       0.000000
      0.000036       0.000008       0.000000
      0.000035       0.000017       0.000000
      0.000037       0.000032       0.000000
      0.000046       0.000064       0.000000
      0.000042       0.000031       0.000000
      0.000000       0.000000       0.000000
      0.000000       0.000000       0.000000
      0.000034       0.000050       0.000000
      0.000037       0.000032       0.000000
      0.000000       0.000000       0.000000
      0.000000       0.000000       0.000000
      0.000023       0.000069       0.000000
      0.000034       0.000050       0.000000
      0.000037       0.000032       0.000000
      0.000034       0.000050       0.000000
      0.000040       0.000105       0.000000
      0.000046       0.000064       0.000000
      0.000034       0.000050       0.000000
      0.000023       0.000069       0.000000
      0.000021       0.000148       0.000000
      0.000040       0.000105       0.000000
      0.000023      -0.000019       0.000000
      0.000030      -0.000009       0.000000
      0.000012      -0.000016       0.000000
      0.000006      -0.000040       0.000000
      0.000030      -0.000009       0.000000
      0.000036       0.000008       0.000000
      0.000018       0.000008       0.000000
      0.000012      -0.000016       0.000000
      0.000006      -0.000040       0.000000
      0.000012      -0.000016       0.000000
     -0.000026      -0.000023       0.000000
     -0.000030      -0.000057       0.000000
      0.000012      -0.000016       0.000000
      0.000018       0.000008       0.000000
     -0.000022       0.000007       0.000000
     -0.000026      -0.000023       0.000000
      0.000036       0.000008       0.000000
      0.000042       0.000031       0.000000
      0.000025       0.000042       0.000000
      0.000018       0.000008       0.000000
      0.000042       0.000031       0.000000
      0.000046       0.000064       0.000000
      0.000030       0.000092       0.000000
      0.000025       0.000042       0.000000
      0.000018       0.000008       0.000000
      0.000025       0.000042       0.000000
     -0.000017       0.000047       0.000000
     -0.000022       0.000007       0.000000
      0.000025       0.000042       0.000000
      0.000030       0.000092       0.000000
     -0.000011       0.000112       0.000000
     -0.000017       0.000047       0.000000
      0.000046       0.000064       0.000000
      0.000040       0.000105       0.000000
      0.000025       0.000161       0.000000
      0.000030       0.000092       0.000000
      0.000040       0.000105       0.000000
      0.000021       0.000148       0.000000
      0.000000       0.000237       0.000000
      0.000025       0.000161       0.000000
      0.000030       0.000092       0.000000
      0.000025       0.000161       0.000000
     -0.000011       0.000214       0.000000
     -0.000011       0.000112       0.000000
      0.000025       0.000161       0.000000
      0.000000       0.000237       0.000000
     -0.000038       0.000339       0.000000
     -0.000011       0.000214       0.000000
     -0.000030      -0.000057       0.000000
     -0.000026      -0.000023       0.000000
     -0.000073      -0.000027       0.000000
     -0.000074      -0.000065       0.000000
     -0.000026      -0.000023       0.000000
     -0.000022       0.000007       0.000000
     -0.000076       0.000006       0.000000
     -0.000073      -0.000027       0.000000
     -0.000074      -0.000065       0.000000
     -0.000073      -0.000027       0.000000
     -0.000117      -0.000026       0.000000
     -0.000116      -0.000065       0.000000
     -0.000073      -0.000027       0.000000
     -0.000076       0.000006       0.000000
     -0.000125       0.000010       0.000000
     -0.000117      -0.000026       0.000000
     -0.000022       0.000007       0.000000
     -0.000017       0.000047       0.000000
     -0.000080       0.000049       0.000000
     -0.000076       0.000006       0.000000
     -0.000017       0.000047       0.000000
     -0.000011       0.000112       0.000000
     -0.000084       0.000120       0.000000
     -0.000080       0.000049       0.000000
     -0.000076       0.000006       0.000000
     -0.000080       0.000049       0.000000
     -0.000147       0.000056       0.000000
     -0.000125       0.000010       0.000000
     -0.000080       0.000049       0.000000
     -0.000084       0.000120       0.000000
     -0.000183       0.000130       0.000000
     -0.000147       0.000056       0.000000
     -0.000011       0.000112       0.000000
     -0.000009       0.000158       0.000000
     -0.000041       0.000169       0.000000
     -0.000043       0.000117       0.000000
     -0.000009       0.000158       0.000000
     -0.000011       0.000214       0.000000
     -0.000040       0.000235       0.000000
     -0.000041       0.000169       0.000000
     -0.000043       0.000117       0.000000
     -0.000041       0.000169       0.000000
     -0.000084       0.000175       0.000000
     -0.000084       0.000120       0.000000
     -0.000041       0.000169       0.000000
     -0.000040       0.000235       0.000000
     -0.000082       0.000250       0.000000
     -0.000084       0.000175       0.000000
     -0.000011       0.000214       0.000000
     -0.000020       0.000277       0.000000
     -0.000046       0.000315       0.000000
     -0.000040       0.000235       0.000000
     -0.000020       0.000277       0.000000
     -0.000038       0.000339       0.000000
     -0.000065       0.000397       0.000000
     -0.000046       0.000315       0.000000
     -0.000040       0.000235       0.000000
     -0.000046       0.000315       0.000000
     -0.000083       0.000351       0.000000
     -0.000082       0.000250       0.000000
     -0.000046       0.000315       0.000000
     -0.000065       0.000397       0.000000
     -0.000101       0.000463       0.000000
     -0.000083       0.000351       0.000000
     -0.000084       0.000120       0.000000
     -0.000084       0.000175       0.000000
     -0.000141       0.000178       0.000000
     -0.000133       0.000123       0.000000
     -0.000084       0.000175       0.000000
     -0.000082       0.000250       0.000000
     -0.000146       0.000257       0.000000
     -0.000141       0.000178       0.000000
     -0.000133       0.000123       0.000000
     -0.000141       0.000178       0.000000
     -0.000208       0.000185       0.000000
     -0.000183       0.000130       0.000000
     -0.000141       0.000178       0.000000
     -0.000146       0.000257       0.000000
     -0.000236       0.000264       0.000000
     -0.000208       0.000185       0.000000
     -0.000082       0.000250       0.000000
     -0.000081       0.000298       0.000000
     -0.000109       0.000305       0.000000
     -0.000111       0.000254       0.000000
     -0.000081       0.000298       0.000000
     -0.000083       0.000351       0.000000
     -0.000109       0.000366       0.000000
     -0.000109       0.000305       0.000000
     -0.000111       0.000254       0.000000
     -0.000109       0.000305       0.000000
     -0.000146       0.000309       0.000000
     -0.000146       0.000257       0.000000
     -0.000109       0.000305       0.000000
     -0.000109       0.000366       0.000000
     -0.000144       0.000376       0.000000
     -0.000146       0.000309       0.000000
     -0.000083       0.000351       0.000000
     -0.000089       0.000408       0.000000
     -0.000112       0.000434       0.000000
     -0.000109       0.000366       0.000000
     -0.000089       0.000408       0.000000
     -0.000101       0.000463       0.000000
     -0.000124       0.000501       0.000000
     -0.000112       0.000434       0.000000
     -0.000109       0.000366       0.000000
     -0.000112       0.000434       0.000000
     -0.000143       0.000458       0.000000
     -0.000144       0.000376       0.000000
     -0.000112       0.000434       0.000000
     -0.000124       0.000501       0.000000
     -0.000154       0.000545       0.000000
     -0.000143       0.000458       0.000000
     -0.000146       0.000257       0.000000
     -0.000146       0.000309       0.000000
     -0.000194       0.000312       0.000000
     -0.000189       0.000259       0.000000
     -0.000146       0.000309       0.000000
     -0.000144       0.000376       0.000000
     -0.000196       0.000379       0.000000
     -0.000194       0.000312       0.000000
     -0.000189       0.000259       0.000000
     -0.000194       0.000312       0.000000
     -0.000252       0.000316       0.000000
     -0.000236       0.000264       0.000000
     -0.000194       0.000312       0.000000
     -0.000196       0.000379       0.000000
     -0.000269       0.000383       0.000000
     -0.000252       0.000316       0.000000
     -0.000144       0.000376       0.000000
     -0.000143       0.000415       0.000000
     -0.000165       0.000420       0.000000
     -0.000167       0.000378       0.000000
     -0.000143       0.000415       0.000000
     -0.000143       0.000458       0.000000
     -0.000164       0.000468       0.000000
     -0.000165       0.000420       0.000000
     -0.000167       0.000378       0.000000
     -0.000165       0.000420       0.000000
     -0.000195       0.000422       0.000000
     -0.000196       0.000379       0.000000
     -0.000165       0.000420       0.000000
     -0.000164       0.000468       0.000000
     -0.000192       0.000474       0.000000
     -0.000195       0.000422       0.000000
     -0.000143       0.000458       0.000000
     -0.000147       0.000503       0.000000
     -0.000165       0.000520       0.000000
     -0.000164       0.000468       0.000000
     -0.000147       0.000503       0.000000
     -0.000154       0.000545       0.000000
     -0.000173       0.000571       0.000000
     -0.000165       0.000520       0.000000
     -0.000164       0.000468       0.000000
     -0.000165       0.000520       0.000000
     -0.000190       0.000536       0.000000
     -0.000192       0.000474       0.000000
     -0.000165       0.000520       0.000000
     -0.000173       0.000571       0.000000
     -0.000196       0.000601       0.000000
     -0.000190       0.000536       0.000000
     -0.000196       0.000379       0.000000
     -0.000195       0.000422       0.000000
     -0.000233       0.000423       0.000000
     -0.000231       0.000380       0.000000
     -0.000195       0.000422       0.000000
     -0.000192       0.000474       0.000000
     -0.000232       0.000476       0.000000
     -0.000233       0.000423       0.000000
     -0.000231       0.000380       0.000000
     -0.000233       0.000423       0.000000
     -0.000278       0.000425       0.000000
     -0.000269       0.000383       0.000000
     -0.000233       0.000423       0.000000
     -0.000232       0.000476       0.000000
     -0.000287       0.000478       0.000000
     -0.000278       0.000425       0.000000
     -0.000192       0.000474       0.000000
     -0.000190       0.000536       0.000000
     -0.000226       0.000547       0.000000
     -0.000232       0.000476       0.000000
     -0.000190       0.000536       0.000000
     -0.000196       0.000601       0.000000
     -0.000228       0.000640       0.000000
     -0.000226       0.000547       0.000000
     -0.000232       0.000476       0.000000
     -0.000226       0.000547       0.000000
     -0.000297       0.000550       0.000000
     -0.000287       0.000478       0.000000
     -0.000226       0.000547       0.000000
     -0.000228       0.000640       0.000000
     -0.000298       0.000722       0.000000
     -0.000297       0.000550       0.000000
      0.000000       0.000000       0.000000
      0.000000       0.000000       0.000000
      0.000005       0.000084       0.000000
      0.000023       0.000069       0.000000
      0.000000       0.000000       0.000000
      0.000000       0.000000       0.000000
     -0.000017       0.000095       0.000000
      0.000005       0.000084       0.000000
      0.000023       0.000069       0.000000
      0.000005       0.000084       0.000000
     -0.000011       0.000183       0.000000
      0.000021       0.000148       0.000000
      0.000005       0.000084       0.000000
     -0.000017       0.000095       0.000000
     -0.000051       0.000207       0.000000
     -0.000011       0.000183       0.000000
      0.000000       0.000000       0.000000
      0.000000       0.000000       0.000000
     -0.000041       0.000103       0.000000
     -0.000017       0.000095       0.000000
      0.000000       0.000000       0.000000
      0.000000       0.000000       0.000000
     -0.000068       0.000110       0.000000
     -0.000041       0.000103       0.000000
     -0.000017       0.000095       0.000000
     -0.000041       0.000103       0.000000
     -0.000093       0.000221       0.000000
     -0.000051       0.000207       0.000000
     -0.000041       0.000103       0.000000
     -0.000068       0.000110       0.000000
     -0.000139       0.000236       0.000000
     -0.000093       0.000221       0.000000
      0.000000       0.000000       0.000000
      0.000000       0.000000       0.000000
     -0.000104       0.000127       0.000000
     -0.000068       0.000110       0.000000
      0.000000       0.000000       0.000000
      0.000000       0.000000       0.000000
     -0.000160       0.000189       0.000000
     -0.000104       0.000127       0.000000
     -0.000068       0.000110       0.000000
     -0.000104       0.000127       0.000000
     -0.000189       0.000264       0.000000
     -0.000139       0.000236       0.000000
     -0.000104       0.000127       0.000000
     -0.000160       0.000189       0.000000
     -0.000244       0.000319       0.000000
     -0.000189       0.000264       0.000000
      0.000021       0.000148       0.000000
     -0.000011       0.000183       0.000000
     -0.000045       0.000297       0.000000
      0.000000       0.000237       0.000000
     -0.000011       0.000183       0.000000
     -0.000051       0.000207       0.000000
     -0.000097       0.000331       0.000000
     -0.000045       0.000297       0.000000
      0.000000       0.000237       0.000000
     -0.000045       0.000297       0.000000
     -0.000095       0.000428       0.000000
     -0.000038       0.000339       0.000000
     -0.000045       0.000297       0.000000
     -0.000097       0.000331       0.000000
     -0.000153       0.000466       0.000000
     -0.000095       0.000428       0.000000
     -0.000051       0.000207       0.000000
     -0.000093       0.000221       0.000000
     -0.000149       0.000350       0.000000
     -0.000097       0.000331       0.000000
     -0.000093       0.000221       0.000000
     -0.000139       0.000236       0.000000
     -0.000202       0.000366       0.000000
     -0.000149       0.000350       0.000000
     -0.000097       0.000331       0.000000
     -0.000149       0.000350       0.000000
     -0.000205       0.000481       0.000000
     -0.000153       0.000466       0.000000
     -0.000149       0.000350       0.000000
     -0.000202       0.000366       0.000000
     -0.000256       0.000495       0.000000
     -0.000205       0.000481       0.000000
     -0.000139       0.000236       0.000000
     -0.000189       0.000264       0.000000
     -0.000255       0.000393       0.000000
     -0.000202       0.000366       0.000000
     -0.000189       0.000264       0.000000
     -0.000244       0.000319       0.000000
     -0.000307       0.000438       0.000000
     -0.000255       0.000393       0.000000
     -0.000202       0.000366       0.000000
     -0.000255       0.000393       0.000000
     -0.000306       0.000516       0.000000
     -0.000256       0.000495       0.000000
     -0.000255       0.000393       0.000000
     -0.000307       0.000438       0.000000
     -0.000355       0.000549       0.000000
     -0.000306       0.000516       0.000000
     -0.000153       0.000466       0.000000
     -0.000205       0.000481       0.000000
     -0.000251       0.000609       0.000000
     -0.000212       0.000601       0.000000
     -0.000205       0.000481       0.000000
     -0.000256       0.000495       0.000000
     -0.000295       0.000618       0.000000
     -0.000251       0.000609       0.000000
     -0.000212       0.000601       0.000000
     -0.000251       0.000609       0.000000
     -0.000273       0.000729       0.000000
     -0.000244       0.000724       0.000000
     -0.000251       0.000609       0.000000
     -0.000295       0.000618       0.000000
     -0.000312       0.000737       0.000000
     -0.000273       0.000729       0.000000
     -0.000256       0.000495       0.000000
     -0.000306       0.000516       0.000000
     -0.000342       0.000632       0.000000
     -0.000295       0.000618       0.000000
     -0.000306       0.000516       0.000000
     -0.000355       0.000549       0.000000
     -0.000388       0.000653       0.000000
     -0.000342       0.000632       0.000000
     -0.000295       0.000618       0.000000
     -0.000342       0.000632       0.000000
     -0.000357       0.000746       0.000000
     -0.000312       0.000737       0.000000
     -0.000342       0.000632       0.000000
     -0.000388       0.000653       0.000000
     -0.000403       0.000753       0.000000
     -0.000357       0.000746       0.000000
     -0.000038       0.000339       0.000000
     -0.000065       0.000391       0.000000
     -0.000096       0.000462       0.000000
     -0.000065       0.000397       0.000000
     -0.000065       0.000391       0.000000
     -0.000095       0.000428       0.000000
     -0.000128       0.000501       0.000000
     -0.000096       0.000462       0.000000
     -0.000065       0.000397       0.000000
     -0.000096       0.000462       0.000000
     -0.000137       0.000542       0.000000
     -0.000101       0.000463       0.000000
     -0.000096       0.000462       0.000000
     -0.000128       0.000501       0.000000
     -0.000168       0.000579       0.000000
     -0.000137       0.000542       0.000000
     -0.000095       0.000428       0.000000
     -0.000125       0.000452       0.000000
     -0.000158       0.000523       0.000000
     -0.000128       0.000501       0.000000
     -0.000125       0.000452       0.000000
     -0.000153       0.000466       0.000000
     -0.000183       0.000534       0.000000
     -0.000158       0.000523       0.000000
     -0.000128       0.000501       0.000000
     -0.000158       0.000523       0.000000
     -0.000192       0.000594       0.000000