# vtk DataFile Version 2.0
time_10.vtk
ASCII
DATASET UNSTRUCTURED_GRID
POINTS  1152 float
      0.000000       0.000000       0.000000
      0.083333       0.000000       0.000000
      0.083333       0.083333       0.000000
      0.000000       0.083333       0.000000
      0.083333       0.000000       0.000000
      0.166667       0.000000       0.000000
      0.166667       0.083333       0.000000
      0.083333       0.083333       0.000000
      0.000000       0.083333       0.000000
      0.083333       0.083333       0.000000
      0.083333       0.166667       0.000000
      0.000000       0.166667       0.000000
      0.083333       0.083333       0.000000
      0.166667       0.083333       0.000000
      0.166667       0.166667       0.000000
      0.083333       0.166667       0.000000
      0.166667       0.000000       0.000000
      0.250000       0.000000       0.000000
      0.250000       0.083333       0.000000
      0.166667       0.083333       0.000000
      0.250000       0.000000       0.000000
      0.333333       0.000000       0.000000
      0.333333       0.083333       0.000000
      0.250000       0.083333       0.000000
      0.166667       0.083333       0.000000
      0.250000       0.083333       0.000000
      0.250000       0.166667       0.000000
      0.166667       0.166667       0.000000
      0.250000       0.083333       0.000000
      0.333333       0.083333       0.000000
      0.333333       0.166667       0.000000
      0.250000       0.166667       0.000000
      0.333333       0.000000       0.000000
      0.416667       0.000000       0.000000
      0.416667       0.083333       0.000000
      0.333333       0.083333       0.000000
      0.416667       0.000000       0.000000
      0.500000       0.000000       0.000000
      0.500000       0.083333       0.000000
      0.416667       0.083333       0.000000
      0.333333       0.083333       0.000000
      0.416667       0.083333       0.000000
      0.416667       0.166667       0.000000
      0.333333       0.166667       0.000000
      0.416667       0.083333       0.000000
      0.500000       0.083333       0.000000
      0.500000       0.166667       0.000000
      0.416667       0.166667       0.000000
      0.000000       0.166667       0.000000
      0.083333       0.166667       0.000000
      0.083333       0.250000       0.000000
      0.000000       0.250000       0.000000
      0.083333       0.166667       0.000000
      0.166667       0.166667       0.000000
      0.166667       0.250000       0.000000
      0.083333       0.250000       0.000000
      0.000000       0.250000       0.000000
      0.083333       0.250000       0.000000
      0.083333       0.333333       0.000000
      0.000000       0.333333       0.000000
      0.083333       0.250000       0.000000
      0.166667       0.250000       0.000000
      0.166667       0.333333       0.000000
      0.083333       0.333333       0.000000
      0.166667       0.166667       0.000000
      0.250000       0.166667       0.000000
      0.250000       0.250000       0.000000
      0.166667       0.250000       0.000000
      0.250000       0.166667       0.000000
      0.333333       0.166667       0.000000
      0.333333       0.250000       0.000000
      0.250000       0.250000       0.000000
      0.166667       0.250000       0.000000
      0.250000       0.250000       0.000000
      0.250000       0.333333       0.000000
      0.166667       0.333333       0.000000
      0.250000       0.250000       0.000000
      0.333333       0.250000       0.000000
      0.333333       0.333333       0.000000
      0.250000       0.333333       0.000000
      0.333333       0.166667       0.000000
      0.416667       0.166667       0.000000
      0.416667       0.250000       0.000000
      0.333333       0.250000       0.000000
      0.416667       0.166667       0.000000
      0.500000       0.166667       0.000000
      0.500000       0.250000       0.000000
      0.416667       0.250000       0.000000
      0.333333       0.250000       0.000000
      0.416667       0.250000       0.000000
      0.416667       0.333333       0.000000
      0.333333       0.333333       0.000000
      0.416667       0.250000       0.000000
      0.500000       0.250000       0.000000
      0.500000       0.333333       0.000000
      0.416667       0.333333       0.000000
      0.000000       0.333333       0.000000
      0.083333       0.333333       0.000000
      0.083333       0.416667       0.000000
      0.000000       0.416667       0.000000
      0.083333       0.333333       0.000000
      0.166667       0.333333       0.000000
      0.166667       0.416667       0.000000
      0.083333       0.416667       0.000000
      0.000000       0.416667       0.000000
      0.083333       0.416667       0.000000
      0.083333       0.500000       0.000000
      0.000000       0.500000       0.000000
      0.083333       0.416667       0.000000
      0.166667       0.416667       0.000000
      0.166667       0.500000       0.000000
      0.083333       0.500000       0.000000
      0.166667       0.333333       0.000000
      0.250000       0.333333       0.000000
      0.250000       0.416667       0.000000
      0.166667       0.416667       0.000000
      0.250000       0.333333       0.000000
      0.333333       0.333333       0.000000
      0.333333       0.416667       0.000000
      0.250000       0.416667       0.000000
      0.166667       0.416667       0.000000
      0.250000       0.416667       0.000000
      0.250000       0.500000       0.000000
      0.166667       0.500000       0.000000
      0.250000       0.416667       0.000000
      0.333333       0.416667       0.000000
      0.333333       0.500000       0.000000
      0.250000       0.500000       0.000000
      0.333333       0.333333       0.000000
      0.375000       0.333333       0.000000
      0.375000       0.375000       0.000000
      0.333333       0.375000       0.000000
      0.375000       0.333333       0.000000
      0.416667       0.333333       0.000000
      0.416667       0.375000       0.000000
      0.375000       0.375000       0.000000
      0.333333       0.375000       0.000000
      0.375000       0.375000       0.000000
      0.375000       0.416667       0.000000
      0.333333       0.416667       0.000000
      0.375000       0.375000       0.000000
      0.416667       0.375000       0.000000
      0.416667       0.416667       0.000000
      0.375000       0.416667       0.000000
      0.416667       0.333333       0.000000
      0.458333       0.333333       0.000000
      0.458333       0.375000       0.000000
      0.416667       0.375000       0.000000
      0.458333       0.333333       0.000000
      0.500000       0.333333       0.000000
      0.500000       0.375000       0.000000
      0.458333       0.375000       0.000000
      0.416667       0.375000       0.000000
      0.458333       0.375000       0.000000
      0.458333       0.416667       0.000000
      0.416667       0.416667       0.000000
      0.458333       0.375000       0.000000
      0.500000       0.375000       0.000000
      0.500000       0.416667       0.000000
      0.458333       0.416667       0.000000
      0.333333       0.416667       0.000000
      0.375000       0.416667       0.000000
      0.375000       0.458333       0.000000
      0.333333       0.458333       0.000000
      0.375000       0.416667       0.000000
      0.416667       0.416667       0.000000
      0.416667       0.458333       0.000000
      0.375000       0.458333       0.000000
      0.333333       0.458333       0.000000
      0.375000       0.458333       0.000000
      0.375000       0.500000       0.000000
      0.333333       0.500000       0.000000
      0.375000       0.458333       0.000000
      0.416667       0.458333       0.000000
      0.416667       0.500000       0.000000
      0.375000       0.500000       0.000000
      0.416667       0.416667       0.000000
      0.437500       0.416667       0.000000
      0.437500       0.437500       0.000000
      0.416667       0.437500       0.000000
      0.437500       0.416667       0.000000
      0.458333       0.416667       0.000000
      0.458333       0.437500       0.000000
      0.437500       0.437500       0.000000
      0.416667       0.437500       0.000000
      0.437500       0.437500       0.000000
      0.437500       0.458333       0.000000
      0.416667       0.458333       0.000000
      0.437500       0.437500       0.000000
      0.458333       0.437500       0.000000
      0.458333       0.458333       0.000000
      0.437500       0.458333       0.000000
      0.458333       0.416667       0.000000
      0.479167       0.416667       0.000000
      0.479167       0.437500       0.000000
      0.458333       0.437500       0.000000
      0.479167       0.416667       0.000000
      0.500000       0.416667       0.000000
      0.500000       0.437500       0.000000
      0.479167       0.437500       0.000000
      0.458333       0.437500       0.000000
      0.479167       0.437500       0.000000
      0.479167       0.458333       0.000000
      0.458333       0.458333       0.000000
      0.479167       0.437500       0.000000
      0.500000       0.437500       0.000000
      0.500000       0.458333       0.000000
      0.479167       0.458333       0.000000
      0.416667       0.458333       0.000000
      0.437500       0.458333       0.000000
      0.437500       0.479167       0.000000
      0.416667       0.479167       0.000000
      0.437500       0.458333       0.000000
      0.458333       0.458333       0.000000
      0.458333       0.479167       0.000000
      0.437500       0.479167       0.000000
      0.416667       0.479167       0.000000
      0.437500       0.479167       0.000000
      0.437500       0.500000       0.000000
      0.416667       0.500000       0.000000
[...]
POINT_DATA  1152
VECTORS U float 
      0.000000       0.000000       0.000000
      0.000000       0.000000       0.000000
      0.000073      -0.000017       0.000000
      0.000053      -0.000019       0.000000
      0.000000       0.000000       0.000000
      0.000000       0.000000       0.000000
      0.000093       0.000014       0.000000
      0.000073      -0.000017       0.000000
      0.000053      -0.000019       0.000000
      0.000073      -0.000017       0.000000
      0.000078      -0.000044       0.000000
      0.000053      -0.000089       0.000000
      0.000073      -0.000017       0.000000
      0.000093       0.000014       0.000000
      0.000101       0.000017       0.000000
      0.000078      -0.000044       0.000000
      0.000000       0.000000       0.000000
      0.000000       0.000000       0.000000
      0.000111       0.000055       0.000000
      0.000093       0.000014       0.000000
      0.000000       0.000000       0.000000
      0.000000       0.000000       0.000000
      0.000122       0.000108       0.000000
      0.000111       0.000055       0.000000
      0.000093       0.000014       0.000000
      0.000111       0.000055       0.000000
      0.000126       0.000099       0.000000
      0.000101       0.000017       0.000000
      0.000111       0.000055       0.000000
      0.000122       0.000108       0.000000
      0.000141       0.000212       0.000000
      0.000126       0.000099       0.000000
      0.000000       0.000000       0.000000
      0.000000       0.000000       0.000000
      0.000114       0.000173       0.000000
      0.000122       0.000108       0.000000
      0.000000       0.000000       0.000000
      0.000000       0.000000       0.000000
      0.000080       0.000242       0.000000
      0.000114       0.000173       0.000000
      0.000122       0.000108       0.000000
      0.000114       0.000173       0.000000
      0.000127       0.000359       0.000000
      0.000141       0.000212       0.000000
      0.000114       0.000173       0.000000
      0.000080       0.000242       0.000000
      0.000066       0.000519       0.000000
      0.000127       0.000359       0.000000
      0.000053      -0.000089       0.000000
      0.000078      -0.000044       0.000000
      0.000003      -0.000075       0.000000
     -0.000020      -0.000168       0.000000
      0.000078      -0.000044       0.000000
      0.000101       0.000017       0.000000
      0.000024       0.000013       0.000000
      0.000003      -0.000075       0.000000
     -0.000020      -0.000168       0.000000
      0.000003      -0.000075       0.000000
     -0.000140      -0.000102       0.000000
     -0.000154      -0.000228       0.000000
      0.000003      -0.000075       0.000000
      0.000024       0.000013       0.000000
     -0.000128       0.000005       0.000000
     -0.000140      -0.000102       0.000000
      0.000101       0.000017       0.000000
      0.000126       0.000099       0.000000
      0.000050       0.000130       0.000000
      0.000024       0.000013       0.000000
      0.000126       0.000099       0.000000
      0.000141       0.000212       0.000000
      0.000071       0.000303       0.000000
      0.000050       0.000130       0.000000
      0.000024       0.000013       0.000000
      0.000050       0.000130       0.000000
     -0.000112       0.000144       0.000000
     -0.000128       0.000005       0.000000
      0.000050       0.000130       0.000000
      0.000071       0.000303       0.000000
     -0.000091       0.000366       0.000000
     -0.000112       0.000144       0.000000
      0.000141       0.000212       0.000000
      0.000127       0.000359       0.000000
      0.000060       0.000548       0.000000
      0.000071       0.000303       0.000000
      0.000127       0.000359       0.000000
      0.000066       0.000519       0.000000
     -0.000020       0.000832       0.000000
      0.000060       0.000548       0.000000
      0.000071       0.000303       0.000000
      0.000060       0.000548       0.000000
     -0.000087       0.000721       0.000000
     -0.000091       0.000366       0.000000
      0.000060       0.000548       0.000000
     -0.000020       0.000832       0.000000
     -0.000172       0.001186       0.000000
     -0.000087       0.000721       0.000000
     -0.000154      -0.000228       0.000000
     -0.000140      -0.000102       0.000000
     -0.000315      -0.000117       0.000000
     -0.000317      -0.000255       0.000000
     -0.000140      -0.000102       0.000000
     -0.000128       0.000005       0.000000
     -0.000324       0.000003       0.000000
     -0.000315      -0.000117       0.000000
     -0.000317      -0.000255       0.000000
     -0.000315      -0.000117       0.000000
     -0.000473      -0.000115       0.000000
     -0.000471      -0.000257       0.000000
     -0.000315      -0.000117       0.000000
     -0.000324       0.000003       0.000000
     -0.000502       0.000016       0.000000
     -0.000473      -0.000115       0.000000
     -0.000128       0.000005       0.000000
     -0.000112       0.000144       0.000000
     -0.000344       0.000151       0.000000
     -0.000324       0.000003       0.000000
     -0.000112       0.000144       0.000000
     -0.000091       0.000366       0.000000
     -0.000363       0.000393       0.000000
     -0.000344       0.000151       0.000000
     -0.000324       0.000003       0.000000
     -0.000344       0.000151       0.000000
     -0.000579       0.000177       0.000000
     -0.000502       0.000016       0.000000
     -0.000344       0.000151       0.000000
     -0.000363       0.000393       0.000000
     -0.000712       0.000430       0.000000
     -0.000579       0.000177       0.000000
     -0.000091       0.000366       0.000000
     -0.000084       0.000525       0.000000
     -0.000205       0.000560       0.000000
     -0.000213       0.000383       0.000000
     -0.000084       0.000525       0.000000
     -0.000087       0.000721       0.000000
     -0.000202       0.000791       0.000000
     -0.000205       0.000560       0.000000
     -0.000213       0.000383       0.000000
     -0.000205       0.000560       0.000000
     -0.000366       0.000580       0.000000
     -0.000363       0.000393       0.000000
     -0.000205       0.000560       0.000000
     -0.000202       0.000791       0.000000
     -0.000363       0.000837       0.000000
     -0.000366       0.000580       0.000000
     -0.000087       0.000721       0.000000
     -0.000113       0.000949       0.000000
     -0.000220       0.001074       0.000000
     -0.000202       0.000791       0.000000
     -0.000113       0.000949       0.000000
     -0.000172       0.001186       0.000000
     -0.000280       0.001384       0.000000
     -0.000220       0.001074       0.000000
     -0.000202       0.000791       0.000000
     -0.000220       0.001074       0.000000
     -0.000367       0.001187       0.000000
     -0.000363       0.000837       0.000000
     -0.000220       0.001074       0.000000
     -0.000280       0.001384       0.000000
     -0.000423       0.001607       0.000000
     -0.000367       0.001187       0.000000
     -0.000363       0.000393       0.000000
     -0.000366       0.000580       0.000000
     -0.000572       0.000593       0.000000
     -0.000537       0.000405       0.000000
     -0.000366       0.000580       0.000000
     -0.000363       0.000837       0.000000
     -0.000598       0.000859       0.000000
     -0.000572       0.000593       0.000000
     -0.000537       0.000405       0.000000
     -0.000572       0.000593       0.000000
     -0.000802       0.000621       0.000000
     -0.000712       0.000430       0.000000
     -0.000572       0.000593       0.000000
     -0.000598       0.000859       0.000000
     -0.000909       0.000887       0.000000
     -0.000802       0.000621       0.000000
     -0.000363       0.000837       0.000000
     -0.000363       0.001000       0.000000
     -0.000469       0.001024       0.000000
     -0.000470       0.000851       0.000000
     -0.000363       0.001000       0.000000
     -0.000367       0.001187       0.000000
     -0.000468       0.001231       0.000000
     -0.000469       0.001024       0.000000
     -0.000470       0.000851       0.000000
     -0.000469       0.001024       0.000000
     -0.000603       0.001037       0.000000
     -0.000598       0.000859       0.000000
     -0.000469       0.001024       0.000000
     -0.000468       0.001231       0.000000
     -0.000601       0.001261       0.000000
     -0.000603       0.001037       0.000000
     -0.000367       0.001187       0.000000
     -0.000385       0.001394       0.000000
     -0.000479       0.001474       0.000000
     -0.000468       0.001231       0.000000
     -0.000385       0.001394       0.000000
     -0.000423       0.001607       0.000000
     -0.000516       0.001735       0.000000
     -0.000479       0.001474       0.000000
     -0.000468       0.001231       0.000000
     -0.000479       0.001474       0.000000
     -0.000601       0.001547       0.000000
     -0.000601       0.001261       0.000000
     -0.000479       0.001474       0.000000
     -0.000516       0.001735       0.000000
     -0.000633       0.001885       0.000000
     -0.000601       0.001547       0.000000
     -0.000598       0.000859       0.000000
     -0.000603       0.001037       0.000000
     -0.000774       0.001046       0.000000
     -0.000749       0.000869       0.000000
     -0.000603       0.001037       0.000000
     -0.000601       0.001261       0.000000
     -0.000789       0.001274       0.000000
     -0.000774       0.001046       0.000000
     -0.000749       0.000869       0.000000
     -0.000774       0.001046       0.000000
     -0.000970       0.001065       0.000000
     -0.000909       0.000887       0.000000
     -0.000774       0.001046       0.000000
     -0.000789       0.001274       0.000000
     -0.001040       0.001291       0.000000
     -0.000970       0.001065       0.000000
     -0.000601       0.001261       0.000000
     -0.000600       0.001396       0.000000
     -0.000684       0.001411       0.000000
     -0.000687       0.001269       0.000000
     -0.000600       0.001396       0.000000
     -0.000601       0.001547       0.000000
     -0.000680       0.001577       0.000000
     -0.000684       0.001411       0.000000
     -0.000687       0.001269       0.000000
     -0.000684       0.001411       0.000000
     -0.000790       0.001419       0.000000
     -0.000789       0.001274       0.000000
     -0.000684       0.001411       0.000000
     -0.000680       0.001577       0.000000
     -0.000784       0.001598       0.000000
     -0.000790       0.001419       0.000000
     -0.000601       0.001547       0.000000
     -0.000611       0.001714       0.000000
     -0.000684       0.001770       0.000000
     -0.000680       0.001577       0.000000
     -0.000611       0.001714       0.000000
     -0.000633       0.001885       0.000000
     -0.000707       0.001977       0.000000
     -0.000684       0.001770       0.000000
     -0.000680       0.001577       0.000000
     -0.000684       0.001770       0.000000
     -0.000778       0.001826       0.000000
     -0.000784       0.001598       0.000000
     -0.000684       0.001770       0.000000
     -0.000707       0.001977       0.000000
     -0.000798       0.002095       0.000000
     -0.000778       0.001826       0.000000
     -0.000789       0.001274       0.000000
     -0.000790       0.001419       0.000000
     -0.000924       0.001424       0.000000
     -0.000909       0.001280       0.000000
     -0.000790       0.001419       0.000000
     -0.000784       0.001598       0.000000
     -0.000930       0.001605       0.000000
     -0.000924       0.001424       0.000000
     -0.000909       0.001280       0.000000
     -0.000924       0.001424       0.000000
     -0.001080       0.001435       0.000000
     -0.001040       0.001291       0.000000
     -0.000924       0.001424       0.000000
     -0.000930       0.001605       0.000000
     -0.001129       0.001618       0.000000
     -0.001080       0.001435       0.000000
     -0.000784       0.001598       0.000000
     -0.000778       0.001826       0.000000
     -0.000917       0.001866       0.000000
     -0.000930       0.001605       0.000000
     -0.000778       0.001826       0.000000
     -0.000798       0.002095       0.000000
     -0.000927       0.002277       0.000000
     -0.000917       0.001866       0.000000
     -0.000930       0.001605       0.000000
     -0.000917       0.001866       0.000000
     -0.001197       0.001892       0.000000
     -0.001129       0.001618       0.000000
     -0.000917       0.001866       0.000000
     -0.000927       0.002277       0.000000
     -0.001310       0.002854       0.000000
     -0.001197       0.001892       0.000000
      0.000000       0.000000       0.000000
      0.000000       0.000000       0.000000
      0.000018       0.000303       0.000000
      0.000080       0.000242       0.000000
      0.000000       0.000000       0.000000
      0.000000       0.000000       0.000000
     -0.000063       0.000351       0.000000
      0.000018       0.000303       0.000000
      0.000080       0.000242       0.000000
      0.000018       0.000303       0.000000
     -0.000047       0.000663       0.000000
      0.000066       0.000519       0.000000
      0.000018       0.000303       0.000000
     -0.000063       0.000351       0.000000
     -0.000196       0.000770       0.000000
     -0.000047       0.000663       0.000000
      0.000000       0.000000       0.000000
      0.000000       0.000000       0.000000
     -0.000156       0.000389       0.000000
     -0.000063       0.000351       0.000000
      0.000000       0.000000       0.000000
      0.000000       0.000000       0.000000
     -0.000265       0.000431       0.000000
     -0.000156       0.000389       0.000000
     -0.000063       0.000351       0.000000
     -0.000156       0.000389       0.000000
     -0.000366       0.000850       0.000000
     -0.000196       0.000770       0.000000
     -0.000156       0.000389       0.000000
     -0.000265       0.000431       0.000000
     -0.000552       0.000932       0.000000
     -0.000366       0.000850       0.000000
      0.000000       0.000000       0.000000
      0.000000       0.000000       0.000000
     -0.000414       0.000520       0.000000
     -0.000265       0.000431       0.000000
      0.000000       0.000000       0.000000
      0.000000       0.000000       0.000000
     -0.000642       0.000787       0.000000
     -0.000414       0.000520       0.000000
     -0.000265       0.000431       0.000000
     -0.000414       0.000520       0.000000
     -0.000761       0.001069       0.000000
     -0.000552       0.000932       0.000000
     -0.000414       0.000520       0.000000
     -0.000642       0.000787       0.000000
     -0.000978       0.001307       0.000000
     -0.000761       0.001069       0.000000
      0.000066       0.000519       0.000000
     -0.000047       0.000663       0.000000
     -0.000180       0.001082       0.000000
     -0.000020       0.000832       0.000000
     -0.000047       0.000663       0.000000
     -0.000196       0.000770       0.000000
     -0.000386       0.001253       0.000000
     -0.000180       0.001082       0.000000
     -0.000020       0.000832       0.000000
     -0.000180       0.001082       0.000000
     -0.000383       0.001580       0.000000
     -0.000172       0.001186       0.000000
     -0.000180       0.001082       0.000000
     -0.000386       0.001253       0.000000
     -0.000626       0.001792       0.000000
     -0.000383       0.001580       0.000000
     -0.000196       0.000770       0.000000
     -0.000366       0.000850       0.000000
     -0.000603       0.001360       0.000000
     -0.000386       0.001253       0.000000
     -0.000366       0.000850       0.000000
     -0.000552       0.000932       0.000000
     -0.000819       0.001454       0.000000
     -0.000603       0.001360       0.000000
     -0.000386       0.001253       0.000000
     -0.000603       0.001360       0.000000
     -0.000846       0.001891       0.000000
     -0.000626       0.001792       0.000000
     -0.000603       0.001360       0.000000
     -0.000819       0.001454       0.000000
     -0.001051       0.001964       0.000000
     -0.000846       0.001891       0.000000
     -0.000552       0.000932       0.000000
     -0.000761       0.001069       0.000000
     -0.001033       0.001582       0.000000
     -0.000819       0.001454       0.000000
     -0.000761       0.001069       0.000000
     -0.000978       0.001307       0.000000
     -0.001235       0.001774       0.000000
     -0.001033       0.001582       0.000000
     -0.000819       0.001454       0.000000
     -0.001033       0.001582       0.000000
     -0.001251       0.002059       0.000000
     -0.001051       0.001964       0.000000
     -0.001033       0.001582       0.000000
     -0.001235       0.001774       0.000000
     -0.001437       0.002201       0.000000
     -0.001251       0.002059       0.000000
     -0.000626       0.001792       0.000000
     -0.000846       0.001891       0.000000
     -0.001052       0.002404       0.000000
     -0.000890       0.002352       0.000000
     -0.000846       0.001891       0.000000
     -0.001051       0.001964       0.000000
     -0.001222       0.002448       0.000000
     -0.001052       0.002404       0.000000
     -0.000890       0.002352       0.000000
     -0.001052       0.002404       0.000000
     -0.001147       0.002879       0.000000
     -0.001039       0.002859       0.000000
     -0.001052       0.002404       0.000000
     -0.001222       0.002448       0.000000
     -0.001296       0.002908       0.000000
     -0.001147       0.002879       0.000000
     -0.001051       0.001964       0.000000
     -0.001251       0.002059       0.000000
     -0.001402       0.002508       0.000000
     -0.001222       0.002448       0.000000
     -0.001251       0.002059       0.000000
     -0.001437       0.002201       0.000000
     -0.001576       0.002594       0.000000
     -0.001402       0.002508       0.000000
     -0.001222       0.002448       0.000000
     -0.001402       0.002508       0.000000
     -0.001467       0.002941       0.000000
     -0.001296       0.002908       0.000000
     -0.001402       0.002508       0.000000
     -0.001576       0.002594       0.000000
     -0.001638       0.002968       0.000000
     -0.001467       0.002941       0.000000
     -0.000172       0.001186       0.000000
     -0.000266       0.001404       0.000000
     -0.000388       0.001664       0.000000
     -0.000280       0.001384       0.000000
     -0.000266       0.001404       0.000000
     -0.000383       0.001580       0.000000
     -0.000520       0.001870       0.000000
     -0.000388       0.001664       0.000000
     -0.000280       0.001384       0.000000
     -0.000388       0.001664       0.000000
     -0.000553       0.001975       0.000000
     -0.000423       0.001607       0.000000
     -0.000388       0.001664       0.000000
     -0.000520       0.001870       0.000000
     -0.000693       0.002194       0.000000
     -0.000553       0.001975       0.000000
     -0.000383       0.001580       0.000000
     -0.000506       0.001707       0.000000
     -0.000647       0.001999       0.000000
     -0.000520       0.001870       0.000000
     -0.000506       0.001707       0.000000
     -0.000626       0.001792       0.000000
     -0.000760       0.002074       0.000000
     -0.000647       0.001999       0.000000
     -0.000520       0.001870       0.000000
     -0.000647       0.001999       0.000000
     -0.000802       0.002300       0.000000