# vtk DataFile Version 2.0
time_10.vtk
ASCII
DATASET UNSTRUCTURED_GRID
POINTS  1152 float
      0.000000       0.000000       0.000000
      0.083333       0.000000       0.000000
      0.083333       0.083333       0.000000
      0.000000       0.083333       0.000000
      0.083333       0.000000       0.000000
      0.166667       0.000000       0.000000
      0.166667       0.083333       0.000000
      0.083333       0.083333       0.000000
      0.000000       0.083333       0.000000
      0.083333       0.083333       0.000000
      0.083333       0.166667       0.000000
      0.000000       0.166667       0.000000
      0.083333       0.083333       0.000000
      0.166667       0.083333       0.000000
      0.166667       0.166667       0.000000
      0.083333       0.166667       0.000000
      0.166667       0.000000       0.000000
      0.250000       0.000000       0.000000
      0.250000       0.083333       0.000000
      0.166667       0.083333       0.000000
      0.250000       0.000000       0.000000
      0.333333       0.000000       0.000000
      0.333333       0.083333       0.000000
      0.250000       0.083333       0.000000
      0.166667       0.083333       0.000000
      0.250000       0.083333       0.000000
      0.250000       0.166667       0.000000
      0.166667       0.166667       0.000000
      0.250000       0.083333       0.000000
      0.333333       0.083333       0.000000
      0.333333       0.166667       0.000000
      0.250000       0.166667       0.000000
      0.333333       0.000000       0.000000
      0.416667       0.000000       0.000000
      0.416667       0.083333       0.000000
      0.333333       0.083333       0.000000
      0.416667       0.000000       0.000000
      0.500000       0.000000       0.000000
      0.500000       0.083333       0.000000
      0.416667       0.083333       0.000000
      0.333333       0.083333       0.000000
      0.416667       0.083333       0.000000
      0.416667       0.166667       0.000000
      0.333333       0.166667       0.000000
      0.416667       0.083333       0.000000
      0.500000       0.083333       0.000000
      0.500000       0.166667       0.000000
      0.416667       0.166667       0.000000
      0.000000       0.166667       0.000000
      0.083333       0.166667       0.000000
      0.083333       0.250000       0.000000
      0.000000       0.250000       0.000000
      0.083333       0.166667       0.000000
      0.166667       0.166667       0.000000
      0.166667       0.250000       0.000000
      0.083333       0.250000       0.000000
      0.000000       0.250000       0.000000
      0.083333       0.250000       0.000000
      0.083333       0.333333       0.000000
      0.000000       0.333333       0.000000
      0.083333       0.250000       0.000000
      0.166667       0.250000       0.000000
      0.166667       0.333333       0.000000
      0.083333       0.333333       0.000000
      0.166667       0.166667       0.000000
      0.250000       0.166667       0.000000
      0.250000       0.250000       0.000000
      0.166667       0.250000       0.000000
      0.250000       0.166667       0.000000
      0.333333       0.166667       0.000000
      0.333333       0.250000       0.000000
      0.250000       0.250000       0.000000
      0.166667       0.250000       0.000000
      0.250000       0.250000       0.000000
      0.250000       0.333333       0.000000
      0.166667       0.333333       0.000000
      0.250000       0.250000       0.000000
      0.333333       0.250000       0.000000
      0.333333       0.333333       0.000000
      0.250000       0.333333       0.000000
      0.333333       0.166667       0.000000
      0.416667       0.166667       0.000000
      0.416667       0.250000       0.000000
      0.333333       0.250000       0.000000
      0.416667       0.166667       0.000000
      0.500000       0.166667       0.000000
      0.500000       0.250000       0.000000
      0.416667       0.250000       0.000000
      0.333333       0.250000       0.000000
      0.416667       0.250000       0.000000
      0.416667       0.333333       0.000000
      0.333333       0.333333       0.000000
      0.416667       0.250000       0.000000
      0.500000       0.250000       0.000000
      0.500000       0.333333       0.000000
      0.416667       0.333333       0.000000
      0.000000       0.333333       0.000000
      0.083333       0.333333       0.000000
      0.083333       0.416667       0.000000
      0.000000       0.416667       0.000000
      0.083333       0.333333       0.000000
      0.166667       0.333333       0.000000
      0.166667       0.416667       0.000000
      0.083333       0.416667       0.000000
      0.000000       0.416667       0.000000
      0.083333       0.416667       0.000000
      0.083333       0.500000       0.000000
      0.000000       0.500000       0.000000
      0.083333       0.416667       0.000000
      0.166667       0.416667       0.000000
      0.166667       0.500000       0.000000
      0.083333       0.500000       0.000000
      0.166667       0.333333       0.000000
      0.250000       0.333333       0.000000
      0.250000       0.416667       0.000000
      0.166667       0.416667       0.000000
      0.250000       0.333333       0.000000
      0.333333       0.333333       0.000000
      0.333333       0.416667       0.000000
      0.250000       0.416667       0.000000
      0.166667       0.416667       0.000000
      0.250000       0.416667       0.000000
      0.250000       0.500000       0.000000
      0.166667       0.500000       0.000000
      0.250000       0.416667       0.000000
      0.333333       0.416667       0.000000
      0.333333       0.500000       0.000000
      0.250000       0.500000       0.000000
      0.333333       0.333333       0.000000
      0.375000       0.333333       0.000000
      0.375000       0.375000       0.000000
      0.333333       0.375000       0.000000
      0.375000       0.333333       0.000000
      0.416667       0.333333       0.000000
      0.416667       0.375000       0.000000
      0.375000       0.375000       0.000000
      0.333333       0.375000       0.000000
      0.375000       0.375000       0.000000
      0.375000       0.416667       0.000000
      0.333333       0.416667       0.000000
      0.375000       0.375000       0.000000
      0.416667       0.375000       0.000000
      0.416667       0.416667       0.000000
      0.375000       0.416667       0.000000
      0.416667       0.333333       0.000000
      0.458333       0.333333       0.000000
      0.458333       0.375000       0.000000
      0.416667       0.375000       0.000000
      0.458333       0.333333       0.000000
      0.500000       0.333333       0.000000
      0.500000       0.375000       0.000000
      0.458333       0.375000       0.000000
      0.416667       0.375000       0.000000
      0.458333       0.375000       0.000000
      0.458333       0.416667       0.000000
      0.416667       0.416667       0.000000
      0.458333       0.375000       0.000000
      0.500000       0.375000       0.000000
      0.500000       0.416667       0.000000
      0.458333       0.416667       0.000000
      0.333333       0.416667       0.000000
      0.375000       0.416667       0.000000
      0.375000       0.458333       0.000000
      0.333333       0.458333       0.000000
      0.375000       0.416667       0.000000
      0.416667       0.416667       0.000000
      0.416667       0.458333       0.000000
      0.375000       0.458333       0.000000
      0.333333       0.458333       0.000000
      0.375000       0.458333       0.000000
      0.375000       0.500000       0.000000
      0.333333       0.500000       0.000000
      0.375000       0.458333       0.000000
      0.416667       0.458333       0.000000
      0.416667       0.500000       0.000000
      0.375000       0.500000       0.000000
      0.416667       0.416667       0.000000
      0.437500       0.416667       0.000000
      0.437500       0.437500       0.000000
      0.416667       0.437500       0.000000
      0.437500       0.416667       0.000000
      0.458333       0.416667       0.000000
      0.458333       0.437500       0.000000
      0.437500       0.437500       0.000000
      0.416667       0.437500       0.000000
      0.437500       0.437500       0.000000
      0.437500       0.458333       0.000000
      0.416667       0.458333       0.000000
      0.437500       0.437500       0.000000
      0.458333       0.437500       0.000000
      0.458333       0.458333       0.000000
      0.437500       0.458333       0.000000
      0.458333       0.416667       0.000000
      0.479167       0.416667       0.000000
      0.479167       0.437500       0.000000
      0.458333       0.437500       0.000000
      0.479167       0.416667       0.000000
      0.500000       0.416667       0.000000
      0.500000       0.437500       0.000000
      0.479167       0.437500       0.000000
      0.458333       0.437500       0.000000
      0.479167       0.437500       0.000000
      0.479167       0.458333       0.000000
      0.458333       0.458333       0.000000
      0.479167       0.437500       0.000000
      0.500000       0.437500       0.000000
      0.500000       0.458333       0.000000
      0.479167       0.458333       0.000000
      0.416667       0.458333       0.000000
      0.437500       0.458333       0.000000
      0.437500       0.479167       0.000000
      0.416667       0.479167       0.000000
      0.437500       0.458333       0.000000
      0.458333       0.458333       0.000000
      0.458333       0.479167       0.000000
      0.437500       0.479167       0.000000
      0.416667       0.479167       0.000000
      0.437500       0.479167       0.000000
      0.437500       0.500000       0.000000
      0.416667       0.500000       0.000000
[...]
POINT_DATA  1152
VECTORS U float 
      0.000000       0.000000       0.000000
      0.000000       0.000000       0.000000
      0.000073      -0.000015       0.000000
      0.000054      -0.000016       0.000000
      0.000000       0.000000       0.000000
      0.000000       0.000000       0.000000
      0.000093       0.000014       0.000000
      0.000073      -0.000015       0.000000
      0.000054      -0.000016       0.000000
      0.000073      -0.000015       0.000000
      0.000080      -0.000041       0.000000
      0.000056      -0.000085       0.000000
      0.000073      -0.000015       0.000000
      0.000093       0.000014       0.000000
      0.000103       0.000019       0.000000
      0.000080      -0.000041       0.000000
      0.000000       0.000000       0.000000
      0.000000       0.000000       0.000000
      0.000110       0.000055       0.000000
      0.000093       0.000014       0.000000
      0.000000       0.000000       0.000000
      0.000000       0.000000       0.000000
      0.000120       0.000107       0.000000
      0.000110       0.000055       0.000000
      0.000093       0.000014       0.000000
      0.000110       0.000055       0.000000
      0.000126       0.000099       0.000000
      0.000103       0.000019       0.000000
      0.000110       0.000055       0.000000
      0.000120       0.000107       0.000000
      0.000140       0.000211       0.000000
      0.000126       0.000099       0.000000
      0.000000       0.000000       0.000000
      0.000000       0.000000       0.000000
      0.000112       0.000171       0.000000
      0.000120       0.000107       0.000000
      0.000000       0.000000       0.000000
      0.000000       0.000000       0.000000
      0.000077       0.000237       0.000000
      0.000112       0.000171       0.000000
      0.000120       0.000107       0.000000
      0.000112       0.000171       0.000000
      0.000126       0.000354       0.000000
      0.000140       0.000211       0.000000
      0.000112       0.000171       0.000000
      0.000077       0.000237       0.000000
      0.000064       0.000509       0.000000
      0.000126       0.000354       0.000000
      0.000056      -0.000085       0.000000
      0.000080      -0.000041       0.000000
      0.000008      -0.000071       0.000000
     -0.000015      -0.000161       0.000000
      0.000080      -0.000041       0.000000
      0.000103       0.000019       0.000000
      0.000029       0.000016       0.000000
      0.000008      -0.000071       0.000000
     -0.000015      -0.000161       0.000000
      0.000008      -0.000071       0.000000
     -0.000130      -0.000097       0.000000
     -0.000145      -0.000220       0.000000
      0.000008      -0.000071       0.000000
      0.000029       0.000016       0.000000
     -0.000119       0.000008       0.000000
     -0.000130      -0.000097       0.000000
      0.000103       0.000019       0.000000
      0.000126       0.000099       0.000000
      0.000054       0.000130       0.000000
      0.000029       0.000016       0.000000
      0.000126       0.000099       0.000000
      0.000140       0.000211       0.000000
      0.000074       0.000301       0.000000
      0.000054       0.000130       0.000000
      0.000029       0.000016       0.000000
      0.000054       0.000130       0.000000
     -0.000103       0.000145       0.000000
     -0.000119       0.000008       0.000000
      0.000054       0.000130       0.000000
      0.000074       0.000301       0.000000
     -0.000083       0.000364       0.000000
     -0.000103       0.000145       0.000000
      0.000140       0.000211       0.000000
      0.000126       0.000354       0.000000
      0.000062       0.000541       0.000000
      0.000074       0.000301       0.000000
      0.000126       0.000354       0.000000
      0.000064       0.000509       0.000000
     -0.000019       0.000817       0.000000
      0.000062       0.000541       0.000000
      0.000074       0.000301       0.000000
      0.000062       0.000541       0.000000
     -0.000079       0.000714       0.000000
     -0.000083       0.000364       0.000000
      0.000062       0.000541       0.000000
     -0.000019       0.000817       0.000000
     -0.000165       0.001166       0.000000
     -0.000079       0.000714       0.000000
     -0.000145      -0.000220       0.000000
     -0.000130      -0.000097       0.000000
     -0.000302      -0.000111       0.000000
     -0.000304      -0.000247       0.000000
     -0.000130      -0.000097       0.000000
     -0.000119       0.000008       0.000000
     -0.000311       0.000006       0.000000
     -0.000302      -0.000111       0.000000
     -0.000304      -0.000247       0.000000
     -0.000302      -0.000111       0.000000
     -0.000457      -0.000110       0.000000
     -0.000455      -0.000249       0.000000
     -0.000302      -0.000111       0.000000
     -0.000311       0.000006       0.000000
     -0.000486       0.000019       0.000000
     -0.000457      -0.000110       0.000000
     -0.000119       0.000008       0.000000
     -0.000103       0.000145       0.000000
     -0.000329       0.000152       0.000000
     -0.000311       0.000006       0.000000
     -0.000103       0.000145       0.000000
     -0.000083       0.000364       0.000000
     -0.000347       0.000391       0.000000
     -0.000329       0.000152       0.000000
     -0.000311       0.000006       0.000000
     -0.000329       0.000152       0.000000
     -0.000561       0.000178       0.000000
     -0.000486       0.000019       0.000000
     -0.000329       0.000152       0.000000
     -0.000347       0.000391       0.000000
     -0.000691       0.000427       0.000000
     -0.000561       0.000178       0.000000
     -0.000083       0.000364       0.000000
     -0.000075       0.000522       0.000000
     -0.000193       0.000556       0.000000
     -0.000200       0.000381       0.000000
     -0.000075       0.000522       0.000000
     -0.000079       0.000714       0.000000
     -0.000190       0.000784       0.000000
     -0.000193       0.000556       0.000000
     -0.000200       0.000381       0.000000
     -0.000193       0.000556       0.000000
     -0.000350       0.000576       0.000000
     -0.000347       0.000391       0.000000
     -0.000193       0.000556       0.000000
     -0.000190       0.000784       0.000000
     -0.000346       0.000831       0.000000
     -0.000350       0.000576       0.000000
     -0.000079       0.000714       0.000000
     -0.000106       0.000937       0.000000
     -0.000208       0.001063       0.000000
     -0.000190       0.000784       0.000000
     -0.000106       0.000937       0.000000
     -0.000165       0.001166       0.000000
     -0.000269       0.001364       0.000000
     -0.000208       0.001063       0.000000
     -0.000190       0.000784       0.000000
     -0.000208       0.001063       0.000000
     -0.000350       0.001177       0.000000
     -0.000346       0.000831       0.000000
     -0.000208       0.001063       0.000000
     -0.000269       0.001364       0.000000
     -0.000407       0.001588       0.000000
     -0.000350       0.001177       0.000000
     -0.000347       0.000391       0.000000
     -0.000350       0.000576       0.000000
     -0.000552       0.000589       0.000000
     -0.000518       0.000402       0.000000
     -0.000350       0.000576       0.000000
     -0.000346       0.000831       0.000000
     -0.000576       0.000853       0.000000
     -0.000552       0.000589       0.000000
     -0.000518       0.000402       0.000000
     -0.000552       0.000589       0.000000
     -0.000779       0.000616       0.000000
     -0.000691       0.000427       0.000000
     -0.000552       0.000589       0.000000
     -0.000576       0.000853       0.000000
     -0.000885       0.000880       0.000000
     -0.000779       0.000616       0.000000
     -0.000346       0.000831       0.000000
     -0.000345       0.000993       0.000000
     -0.000448       0.001017       0.000000
     -0.000450       0.000845       0.000000
     -0.000345       0.000993       0.000000
     -0.000350       0.001177       0.000000
     -0.000447       0.001223       0.000000
     -0.000448       0.001017       0.000000
     -0.000450       0.000845       0.000000
     -0.000448       0.001017       0.000000
     -0.000580       0.001030       0.000000
     -0.000576       0.000853       0.000000
     -0.000448       0.001017       0.000000
     -0.000447       0.001223       0.000000
     -0.000577       0.001254       0.000000
     -0.000580       0.001030       0.000000
     -0.000350       0.001177       0.000000
     -0.000368       0.001381       0.000000
     -0.000458       0.001463       0.000000
     -0.000447       0.001223       0.000000
     -0.000368       0.001381       0.000000
     -0.000407       0.001588       0.000000
     -0.000497       0.001717       0.000000
     -0.000458       0.001463       0.000000
     -0.000447       0.001223       0.000000
     -0.000458       0.001463       0.000000
     -0.000575       0.001539       0.000000
     -0.000577       0.001254       0.000000
     -0.000458       0.001463       0.000000
     -0.000497       0.001717       0.000000
     -0.000610       0.001871       0.000000
     -0.000575       0.001539       0.000000
     -0.000576       0.000853       0.000000
     -0.000580       0.001030       0.000000
     -0.000749       0.001039       0.000000
     -0.000725       0.000862       0.000000
     -0.000580       0.001030       0.000000
     -0.000577       0.001254       0.000000
     -0.000762       0.001267       0.000000
     -0.000749       0.001039       0.000000
     -0.000725       0.000862       0.000000
     -0.000749       0.001039       0.000000
     -0.000945       0.001057       0.000000
     -0.000885       0.000880       0.000000
     -0.000749       0.001039       0.000000
     -0.000762       0.001267       0.000000
     -0.001013       0.001283       0.000000
     -0.000945       0.001057       0.000000
     -0.000577       0.001254       0.000000
     -0.000574       0.001389       0.000000
     -0.000657       0.001404       0.000000
     -0.000661       0.001262       0.000000
     -0.000574       0.001389       0.000000
     -0.000575       0.001539       0.000000
     -0.000653       0.001571       0.000000
     -0.000657       0.001404       0.000000
     -0.000661       0.001262       0.000000
     -0.000657       0.001404       0.000000
     -0.000762       0.001412       0.000000
     -0.000762       0.001267       0.000000
     -0.000657       0.001404       0.000000
     -0.000653       0.001571       0.000000
     -0.000755       0.001592       0.000000
     -0.000762       0.001412       0.000000
     -0.000575       0.001539       0.000000
     -0.000586       0.001704       0.000000
     -0.000657       0.001763       0.000000
     -0.000653       0.001571       0.000000
     -0.000586       0.001704       0.000000
     -0.000610       0.001871       0.000000
     -0.000681       0.001965       0.000000
     -0.000657       0.001763       0.000000
     -0.000653       0.001571       0.000000
     -0.000657       0.001763       0.000000
     -0.000748       0.001820       0.000000
     -0.000755       0.001592       0.000000
     -0.000657       0.001763       0.000000
     -0.000681       0.001965       0.000000
     -0.000769       0.002084       0.000000
     -0.000748       0.001820       0.000000
     -0.000762       0.001267       0.000000
     -0.000762       0.001412       0.000000
     -0.000896       0.001416       0.000000
     -0.000883       0.001272       0.000000
     -0.000762       0.001412       0.000000
     -0.000755       0.001592       0.000000
     -0.000901       0.001599       0.000000
     -0.000896       0.001416       0.000000
     -0.000883       0.001272       0.000000
     -0.000896       0.001416       0.000000
     -0.001053       0.001428       0.000000
     -0.001013       0.001283       0.000000
     -0.000896       0.001416       0.000000
     -0.000901       0.001599       0.000000
     -0.001100       0.001611       0.000000
     -0.001053       0.001428       0.000000
     -0.000755       0.001592       0.000000
     -0.000748       0.001820       0.000000
     -0.000886       0.001861       0.000000
     -0.000901       0.001599       0.000000
     -0.000748       0.001820       0.000000
     -0.000769       0.002084       0.000000
     -0.000895       0.002259       0.000000
     -0.000886       0.001861       0.000000
     -0.000901       0.001599       0.000000
     -0.000886       0.001861       0.000000
     -0.001164       0.001883       0.000000
     -0.001100       0.001611       0.000000
     -0.000886       0.001861       0.000000
     -0.000895       0.002259       0.000000
     -0.001244       0.002751       0.000000
     -0.001164       0.001883       0.000000
      0.000000       0.000000       0.000000
      0.000000       0.000000       0.000000
      0.000017       0.000296       0.000000
      0.000077       0.000237       0.000000
      0.000000       0.000000       0.000000
      0.000000       0.000000       0.000000
     -0.000062       0.000342       0.000000
      0.000017       0.000296       0.000000
      0.000077       0.000237       0.000000
      0.000017       0.000296       0.000000
     -0.000047       0.000647       0.000000
      0.000064       0.000509       0.000000
      0.000017       0.000296       0.000000
     -0.000062       0.000342       0.000000
     -0.000192       0.000748       0.000000
     -0.000047       0.000647       0.000000
      0.000000       0.000000       0.000000
      0.000000       0.000000       0.000000
     -0.000153       0.000377       0.000000
     -0.000062       0.000342       0.000000
      0.000000       0.000000       0.000000
      0.000000       0.000000       0.000000
     -0.000257       0.000416       0.000000
     -0.000153       0.000377       0.000000
     -0.000062       0.000342       0.000000
     -0.000153       0.000377       0.000000
     -0.000355       0.000822       0.000000
     -0.000192       0.000748       0.000000
     -0.000153       0.000377       0.000000
     -0.000257       0.000416       0.000000
     -0.000534       0.000900       0.000000
     -0.000355       0.000822       0.000000
      0.000000       0.000000       0.000000
      0.000000       0.000000       0.000000
     -0.000400       0.000501       0.000000
     -0.000257       0.000416       0.000000
      0.000000       0.000000       0.000000
      0.000000       0.000000       0.000000
     -0.000619       0.000756       0.000000
     -0.000400       0.000501       0.000000
     -0.000257       0.000416       0.000000
     -0.000400       0.000501       0.000000
     -0.000734       0.001029       0.000000
     -0.000534       0.000900       0.000000
     -0.000400       0.000501       0.000000
     -0.000619       0.000756       0.000000
     -0.000944       0.001256       0.000000
     -0.000734       0.001029       0.000000
      0.000064       0.000509       0.000000
     -0.000047       0.000647       0.000000
     -0.000176       0.001056       0.000000
     -0.000019       0.000817       0.000000
     -0.000047       0.000647       0.000000
     -0.000192       0.000748       0.000000
     -0.000375       0.001216       0.000000
     -0.000176       0.001056       0.000000
     -0.000019       0.000817       0.000000
     -0.000176       0.001056       0.000000
     -0.000372       0.001541       0.000000
     -0.000165       0.001166       0.000000
     -0.000176       0.001056       0.000000
     -0.000375       0.001216       0.000000
     -0.000605       0.001735       0.000000
     -0.000372       0.001541       0.000000
     -0.000192       0.000748       0.000000
     -0.000355       0.000822       0.000000
     -0.000583       0.001315       0.000000
     -0.000375       0.001216       0.000000
     -0.000355       0.000822       0.000000
     -0.000534       0.000900       0.000000
     -0.000790       0.001402       0.000000
     -0.000583       0.001315       0.000000
     -0.000375       0.001216       0.000000
     -0.000583       0.001315       0.000000
     -0.000814       0.001825       0.000000
     -0.000605       0.001735       0.000000
     -0.000583       0.001315       0.000000
     -0.000790       0.001402       0.000000
     -0.001012       0.001894       0.000000
     -0.000814       0.001825       0.000000
     -0.000534       0.000900       0.000000
     -0.000734       0.001029       0.000000
     -0.000996       0.001523       0.000000
     -0.000790       0.001402       0.000000
     -0.000734       0.001029       0.000000
     -0.000944       0.001256       0.000000
     -0.001191       0.001707       0.000000
     -0.000996       0.001523       0.000000
     -0.000790       0.001402       0.000000
     -0.000996       0.001523       0.000000
     -0.001204       0.001984       0.000000
     -0.001012       0.001894       0.000000
     -0.000996       0.001523       0.000000
     -0.001191       0.001707       0.000000
     -0.001384       0.002120       0.000000
     -0.001204       0.001984       0.000000
     -0.000605       0.001735       0.000000
     -0.000814       0.001825       0.000000
     -0.001009       0.002318       0.000000
     -0.000855       0.002271       0.000000
     -0.000814       0.001825       0.000000
     -0.001012       0.001894       0.000000
     -0.001174       0.002360       0.000000
     -0.001009       0.002318       0.000000
     -0.000855       0.002271       0.000000
     -0.001009       0.002318       0.000000
     -0.001099       0.002776       0.000000
     -0.000994       0.002757       0.000000
     -0.001009       0.002318       0.000000
     -0.001174       0.002360       0.000000
     -0.001244       0.002804       0.000000
     -0.001099       0.002776       0.000000
     -0.001012       0.001894       0.000000
     -0.001204       0.001984       0.000000
     -0.001348       0.002418       0.000000
     -0.001174       0.002360       0.000000
     -0.001204       0.001984       0.000000
     -0.001384       0.002120       0.000000
     -0.001516       0.002500       0.000000
     -0.001348       0.002418       0.000000
     -0.001174       0.002360       0.000000
     -0.001348       0.002418       0.000000
     -0.001410       0.002836       0.000000
     -0.001244       0.002804       0.000000
     -0.001348       0.002418       0.000000
     -0.001516       0.002500       0.000000
     -0.001576       0.002863       0.000000
     -0.001410       0.002836       0.000000
     -0.000165       0.001166       0.000000
     -0.000258       0.001375       0.000000
     -0.000377       0.001630       0.000000
     -0.000269       0.001364       0.000000
     -0.000258       0.001375       0.000000
     -0.000372       0.001541       0.000000
     -0.000505       0.001821       0.000000
     -0.000377       0.001630       0.000000
     -0.000269       0.001364       0.000000
     -0.000377       0.001630       0.000000
     -0.000536       0.001935       0.000000
     -0.000407       0.001588       0.000000
     -0.000377       0.001630       0.000000
     -0.000505       0.001821       0.000000
     -0.000669       0.002132       0.000000
     -0.000536       0.001935       0.000000
     -0.000372       0.001541       0.000000
     -0.000490       0.001657       0.000000
     -0.000625       0.001938       0.000000
     -0.000505       0.001821       0.000000
     -0.000490       0.001657       0.000000
     -0.000605       0.001735       0.000000
     -0.000732       0.002005       0.000000
     -0.000625       0.001938       0.000000
     -0.000505       0.001821       0.000000
     -0.000625       0.001938       0.000000
     -0.000772       0.002225       0.000000