# vtk DataFile Version 2.0
time_10.vtk
ASCII
DATASET UNSTRUCTURED_GRID
POINTS   576 float
      0.458579       0.641421       0.000000
      0.497369       0.671659       0.000000
      0.438243       0.730363       0.000000
      0.382149       0.701184       0.000000
      0.497369       0.671659       0.000000
      0.545805       0.692517       0.000000
      0.506084       0.750000       0.000000
      0.438243       0.730363       0.000000
      0.382149       0.701184       0.000000
      0.438243       0.730363       0.000000
      0.380813       0.787383       0.000000
      0.305719       0.760948       0.000000
      0.438243       0.730363       0.000000
      0.506084       0.750000       0.000000
      0.468251       0.804752       0.000000
      0.380813       0.787383       0.000000
      0.545805       0.692517       0.000000
      0.600000       0.700000       0.000000
      0.581017       0.756950       0.000000
      0.506084       0.750000       0.000000
      0.600000       0.700000       0.000000
      0.654195       0.692517       0.000000
      0.656527       0.750000       0.000000
      0.581017       0.756950       0.000000
      0.506084       0.750000       0.000000
      0.581017       0.756950       0.000000
      0.563060       0.810819       0.000000
      0.468251       0.804752       0.000000
      0.581017       0.756950       0.000000
      0.656527       0.750000       0.000000
      0.658747       0.804752       0.000000
      0.563060       0.810819       0.000000
      0.654195       0.692517       0.000000
      0.702631       0.671659       0.000000
      0.725999       0.730363       0.000000
      0.656527       0.750000       0.000000
      0.702631       0.671659       0.000000
      0.741421       0.641421       0.000000
      0.784518       0.701184       0.000000
      0.725999       0.730363       0.000000
      0.656527       0.750000       0.000000
      0.725999       0.730363       0.000000
      0.748697       0.787383       0.000000
      0.658747       0.804752       0.000000
      0.725999       0.730363       0.000000
      0.784518       0.701184       0.000000
      0.827614       0.760948       0.000000
      0.748697       0.787383       0.000000
      0.305719       0.760948       0.000000
      0.380813       0.787383       0.000000
      0.325006       0.842791       0.000000
      0.229289       0.820711       0.000000
      0.380813       0.787383       0.000000
      0.468251       0.804752       0.000000
      0.432173       0.856962       0.000000
      0.325006       0.842791       0.000000
      0.229289       0.820711       0.000000
      0.325006       0.842791       0.000000
      0.270755       0.896655       0.000000
      0.152860       0.880474       0.000000
      0.325006       0.842791       0.000000
      0.432173       0.856962       0.000000
      0.397732       0.906804       0.000000
      0.270755       0.896655       0.000000
      0.468251       0.804752       0.000000
      0.563060       0.810819       0.000000
      0.546050       0.861851       0.000000
      0.432173       0.856962       0.000000
      0.563060       0.810819       0.000000
      0.658747       0.804752       0.000000
      0.660865       0.856962       0.000000
      0.546050       0.861851       0.000000
      0.432173       0.856962       0.000000
      0.546050       0.861851       0.000000
      0.529912       0.910264       0.000000
      0.397732       0.906804       0.000000
      0.546050       0.861851       0.000000
      0.660865       0.856962       0.000000
      0.662887       0.906804       0.000000
      0.529912       0.910264       0.000000
      0.658747       0.804752       0.000000
      0.748697       0.787383       0.000000
      0.770753       0.842791       0.000000
      0.660865       0.856962       0.000000
      0.748697       0.787383       0.000000
      0.827614       0.760948       0.000000
      0.870711       0.820711       0.000000
      0.770753       0.842791       0.000000
      0.660865       0.856962       0.000000
      0.770753       0.842791       0.000000
      0.792195       0.896655       0.000000
      0.662887       0.906804       0.000000
      0.770753       0.842791       0.000000
      0.870711       0.820711       0.000000
      0.913807       0.880474       0.000000
      0.792195       0.896655       0.000000
      0.152860       0.880474       0.000000
      0.270755       0.896655       0.000000
      0.217995       0.949038       0.000000
      0.076430       0.940237       0.000000
      0.270755       0.896655       0.000000
      0.397732       0.906804       0.000000
      0.364819       0.954435       0.000000
      0.217995       0.949038       0.000000
      0.076430       0.940237       0.000000
      0.217995       0.949038       0.000000
      0.166667       1.000000       0.000000
      0.000000       1.000000       0.000000
      0.217995       0.949038       0.000000
      0.364819       0.954435       0.000000
      0.333333       1.000000       0.000000
      0.166667       1.000000       0.000000
      0.397732       0.906804       0.000000
      0.529912       0.910264       0.000000
      0.514582       0.956255       0.000000
      0.364819       0.954435       0.000000
      0.529912       0.910264       0.000000
      0.662887       0.906804       0.000000
      0.664819       0.954435       0.000000
      0.514582       0.956255       0.000000
      0.364819       0.954435       0.000000
      0.514582       0.956255       0.000000
      0.500000       1.000000       0.000000
      0.333333       1.000000       0.000000
      0.514582       0.956255       0.000000
      0.664819       0.954435       0.000000
      0.666667       1.000000       0.000000
      0.500000       1.000000       0.000000
      0.662887       0.906804       0.000000
      0.792195       0.896655       0.000000
      0.813047       0.949038       0.000000
      0.664819       0.954435       0.000000
      0.792195       0.896655       0.000000
      0.913807       0.880474       0.000000
      0.956904       0.940237       0.000000
      0.813047       0.949038       0.000000
      0.664819       0.954435       0.000000
      0.813047       0.949038       0.000000
      0.833333       1.000000       0.000000
      0.666667       1.000000       0.000000
      0.813047       0.949038       0.000000
      0.956904       0.940237       0.000000
      1.000000       1.000000       0.000000
      0.833333       1.000000       0.000000
      0.458579       0.358579       0.000000
      0.428341       0.397369       0.000000
      0.351758       0.356122       0.000000
      0.382149       0.298816       0.000000
      0.428341       0.397369       0.000000
      0.407483       0.445805       0.000000
      0.331305       0.424779       0.000000
      0.351758       0.356122       0.000000
      0.382149       0.298816       0.000000
      0.351758       0.356122       0.000000
      0.277372       0.316058       0.000000
      0.305719       0.239052       0.000000
      0.351758       0.356122       0.000000
      0.331305       0.424779       0.000000
      0.258747       0.404752       0.000000
      0.277372       0.316058       0.000000
      0.407483       0.445805       0.000000
      0.400000       0.500000       0.000000
      0.324066       0.500000       0.000000
      0.331305       0.424779       0.000000
      0.400000       0.500000       0.000000
      0.407483       0.554195       0.000000
      0.331305       0.575221       0.000000
      0.324066       0.500000       0.000000
      0.331305       0.424779       0.000000
      0.324066       0.500000       0.000000
      0.252241       0.500000       0.000000
      0.258747       0.404752       0.000000
      0.324066       0.500000       0.000000
      0.331305       0.575221       0.000000
      0.258747       0.595248       0.000000
      0.252241       0.500000       0.000000
      0.407483       0.554195       0.000000
      0.428341       0.602631       0.000000
      0.351758       0.643878       0.000000
      0.331305       0.575221       0.000000
      0.428341       0.602631       0.000000
      0.458579       0.641421       0.000000
      0.382149       0.701184       0.000000
      0.351758       0.643878       0.000000
      0.331305       0.575221       0.000000
      0.351758       0.643878       0.000000
      0.277372       0.683942       0.000000
      0.258747       0.595248       0.000000
      0.351758       0.643878       0.000000
      0.382149       0.701184       0.000000
      0.305719       0.760948       0.000000
      0.277372       0.683942       0.000000
      0.305719       0.239052       0.000000
      0.277372       0.316058       0.000000
      0.205089       0.277126       0.000000
      0.229289       0.179289       0.000000
      0.277372       0.316058       0.000000
      0.258747       0.404752       0.000000
      0.189557       0.385654       0.000000
      0.205089       0.277126       0.000000
      0.229289       0.179289       0.000000
      0.205089       0.277126       0.000000
      0.134820       0.239280       0.000000
      0.152860       0.119526       0.000000
      0.205089       0.277126       0.000000
      0.189557       0.385654       0.000000
      0.123505       0.367423       0.000000
      0.134820       0.239280       0.000000
      0.258747       0.404752       0.000000
      0.252241       0.500000       0.000000
      0.184198       0.500000       0.000000
      0.189557       0.385654       0.000000
      0.252241       0.500000       0.000000
      0.258747       0.595248       0.000000
      0.189557       0.614346       0.000000
      0.184198       0.500000       0.000000
      0.189557       0.385654       0.000000
      0.184198       0.500000       0.000000
      0.119648       0.500000       0.000000
      0.123505       0.367423       0.000000
[...]
POINT_DATA   576
VECTORS U float 
      0.000403       0.005228       0.000000
      0.000207       0.005596       0.000000
      0.000035       0.005318       0.000000
      0.000264       0.004849       0.000000
      0.000207       0.005596       0.000000
      0.000003       0.005841       0.000000
     -0.000116       0.005734       0.000000
      0.000035       0.005318       0.000000
      0.000264       0.004849       0.000000
      0.000035       0.005318       0.000000
      0.000059       0.005290       0.000000
      0.000332       0.004893       0.000000
      0.000035       0.005318       0.000000
     -0.000116       0.005734       0.000000
     -0.000130       0.005689       0.000000
      0.000059       0.005290       0.000000
      0.000003       0.005841       0.000000
     -0.000208       0.005941       0.000000
     -0.000195       0.005967       0.000000
     -0.000116       0.005734       0.000000
     -0.000208       0.005941       0.000000
     -0.000438       0.005890       0.000000
     -0.000272       0.005927       0.000000
     -0.000195       0.005967       0.000000
     -0.000116       0.005734       0.000000
     -0.000195       0.005967       0.000000
     -0.000194       0.005964       0.000000
     -0.000130       0.005689       0.000000
     -0.000195       0.005967       0.000000
     -0.000272       0.005927       0.000000
     -0.000205       0.005953       0.000000
     -0.000194       0.005964       0.000000
     -0.000438       0.005890       0.000000
     -0.000699       0.005687       0.000000
     -0.000413       0.005619       0.000000
     -0.000272       0.005927       0.000000
     -0.000699       0.005687       0.000000
     -0.000985       0.005349       0.000000
     -0.000660       0.005143       0.000000
     -0.000413       0.005619       0.000000
     -0.000272       0.005927       0.000000
     -0.000413       0.005619       0.000000
     -0.000296       0.005641       0.000000
     -0.000205       0.005953       0.000000
     -0.000413       0.005619       0.000000
     -0.000660       0.005143       0.000000
     -0.000527       0.005170       0.000000
     -0.000296       0.005641       0.000000
      0.000332       0.004893       0.000000
      0.000059       0.005290       0.000000
      0.000122       0.005401       0.000000
      0.000433       0.005099       0.000000
      0.000059       0.005290       0.000000
     -0.000130       0.005689       0.000000
     -0.000111       0.005724       0.000000
      0.000122       0.005401       0.000000
      0.000433       0.005099       0.000000
      0.000122       0.005401       0.000000
      0.000200       0.005594       0.000000
      0.000552       0.005382       0.000000
      0.000122       0.005401       0.000000
     -0.000111       0.005724       0.000000
     -0.000080       0.005818       0.000000
      0.000200       0.005594       0.000000
     -0.000130       0.005689       0.000000
     -0.000194       0.005964       0.000000
     -0.000188       0.005978       0.000000
     -0.000111       0.005724       0.000000
     -0.000194       0.005964       0.000000
     -0.000205       0.005953       0.000000
     -0.000170       0.005988       0.000000
     -0.000188       0.005978       0.000000
     -0.000111       0.005724       0.000000
     -0.000188       0.005978       0.000000
     -0.000182       0.006014       0.000000
     -0.000080       0.005818       0.000000
     -0.000188       0.005978       0.000000
     -0.000170       0.005988       0.000000
     -0.000149       0.006032       0.000000
     -0.000182       0.006014       0.000000
     -0.000205       0.005953       0.000000
     -0.000296       0.005641       0.000000
     -0.000234       0.005712       0.000000
     -0.000170       0.005988       0.000000
     -0.000296       0.005641       0.000000
     -0.000527       0.005170       0.000000
     -0.000454       0.005288       0.000000
     -0.000234       0.005712       0.000000
     -0.000170       0.005988       0.000000
     -0.000234       0.005712       0.000000
     -0.000200       0.005819       0.000000
     -0.000149       0.006032       0.000000
     -0.000234       0.005712       0.000000
     -0.000454       0.005288       0.000000
     -0.000434       0.005483       0.000000
     -0.000200       0.005819       0.000000
      0.000552       0.005382       0.000000
      0.000200       0.005594       0.000000
      0.000297       0.005842       0.000000
      0.000707       0.005721       0.000000
      0.000200       0.005594       0.000000
     -0.000080       0.005818       0.000000
     -0.000041       0.005956       0.000000
      0.000297       0.005842       0.000000
      0.000707       0.005721       0.000000
      0.000297       0.005842       0.000000
      0.000422       0.006132       0.000000
      0.000923       0.006132       0.000000
      0.000297       0.005842       0.000000
     -0.000041       0.005956       0.000000
      0.000012       0.006132       0.000000
      0.000422       0.006132       0.000000
     -0.000080       0.005818       0.000000
     -0.000182       0.006014       0.000000
     -0.000178       0.006066       0.000000
     -0.000041       0.005956       0.000000
     -0.000182       0.006014       0.000000
     -0.000149       0.006032       0.000000
     -0.000137       0.006081       0.000000
     -0.000178       0.006066       0.000000
     -0.000041       0.005956       0.000000
     -0.000178       0.006066       0.000000
     -0.000174       0.006132       0.000000
      0.000012       0.006132       0.000000
     -0.000178       0.006066       0.000000
     -0.000137       0.006081       0.000000
     -0.000133       0.006132       0.000000
     -0.000174       0.006132       0.000000
     -0.000149       0.006032       0.000000
     -0.000200       0.005819       0.000000
     -0.000191       0.005959       0.000000
     -0.000137       0.006081       0.000000
     -0.000200       0.005819       0.000000
     -0.000434       0.005483       0.000000
     -0.000472       0.005765       0.000000
     -0.000191       0.005959       0.000000
     -0.000137       0.006081       0.000000
     -0.000191       0.005959       0.000000
     -0.000204       0.006132       0.000000
     -0.000133       0.006132       0.000000
     -0.000191       0.005959       0.000000
     -0.000472       0.005765       0.000000
     -0.000569       0.006132       0.000000
     -0.000204       0.006132       0.000000
      0.000352       0.000780       0.000000
      0.000537       0.001262       0.000000
      0.000520       0.001669       0.000000
      0.000212       0.001142       0.000000
      0.000537       0.001262       0.000000
      0.000681       0.001961       0.000000
      0.000866       0.002302       0.000000
      0.000520       0.001669       0.000000
      0.000212       0.001142       0.000000
      0.000520       0.001669       0.000000
      0.000593       0.001678       0.000000
      0.000252       0.001095       0.000000
      0.000520       0.001669       0.000000
      0.000866       0.002302       0.000000
      0.000978       0.002349       0.000000
      0.000593       0.001678       0.000000
      0.000681       0.001961       0.000000
      0.000718       0.002980       0.000000
      0.001055       0.002995       0.000000
      0.000866       0.002302       0.000000
      0.000718       0.002980       0.000000
      0.000709       0.004011       0.000000
      0.000902       0.003685       0.000000
      0.001055       0.002995       0.000000
      0.000866       0.002302       0.000000
      0.001055       0.002995       0.000000
      0.001180       0.003005       0.000000
      0.000978       0.002349       0.000000
      0.001055       0.002995       0.000000
      0.000902       0.003685       0.000000
      0.001015       0.003653       0.000000
      0.001180       0.003005       0.000000
      0.000709       0.004011       0.000000
      0.000584       0.004725       0.000000
      0.000573       0.004314       0.000000
      0.000902       0.003685       0.000000
      0.000584       0.004725       0.000000
      0.000403       0.005228       0.000000
      0.000264       0.004849       0.000000
      0.000573       0.004314       0.000000
      0.000902       0.003685       0.000000
      0.000573       0.004314       0.000000
      0.000657       0.004310       0.000000
      0.001015       0.003653       0.000000
      0.000573       0.004314       0.000000
      0.000264       0.004849       0.000000
      0.000332       0.004893       0.000000
      0.000657       0.004310       0.000000
      0.000252       0.001095       0.000000
      0.000593       0.001678       0.000000
      0.000676       0.001569       0.000000
      0.000296       0.000896       0.000000
      0.000593       0.001678       0.000000
      0.000978       0.002349       0.000000
      0.001088       0.002312       0.000000
      0.000676       0.001569       0.000000
      0.000296       0.000896       0.000000
      0.000676       0.001569       0.000000
      0.000752       0.001442       0.000000
      0.000305       0.000638       0.000000
      0.000676       0.001569       0.000000
      0.001088       0.002312       0.000000
      0.001200       0.002270       0.000000
      0.000752       0.001442       0.000000
      0.000978       0.002349       0.000000
      0.001180       0.003005       0.000000
      0.001295       0.003016       0.000000
      0.001088       0.002312       0.000000
      0.001180       0.003005       0.000000
      0.001015       0.003653       0.000000
      0.001128       0.003711       0.000000
      0.001295       0.003016       0.000000
      0.001088       0.002312       0.000000
      0.001295       0.003016       0.000000
      0.001419       0.003029       0.000000
      0.001200       0.002270       0.000000
      0.001295       0.003016       0.000000
      0.001128       0.003711       0.000000
      0.001243       0.003783       0.000000
      0.001419       0.003029       0.000000
      0.001015       0.003653       0.000000
      0.000657       0.004310       0.000000
      0.000760       0.004435       0.000000
      0.001128       0.003711       0.000000
      0.000657       0.004310       0.000000
      0.000332       0.004893       0.000000
      0.000433       0.005099       0.000000
      0.000760       0.004435       0.000000
      0.001128       0.003711       0.000000
      0.000760       0.004435       0.000000
      0.000863       0.004594       0.000000
      0.001243       0.003783       0.000000
      0.000760       0.004435       0.000000
      0.000433       0.005099       0.000000
      0.000552       0.005382       0.000000
      0.000863       0.004594       0.000000
      0.000305       0.000638       0.000000
      0.000752       0.001442       0.000000
      0.000818       0.001347       0.000000
      0.000247       0.000351       0.000000
      0.000752       0.001442       0.000000
      0.001200       0.002270       0.000000
      0.001306       0.002255       0.000000
      0.000818       0.001347       0.000000
      0.000247       0.000351       0.000000
      0.000818       0.001347       0.000000
      0.000875       0.001304       0.000000
      0.000000       0.000000       0.000000
      0.000818       0.001347       0.000000
      0.001306       0.002255       0.000000
      0.001400       0.002293       0.000000
      0.000875       0.001304       0.000000
      0.001200       0.002270       0.000000
      0.001419       0.003029       0.000000
      0.001546       0.003042       0.000000
      0.001306       0.002255       0.000000
      0.001419       0.003029       0.000000
      0.001243       0.003783       0.000000
      0.001356       0.003832       0.000000
      0.001546       0.003042       0.000000
      0.001306       0.002255       0.000000
      0.001546       0.003042       0.000000
      0.001661       0.003052       0.000000
      0.001400       0.002293       0.000000
      0.001546       0.003042       0.000000
      0.001356       0.003832       0.000000
      0.001461       0.003828       0.000000
      0.001661       0.003052       0.000000
      0.001243       0.003783       0.000000
      0.000863       0.004594       0.000000
      0.000967       0.004747       0.000000
      0.001356       0.003832       0.000000
      0.000863       0.004594       0.000000
      0.000552       0.005382       0.000000
      0.000707       0.005721       0.000000
      0.000967       0.004747       0.000000
      0.001356       0.003832       0.000000
      0.000967       0.004747       0.000000
      0.001087       0.004882       0.000000
      0.001461       0.003828       0.000000
      0.000967       0.004747       0.000000
      0.000707       0.005721       0.000000
      0.000923       0.006132       0.000000
      0.001087       0.004882       0.000000
     -0.000925       0.000728       0.000000
     -0.000634       0.000391       0.000000
     -0.000339       0.000464       0.000000
     -0.000585       0.000942       0.000000
     -0.000634       0.000391       0.000000
     -0.000384       0.000191       0.000000
     -0.000213       0.000162       0.000000
     -0.000339       0.000464       0.000000
     -0.000585       0.000942       0.000000
     -0.000339       0.000464       0.000000
     -0.000197       0.000450       0.000000
     -0.000427       0.000924       0.000000
     -0.000339       0.000464       0.000000
     -0.000213       0.000162       0.000000
     -0.000127       0.000146       0.000000
     -0.000197       0.000450       0.000000
     -0.000384       0.000191       0.000000
     -0.000181       0.000136       0.000000
     -0.000161       0.000117       0.000000
     -0.000213       0.000162       0.000000
     -0.000181       0.000136       0.000000
     -0.000006       0.000220       0.000000
     -0.000113       0.000319       0.000000
     -0.000161       0.000117       0.000000
     -0.000213       0.000162       0.000000
     -0.000161       0.000117       0.000000
     -0.000149       0.000126       0.000000
     -0.000127       0.000146       0.000000
     -0.000161       0.000117       0.000000
     -0.000113       0.000319       0.000000
     -0.000131       0.000363       0.000000
     -0.000149       0.000126       0.000000
     -0.000006       0.000220       0.000000
      0.000169       0.000438       0.000000
      0.000004       0.000697       0.000000
     -0.000113       0.000319       0.000000
      0.000169       0.000438       0.000000
      0.000352       0.000780       0.000000
      0.000212       0.001142       0.000000
      0.000004       0.000697       0.000000
     -0.000113       0.000319       0.000000
      0.000004       0.000697       0.000000
      0.000009       0.000721       0.000000
     -0.000131       0.000363       0.000000
      0.000004       0.000697       0.000000
      0.000212       0.001142       0.000000
      0.000252       0.001095       0.000000
      0.000009       0.000721       0.000000
     -0.000427       0.000924       0.000000
     -0.000197       0.000450       0.000000
     -0.000104       0.000384       0.000000
     -0.000320       0.000810       0.000000
     -0.000197       0.000450       0.000000
     -0.000127       0.000146       0.000000
     -0.000069       0.000123       0.000000
     -0.000104       0.000384       0.000000
     -0.000320       0.000810       0.000000
     -0.000104       0.000384       0.000000
     -0.000038       0.000281       0.000000
     -0.000251       0.000620       0.000000
     -0.000104       0.000384       0.000000
     -0.000069       0.000123       0.000000
     -0.000028       0.000091       0.000000
     -0.000038       0.000281       0.000000
     -0.000127       0.000146       0.000000
     -0.000149       0.000126       0.000000
     -0.000129       0.000122       0.000000
     -0.000069       0.000123       0.000000
     -0.000149       0.000126       0.000000
     -0.000131       0.000363       0.000000
     -0.000116       0.000333       0.000000
     -0.000129       0.000122       0.000000
     -0.000069       0.000123       0.000000
     -0.000129       0.000122       0.000000
     -0.000103       0.000098       0.000000
     -0.000028       0.000091       0.000000
     -0.000129       0.000122       0.000000
     -0.000116       0.000333       0.000000
     -0.000089       0.000249       0.000000
     -0.000103       0.000098       0.000000
     -0.000131       0.000363       0.000000
      0.000009       0.000721       0.000000
      0.000038       0.000611       0.000000
     -0.000116       0.000333       0.000000
      0.000009       0.000721       0.000000
      0.000252       0.001095       0.000000
      0.000296       0.000896       0.000000
      0.000038       0.000611       0.000000
     -0.000116       0.000333       0.000000
      0.000038       0.000611       0.000000
      0.000056       0.000430       0.000000
     -0.000089       0.000249       0.000000
      0.000038       0.000611       0.000000
      0.000296       0.000896       0.000000
      0.000305       0.000638       0.000000
      0.000056       0.000430       0.000000
     -0.000251       0.000620       0.000000
     -0.000038       0.000281       0.000000
     -0.000000       0.000149       0.000000
     -0.000194       0.000348       0.000000
     -0.000038       0.000281       0.000000
     -0.000028       0.000091       0.000000
     -0.000003       0.000051       0.000000
     -0.000000       0.000149       0.000000
     -0.000194       0.000348       0.000000
     -0.000000       0.000149       0.000000
      0.000000       0.000000       0.000000
      0.000000       0.000000       0.000000
     -0.000000       0.000149       0.000000
     -0.000003       0.000051       0.000000
      0.000000       0.000000       0.000000
      0.000000       0.000000       0.000000
     -0.000028       0.000091       0.000000
     -0.000103       0.000098       0.000000
     -0.000063       0.000057       0.000000
     -0.000003       0.000051       0.000000
     -0.000103       0.000098       0.000000
     -0.000089       0.000249       0.000000
     -0.000050       0.000132       0.000000
     -0.000063       0.000057       0.000000
     -0.000003       0.000051       0.000000
     -0.000063       0.000057       0.000000
      0.000000       0.000000       0.000000
      0.000000       0.000000       0.000000
     -0.000063       0.000057       0.000000
     -0.000050       0.000132       0.000000
      0.000000       0.000000       0.000000
      0.000000       0.000000       0.000000
     -0.000089       0.000249       0.000000
      0.000056       0.000430       0.000000
      0.000049       0.000217       0.000000
     -0.000050       0.000132       0.000000
      0.000056       0.000430       0.000000
      0.000305       0.000638       0.000000
      0.000247       0.000351       0.000000
      0.000049       0.000217       0.000000
     -0.000050       0.000132       0.000000
      0.000049       0.000217       0.000000
      0.000000       0.000000       0.000000
      0.000000       0.000000       0.000000
      0.000049       0.000217       0.000000
      0.000247       0.000351       0.000000
      0.000000       0.000000       0.000000
      0.000000       0.000000       0.000000
     -0.000925       0.000728       0.000000
     -0.001246       0.001218       0.000000
     -0.001023       0.001464       0.000000
     -0.000585       0.000942       0.000000
     -0.001246       0.001218       0.000000
     -0.001529       0.001936       0.000000
     -0.001565       0.002134       0.000000
     -0.001023       0.001464       0.000000
     -0.000585       0.000942       0.000000
     -0.001023       0.001464       0.000000
     -0.000889       0.001496       0.000000