# vtk DataFile Version 2.0
time_10.vtk
ASCII
DATASET UNSTRUCTURED_GRID
POINTS   576 float
      0.458579       0.641421       0.000000
      0.497369       0.671659       0.000000
      0.438243       0.730363       0.000000
      0.382149       0.701184       0.000000
      0.497369       0.671659       0.000000
      0.545805       0.692517       0.000000
      0.506084       0.750000       0.000000
      0.438243       0.730363       0.000000
      0.382149       0.701184       0.000000
      0.438243       0.730363       0.000000
      0.380813       0.787383       0.000000
      0.305719       0.760948       0.000000
      0.438243       0.730363       0.000000
      0.506084       0.750000       0.000000
      0.468251       0.804752       0.000000
      0.380813       0.787383       0.000000
      0.545805       0.692517       0.000000
      0.600000       0.700000       0.000000
      0.581017       0.756950       0.000000
      0.506084       0.750000       0.000000
      0.600000       0.700000       0.000000
      0.654195       0.692517       0.000000
      0.656527       0.750000       0.000000
      0.581017       0.756950       0.000000
      0.506084       0.750000       0.000000
      0.581017       0.756950       0.000000
      0.563060       0.810819       0.000000
      0.468251       0.804752       0.000000
      0.581017       0.756950       0.000000
      0.656527       0.750000       0.000000
      0.658747       0.804752       0.000000
      0.563060       0.810819       0.000000
      0.654195       0.692517       0.000000
      0.702631       0.671659       0.000000
      0.725999       0.730363       0.000000
      0.656527       0.750000       0.000000
      0.702631       0.671659       0.000000
      0.741421       0.641421       0.000000
      0.784518       0.701184       0.000000
      0.725999       0.730363       0.000000
      0.656527       0.750000       0.000000
      0.725999       0.730363       0.000000
      0.748697       0.787383       0.000000
      0.658747       0.804752       0.000000
      0.725999       0.730363       0.000000
      0.784518       0.701184       0.000000
      0.827614       0.760948       0.000000
      0.748697       0.787383       0.000000
      0.305719       0.760948       0.000000
      0.380813       0.787383       0.000000
      0.325006       0.842791       0.000000
      0.229289       0.820711       0.000000
      0.380813       0.787383       0.000000
      0.468251       0.804752       0.000000
      0.432173       0.856962       0.000000
      0.325006       0.842791       0.000000
      0.229289       0.820711       0.000000
      0.325006       0.842791       0.000000
      0.270755       0.896655       0.000000
      0.152860       0.880474       0.000000
      0.325006       0.842791       0.000000
      0.432173       0.856962       0.000000
      0.397732       0.906804       0.000000
      0.270755       0.896655       0.000000
      0.468251       0.804752       0.000000
      0.563060       0.810819       0.000000
      0.546050       0.861851       0.000000
      0.432173       0.856962       0.000000
      0.563060       0.810819       0.000000
      0.658747       0.804752       0.000000
      0.660865       0.856962       0.000000
      0.546050       0.861851       0.000000
      0.432173       0.856962       0.000000
      0.546050       0.861851       0.000000
      0.529912       0.910264       0.000000
      0.397732       0.906804       0.000000
      0.546050       0.861851       0.000000
      0.660865       0.856962       0.000000
      0.662887       0.906804       0.000000
      0.529912       0.910264       0.000000
      0.658747       0.804752       0.000000
      0.748697       0.787383       0.000000
      0.770753       0.842791       0.000000
      0.660865       0.856962       0.000000
      0.748697       0.787383       0.000000
      0.827614       0.760948       0.000000
      0.870711       0.820711       0.000000
      0.770753       0.842791       0.000000
      0.660865       0.856962       0.000000
      0.770753       0.842791       0.000000
      0.792195       0.896655       0.000000
      0.662887       0.906804       0.000000
      0.770753       0.842791       0.000000
      0.870711       0.820711       0.000000
      0.913807       0.880474       0.000000
      0.792195       0.896655       0.000000
      0.152860       0.880474       0.000000
      0.270755       0.896655       0.000000
      0.217995       0.949038       0.000000
      0.076430       0.940237       0.000000
      0.270755       0.896655       0.000000
      0.397732       0.906804       0.000000
      0.364819       0.954435       0.000000
      0.217995       0.949038       0.000000
      0.076430       0.940237       0.000000
      0.217995       0.949038       0.000000
      0.166667       1.000000       0.000000
      0.000000       1.000000       0.000000
      0.217995       0.949038       0.000000
      0.364819       0.954435       0.000000
      0.333333       1.000000       0.000000
      0.166667       1.000000       0.000000
      0.397732       0.906804       0.000000
      0.529912       0.910264       0.000000
      0.514582       0.956255       0.000000
      0.364819       0.954435       0.000000
      0.529912       0.910264       0.000000
      0.662887       0.906804       0.000000
      0.664819       0.954435       0.000000
      0.514582       0.956255       0.000000
      0.364819       0.954435       0.000000
      0.514582       0.956255       0.000000
      0.500000       1.000000       0.000000
      0.333333       1.000000       0.000000
      0.514582       0.956255       0.000000
      0.664819       0.954435       0.000000
      0.666667       1.000000       0.000000
      0.500000       1.000000       0.000000
      0.662887       0.906804       0.000000
      0.792195       0.896655       0.000000
      0.813047       0.949038       0.000000
      0.664819       0.954435       0.000000
      0.792195       0.896655       0.000000
      0.913807       0.880474       0.000000
      0.956904       0.940237       0.000000
      0.813047       0.949038       0.000000
      0.664819       0.954435       0.000000
      0.813047       0.949038       0.000000
      0.833333       1.000000       0.000000
      0.666667       1.000000       0.000000
      0.813047       0.949038       0.000000
      0.956904       0.940237       0.000000
      1.000000       1.000000       0.000000
      0.833333       1.000000       0.000000
      0.458579       0.358579       0.000000
      0.428341       0.397369       0.000000
      0.351758       0.356122       0.000000
      0.382149       0.298816       0.000000
      0.428341       0.397369       0.000000
      0.407483       0.445805       0.000000
      0.331305       0.424779       0.000000
      0.351758       0.356122       0.000000
      0.382149       0.298816       0.000000
      0.351758       0.356122       0.000000
      0.277372       0.316058       0.000000
      0.305719       0.239052       0.000000
      0.351758       0.356122       0.000000
      0.331305       0.424779       0.000000
      0.258747       0.404752       0.000000
      0.277372       0.316058       0.000000
      0.407483       0.445805       0.000000
      0.400000       0.500000       0.000000
      0.324066       0.500000       0.000000
      0.331305       0.424779       0.000000
      0.400000       0.500000       0.000000
      0.407483       0.554195       0.000000
      0.331305       0.575221       0.000000
      0.324066       0.500000       0.000000
      0.331305       0.424779       0.000000
      0.324066       0.500000       0.000000
      0.252241       0.500000       0.000000
      0.258747       0.404752       0.000000
      0.324066       0.500000       0.000000
      0.331305       0.575221       0.000000
      0.258747       0.595248       0.000000
      0.252241       0.500000       0.000000
      0.407483       0.554195       0.000000
      0.428341       0.602631       0.000000
      0.351758       0.643878       0.000000
      0.331305       0.575221       0.000000
      0.428341       0.602631       0.000000
      0.458579       0.641421       0.000000
      0.382149       0.701184       0.000000
      0.351758       0.643878       0.000000
      0.331305       0.575221       0.000000
      0.351758       0.643878       0.000000
      0.277372       0.683942       0.000000
      0.258747       0.595248       0.000000
      0.351758       0.643878       0.000000
      0.382149       0.701184       0.000000
      0.305719       0.760948       0.000000
      0.277372       0.683942       0.000000
      0.305719       0.239052       0.000000
      0.277372       0.316058       0.000000
      0.205089       0.277126       0.000000
      0.229289       0.179289       0.000000
      0.277372       0.316058       0.000000
      0.258747       0.404752       0.000000
      0.189557       0.385654       0.000000
      0.205089       0.277126       0.000000
      0.229289       0.179289       0.000000
      0.205089       0.277126       0.000000
      0.134820       0.239280       0.000000
      0.152860       0.119526       0.000000
      0.205089       0.277126       0.000000
      0.189557       0.385654       0.000000
      0.123505       0.367423       0.000000
      0.134820       0.239280       0.000000
      0.258747       0.404752       0.000000
      0.252241       0.500000       0.000000
      0.184198       0.500000       0.000000
      0.189557       0.385654       0.000000
      0.252241       0.500000       0.000000
      0.258747       0.595248       0.000000
      0.189557       0.614346       0.000000
      0.184198       0.500000       0.000000
      0.189557       0.385654       0.000000
      0.184198       0.500000       0.000000
      0.119648       0.500000       0.000000
      0.123505       0.367423       0.000000
[...]
POINT_DATA   576
VECTORS U float 
      0.000367       0.004765       0.000000
      0.000189       0.005111       0.000000
      0.000031       0.004853       0.000000
      0.000244       0.004419       0.000000
      0.000189       0.005111       0.000000
      0.000001       0.005342       0.000000
     -0.000109       0.005241       0.000000
      0.000031       0.004853       0.000000
      0.000244       0.004419       0.000000
      0.000031       0.004853       0.000000
      0.000057       0.004831       0.000000
      0.000310       0.004469       0.000000
      0.000031       0.004853       0.000000
     -0.000109       0.005241       0.000000
     -0.000120       0.005201       0.000000
      0.000057       0.004831       0.000000
      0.000001       0.005342       0.000000
     -0.000194       0.005436       0.000000
     -0.000183       0.005460       0.000000
     -0.000109       0.005241       0.000000
     -0.000194       0.005436       0.000000
     -0.000407       0.005387       0.000000
     -0.000253       0.005422       0.000000
     -0.000183       0.005460       0.000000
     -0.000109       0.005241       0.000000
     -0.000183       0.005460       0.000000
     -0.000181       0.005458       0.000000
     -0.000120       0.005201       0.000000
     -0.000183       0.005460       0.000000
     -0.000253       0.005422       0.000000
     -0.000192       0.005447       0.000000
     -0.000181       0.005458       0.000000
     -0.000407       0.005387       0.000000
     -0.000648       0.005195       0.000000
     -0.000384       0.005132       0.000000
     -0.000253       0.005422       0.000000
     -0.000648       0.005195       0.000000
     -0.000908       0.004875       0.000000
     -0.000613       0.004688       0.000000
     -0.000384       0.005132       0.000000
     -0.000253       0.005422       0.000000
     -0.000384       0.005132       0.000000
     -0.000278       0.005155       0.000000
     -0.000192       0.005447       0.000000
     -0.000384       0.005132       0.000000
     -0.000613       0.004688       0.000000
     -0.000495       0.004720       0.000000
     -0.000278       0.005155       0.000000
      0.000310       0.004469       0.000000
      0.000057       0.004831       0.000000
      0.000119       0.004939       0.000000
      0.000406       0.004666       0.000000
      0.000057       0.004831       0.000000
     -0.000120       0.005201       0.000000
     -0.000100       0.005236       0.000000
      0.000119       0.004939       0.000000
      0.000406       0.004666       0.000000
      0.000119       0.004939       0.000000
      0.000193       0.005122       0.000000
      0.000518       0.004933       0.000000
      0.000119       0.004939       0.000000
     -0.000100       0.005236       0.000000
     -0.000070       0.005326       0.000000
      0.000193       0.005122       0.000000
     -0.000120       0.005201       0.000000
     -0.000181       0.005458       0.000000
     -0.000175       0.005473       0.000000
     -0.000100       0.005236       0.000000
     -0.000181       0.005458       0.000000
     -0.000192       0.005447       0.000000
     -0.000160       0.005482       0.000000
     -0.000175       0.005473       0.000000
     -0.000100       0.005236       0.000000
     -0.000175       0.005473       0.000000
     -0.000169       0.005508       0.000000
     -0.000070       0.005326       0.000000
     -0.000175       0.005473       0.000000
     -0.000160       0.005482       0.000000
     -0.000141       0.005525       0.000000
     -0.000169       0.005508       0.000000
     -0.000192       0.005447       0.000000
     -0.000278       0.005155       0.000000
     -0.000223       0.005225       0.000000
     -0.000160       0.005482       0.000000
     -0.000278       0.005155       0.000000
     -0.000495       0.004720       0.000000
     -0.000430       0.004835       0.000000
     -0.000223       0.005225       0.000000
     -0.000160       0.005482       0.000000
     -0.000223       0.005225       0.000000
     -0.000193       0.005327       0.000000
     -0.000141       0.005525       0.000000
     -0.000223       0.005225       0.000000
     -0.000430       0.004835       0.000000
     -0.000412       0.005020       0.000000
     -0.000193       0.005327       0.000000
      0.000518       0.004933       0.000000
      0.000193       0.005122       0.000000
      0.000285       0.005354       0.000000
      0.000662       0.005247       0.000000
      0.000193       0.005122       0.000000
     -0.000070       0.005326       0.000000
     -0.000031       0.005457       0.000000
      0.000285       0.005354       0.000000
      0.000662       0.005247       0.000000
      0.000285       0.005354       0.000000
      0.000401       0.005622       0.000000
      0.000859       0.005622       0.000000
      0.000285       0.005354       0.000000
     -0.000031       0.005457       0.000000
      0.000018       0.005622       0.000000
      0.000401       0.005622       0.000000
     -0.000070       0.005326       0.000000
     -0.000169       0.005508       0.000000
     -0.000164       0.005558       0.000000
     -0.000031       0.005457       0.000000
     -0.000169       0.005508       0.000000
     -0.000141       0.005525       0.000000
     -0.000131       0.005572       0.000000
     -0.000164       0.005558       0.000000
     -0.000031       0.005457       0.000000
     -0.000164       0.005558       0.000000
     -0.000160       0.005622       0.000000
      0.000018       0.005622       0.000000
     -0.000164       0.005558       0.000000
     -0.000131       0.005572       0.000000
     -0.000127       0.005622       0.000000
     -0.000160       0.005622       0.000000
     -0.000141       0.005525       0.000000
     -0.000193       0.005327       0.000000
     -0.000185       0.005459       0.000000
     -0.000131       0.005572       0.000000
     -0.000193       0.005327       0.000000
     -0.000412       0.005020       0.000000
     -0.000448       0.005282       0.000000
     -0.000185       0.005459       0.000000
     -0.000131       0.005572       0.000000
     -0.000185       0.005459       0.000000
     -0.000198       0.005622       0.000000
     -0.000127       0.005622       0.000000
     -0.000185       0.005459       0.000000
     -0.000448       0.005282       0.000000
     -0.000537       0.005622       0.000000
     -0.000198       0.005622       0.000000
      0.000319       0.000739       0.000000
      0.000485       0.001194       0.000000
      0.000475       0.001558       0.000000
      0.000194       0.001072       0.000000
      0.000485       0.001194       0.000000
      0.000615       0.001844       0.000000
      0.000785       0.002132       0.000000
      0.000475       0.001558       0.000000
      0.000194       0.001072       0.000000
      0.000475       0.001558       0.000000
      0.000542       0.001553       0.000000
      0.000233       0.001020       0.000000
      0.000475       0.001558       0.000000
      0.000785       0.002132       0.000000
      0.000886       0.002161       0.000000
      0.000542       0.001553       0.000000
      0.000615       0.001844       0.000000
      0.000658       0.002733       0.000000
      0.000946       0.002745       0.000000
      0.000785       0.002132       0.000000
      0.000658       0.002733       0.000000
      0.000640       0.003629       0.000000
      0.000818       0.003356       0.000000
      0.000946       0.002745       0.000000
      0.000785       0.002132       0.000000
      0.000946       0.002745       0.000000
      0.001063       0.002755       0.000000
      0.000886       0.002161       0.000000
      0.000946       0.002745       0.000000
      0.000818       0.003356       0.000000
      0.000921       0.003342       0.000000
      0.001063       0.002755       0.000000
      0.000640       0.003629       0.000000
      0.000529       0.004292       0.000000
      0.000526       0.003926       0.000000
      0.000818       0.003356       0.000000
      0.000529       0.004292       0.000000
      0.000367       0.004765       0.000000
      0.000244       0.004419       0.000000
      0.000526       0.003926       0.000000
      0.000818       0.003356       0.000000
      0.000526       0.003926       0.000000
      0.000604       0.003937       0.000000
      0.000921       0.003342       0.000000
      0.000526       0.003926       0.000000
      0.000244       0.004419       0.000000
      0.000310       0.004469       0.000000
      0.000604       0.003937       0.000000
      0.000233       0.001020       0.000000
      0.000542       0.001553       0.000000
      0.000619       0.001446       0.000000
      0.000275       0.000831       0.000000
      0.000542       0.001553       0.000000
      0.000886       0.002161       0.000000
      0.000987       0.002122       0.000000
      0.000619       0.001446       0.000000
      0.000275       0.000831       0.000000
      0.000619       0.001446       0.000000
      0.000689       0.001324       0.000000
      0.000283       0.000589       0.000000
      0.000619       0.001446       0.000000
      0.000987       0.002122       0.000000
      0.001090       0.002081       0.000000
      0.000689       0.001324       0.000000
      0.000886       0.002161       0.000000
      0.001063       0.002755       0.000000
      0.001170       0.002765       0.000000
      0.000987       0.002122       0.000000
      0.001063       0.002755       0.000000
      0.000921       0.003342       0.000000
      0.001025       0.003401       0.000000
      0.001170       0.002765       0.000000
      0.000987       0.002122       0.000000
      0.001170       0.002765       0.000000
      0.001286       0.002778       0.000000
      0.001090       0.002081       0.000000
      0.001170       0.002765       0.000000
      0.001025       0.003401       0.000000
      0.001132       0.003471       0.000000
      0.001286       0.002778       0.000000
      0.000921       0.003342       0.000000
      0.000604       0.003937       0.000000
      0.000699       0.004060       0.000000
      0.001025       0.003401       0.000000
      0.000604       0.003937       0.000000
      0.000310       0.004469       0.000000
      0.000406       0.004666       0.000000
      0.000699       0.004060       0.000000
      0.001025       0.003401       0.000000
      0.000699       0.004060       0.000000
      0.000796       0.004212       0.000000
      0.001132       0.003471       0.000000
      0.000699       0.004060       0.000000
      0.000406       0.004666       0.000000
      0.000518       0.004933       0.000000
      0.000796       0.004212       0.000000
      0.000283       0.000589       0.000000
      0.000689       0.001324       0.000000
      0.000750       0.001233       0.000000
      0.000229       0.000323       0.000000
      0.000689       0.001324       0.000000
      0.001090       0.002081       0.000000
      0.001188       0.002065       0.000000
      0.000750       0.001233       0.000000
      0.000229       0.000323       0.000000
      0.000750       0.001233       0.000000
      0.000803       0.001191       0.000000
      0.000000       0.000000       0.000000
      0.000750       0.001233       0.000000
      0.001188       0.002065       0.000000
      0.001276       0.002096       0.000000
      0.000803       0.001191       0.000000
      0.001090       0.002081       0.000000
      0.001286       0.002778       0.000000
      0.001403       0.002791       0.000000
      0.001188       0.002065       0.000000
      0.001286       0.002778       0.000000
      0.001132       0.003471       0.000000
      0.001237       0.003520       0.000000
      0.001403       0.002791       0.000000
      0.001188       0.002065       0.000000
      0.001403       0.002791       0.000000
      0.001509       0.002801       0.000000
      0.001276       0.002096       0.000000
      0.001403       0.002791       0.000000
      0.001237       0.003520       0.000000
      0.001335       0.003521       0.000000
      0.001509       0.002801       0.000000
      0.001132       0.003471       0.000000
      0.000796       0.004212       0.000000
      0.000894       0.004358       0.000000
      0.001237       0.003520       0.000000
      0.000796       0.004212       0.000000
      0.000518       0.004933       0.000000
      0.000662       0.005247       0.000000
      0.000894       0.004358       0.000000
      0.001237       0.003520       0.000000
      0.000894       0.004358       0.000000
      0.001004       0.004486       0.000000
      0.001335       0.003521       0.000000
      0.000894       0.004358       0.000000
      0.000662       0.005247       0.000000
      0.000859       0.005622       0.000000
      0.001004       0.004486       0.000000
     -0.000853       0.000694       0.000000
     -0.000588       0.000375       0.000000
     -0.000315       0.000443       0.000000
     -0.000543       0.000889       0.000000
     -0.000588       0.000375       0.000000
     -0.000357       0.000185       0.000000
     -0.000198       0.000158       0.000000
     -0.000315       0.000443       0.000000
     -0.000543       0.000889       0.000000
     -0.000315       0.000443       0.000000
     -0.000185       0.000427       0.000000
     -0.000400       0.000866       0.000000
     -0.000315       0.000443       0.000000
     -0.000198       0.000158       0.000000
     -0.000119       0.000142       0.000000
     -0.000185       0.000427       0.000000
     -0.000357       0.000185       0.000000
     -0.000170       0.000133       0.000000
     -0.000151       0.000115       0.000000
     -0.000198       0.000158       0.000000
     -0.000170       0.000133       0.000000
     -0.000008       0.000211       0.000000
     -0.000108       0.000305       0.000000
     -0.000151       0.000115       0.000000
     -0.000198       0.000158       0.000000
     -0.000151       0.000115       0.000000
     -0.000140       0.000123       0.000000
     -0.000119       0.000142       0.000000
     -0.000151       0.000115       0.000000
     -0.000108       0.000305       0.000000
     -0.000123       0.000344       0.000000
     -0.000140       0.000123       0.000000
     -0.000008       0.000211       0.000000
      0.000153       0.000418       0.000000
      0.000001       0.000659       0.000000
     -0.000108       0.000305       0.000000
      0.000153       0.000418       0.000000
      0.000319       0.000739       0.000000
      0.000194       0.001072       0.000000
      0.000001       0.000659       0.000000
     -0.000108       0.000305       0.000000
      0.000001       0.000659       0.000000
      0.000008       0.000677       0.000000
     -0.000123       0.000344       0.000000
      0.000001       0.000659       0.000000
      0.000194       0.001072       0.000000
      0.000233       0.001020       0.000000
      0.000008       0.000677       0.000000
     -0.000400       0.000866       0.000000
     -0.000185       0.000427       0.000000
     -0.000100       0.000362       0.000000
     -0.000303       0.000756       0.000000
     -0.000185       0.000427       0.000000
     -0.000119       0.000142       0.000000
     -0.000066       0.000119       0.000000
     -0.000100       0.000362       0.000000
     -0.000303       0.000756       0.000000
     -0.000100       0.000362       0.000000
     -0.000038       0.000264       0.000000
     -0.000238       0.000577       0.000000
     -0.000100       0.000362       0.000000
     -0.000066       0.000119       0.000000
     -0.000027       0.000087       0.000000
     -0.000038       0.000264       0.000000
     -0.000119       0.000142       0.000000
     -0.000140       0.000123       0.000000
     -0.000121       0.000117       0.000000
     -0.000066       0.000119       0.000000
     -0.000140       0.000123       0.000000
     -0.000123       0.000344       0.000000
     -0.000108       0.000315       0.000000
     -0.000121       0.000117       0.000000
     -0.000066       0.000119       0.000000
     -0.000121       0.000117       0.000000
     -0.000096       0.000094       0.000000
     -0.000027       0.000087       0.000000
     -0.000121       0.000117       0.000000
     -0.000108       0.000315       0.000000
     -0.000082       0.000235       0.000000
     -0.000096       0.000094       0.000000
     -0.000123       0.000344       0.000000
      0.000008       0.000677       0.000000
      0.000036       0.000572       0.000000
     -0.000108       0.000315       0.000000
      0.000008       0.000677       0.000000
      0.000233       0.001020       0.000000
      0.000275       0.000831       0.000000
      0.000036       0.000572       0.000000
     -0.000108       0.000315       0.000000
      0.000036       0.000572       0.000000
      0.000054       0.000401       0.000000
     -0.000082       0.000235       0.000000
      0.000036       0.000572       0.000000
      0.000275       0.000831       0.000000
      0.000283       0.000589       0.000000
      0.000054       0.000401       0.000000
     -0.000238       0.000577       0.000000
     -0.000038       0.000264       0.000000
     -0.000002       0.000140       0.000000
     -0.000183       0.000324       0.000000
     -0.000038       0.000264       0.000000
     -0.000027       0.000087       0.000000
     -0.000004       0.000048       0.000000
     -0.000002       0.000140       0.000000
     -0.000183       0.000324       0.000000
     -0.000002       0.000140       0.000000
      0.000000       0.000000       0.000000
      0.000000       0.000000       0.000000
     -0.000002       0.000140       0.000000
     -0.000004       0.000048       0.000000
      0.000000       0.000000       0.000000
      0.000000       0.000000       0.000000
     -0.000027       0.000087       0.000000
     -0.000096       0.000094       0.000000
     -0.000059       0.000054       0.000000
     -0.000004       0.000048       0.000000
     -0.000096       0.000094       0.000000
     -0.000082       0.000235       0.000000
     -0.000046       0.000124       0.000000
     -0.000059       0.000054       0.000000
     -0.000004       0.000048       0.000000
     -0.000059       0.000054       0.000000
      0.000000       0.000000       0.000000
      0.000000       0.000000       0.000000
     -0.000059       0.000054       0.000000
     -0.000046       0.000124       0.000000
      0.000000       0.000000       0.000000
      0.000000       0.000000       0.000000
     -0.000082       0.000235       0.000000
      0.000054       0.000401       0.000000
      0.000047       0.000203       0.000000
     -0.000046       0.000124       0.000000
      0.000054       0.000401       0.000000
      0.000283       0.000589       0.000000
      0.000229       0.000323       0.000000
      0.000047       0.000203       0.000000
     -0.000046       0.000124       0.000000
      0.000047       0.000203       0.000000
      0.000000       0.000000       0.000000
      0.000000       0.000000       0.000000
      0.000047       0.000203       0.000000
      0.000229       0.000323       0.000000
      0.000000       0.000000       0.000000
      0.000000       0.000000       0.000000
     -0.000853       0.000694       0.000000
     -0.001141       0.001157       0.000000
     -0.000944       0.001376       0.000000
     -0.000543       0.000889       0.000000
     -0.001141       0.001157       0.000000
     -0.001394       0.001831       0.000000
     -0.001432       0.001997       0.000000
     -0.000944       0.001376       0.000000
     -0.000543       0.000889       0.000000
     -0.000944       0.001376       0.000000
     -0.000825       0.001397       0.000000