# vtk DataFile Version 2.0
time_10.vtk
ASCII
DATASET UNSTRUCTURED_GRID
POINTS   576 float
      0.458579       0.641421       0.000000
      0.497369       0.671659       0.000000
      0.438243       0.730363       0.000000
      0.382149       0.701184       0.000000
      0.497369       0.671659       0.000000
      0.545805       0.692517       0.000000
      0.506084       0.750000       0.000000
      0.438243       0.730363       0.000000
      0.382149       0.701184       0.000000
      0.438243       0.730363       0.000000
      0.380813       0.787383       0.000000
      0.305719       0.760948       0.000000
      0.438243       0.730363       0.000000
      0.506084       0.750000       0.000000
      0.468251       0.804752       0.000000
      0.380813       0.787383       0.000000
      0.545805       0.692517       0.000000
      0.600000       0.700000       0.000000
      0.581017       0.756950       0.000000
      0.506084       0.750000       0.000000
      0.600000       0.700000       0.000000
      0.654195       0.692517       0.000000
      0.656527       0.750000       0.000000
      0.581017       0.756950       0.000000
      0.506084       0.750000       0.000000
      0.581017       0.756950       0.000000
      0.563060       0.810819       0.000000
      0.468251       0.804752       0.000000
      0.581017       0.756950       0.000000
      0.656527       0.750000       0.000000
      0.658747       0.804752       0.000000
      0.563060       0.810819       0.000000
      0.654195       0.692517       0.000000
      0.702631       0.671659       0.000000
      0.725999       0.730363       0.000000
      0.656527       0.750000       0.000000
      0.702631       0.671659       0.000000
      0.741421       0.641421       0.000000
      0.784518       0.701184       0.000000
      0.725999       0.730363       0.000000
      0.656527       0.750000       0.000000
      0.725999       0.730363       0.000000
      0.748697       0.787383       0.000000
      0.658747       0.804752       0.000000
      0.725999       0.730363       0.000000
      0.784518       0.701184       0.000000
      0.827614       0.760948       0.000000
      0.748697       0.787383       0.000000
      0.305719       0.760948       0.000000
      0.380813       0.787383       0.000000
      0.325006       0.842791       0.000000
      0.229289       0.820711       0.000000
      0.380813       0.787383       0.000000
      0.468251       0.804752       0.000000
      0.432173       0.856962       0.000000
      0.325006       0.842791       0.000000
      0.229289       0.820711       0.000000
      0.325006       0.842791       0.000000
      0.270755       0.896655       0.000000
      0.152860       0.880474       0.000000
      0.325006       0.842791       0.000000
      0.432173       0.856962       0.000000
      0.397732       0.906804       0.000000
      0.270755       0.896655       0.000000
      0.468251       0.804752       0.000000
      0.563060       0.810819       0.000000
      0.546050       0.861851       0.000000
      0.432173       0.856962       0.000000
      0.563060       0.810819       0.000000
      0.658747       0.804752       0.000000
      0.660865       0.856962       0.000000
      0.546050       0.861851       0.000000
      0.432173       0.856962       0.000000
      0.546050       0.861851       0.000000
      0.529912       0.910264       0.000000
      0.397732       0.906804       0.000000
      0.546050       0.861851       0.000000
      0.660865       0.856962       0.000000
      0.662887       0.906804       0.000000
      0.529912       0.910264       0.000000
      0.658747       0.804752       0.000000
      0.748697       0.787383       0.000000
      0.770753       0.842791       0.000000
      0.660865       0.856962       0.000000
      0.748697       0.787383       0.000000
      0.827614       0.760948       0.000000
      0.870711       0.820711       0.000000
      0.770753       0.842791       0.000000
      0.660865       0.856962       0.000000
      0.770753       0.842791       0.000000
      0.792195       0.896655       0.000000
      0.662887       0.906804       0.000000
      0.770753       0.842791       0.000000
      0.870711       0.820711       0.000000
      0.913807       0.880474       0.000000
      0.792195       0.896655       0.000000
      0.152860       0.880474       0.000000
      0.270755       0.896655       0.000000
      0.217995       0.949038       0.000000
      0.076430       0.940237       0.000000
      0.270755       0.896655       0.000000
      0.397732       0.906804       0.000000
      0.364819       0.954435       0.000000
      0.217995       0.949038       0.000000
      0.076430       0.940237       0.000000
      0.217995       0.949038       0.000000
      0.166667       1.000000       0.000000
      0.000000       1.000000       0.000000
      0.217995       0.949038       0.000000
      0.364819       0.954435       0.000000
      0.333333       1.000000       0.000000
      0.166667       1.000000       0.000000
      0.397732       0.906804       0.000000
      0.529912       0.910264       0.000000
      0.514582       0.956255       0.000000
      0.364819       0.954435       0.000000
      0.529912       0.910264       0.000000
      0.662887       0.906804       0.000000
      0.664819       0.954435       0.000000
      0.514582       0.956255       0.000000
      0.364819       0.954435       0.000000
      0.514582       0.956255       0.000000
      0.500000       1.000000       0.000000
      0.333333       1.000000       0.000000
      0.514582       0.956255       0.000000
      0.664819       0.954435       0.000000
      0.666667       1.000000       0.000000
      0.500000       1.000000       0.000000
      0.662887       0.906804       0.000000
      0.792195       0.896655       0.000000
      0.813047       0.949038       0.000000
      0.664819       0.954435       0.000000
      0.792195       0.896655       0.000000
      0.913807       0.880474       0.000000
      0.956904       0.940237       0.000000
      0.813047       0.949038       0.000000
      0.664819       0.954435       0.000000
      0.813047       0.949038       0.000000
      0.833333       1.000000       0.000000
      0.666667       1.000000       0.000000
      0.813047       0.949038       0.000000
      0.956904       0.940237       0.000000
      1.000000       1.000000       0.000000
      0.833333       1.000000       0.000000
      0.458579       0.358579       0.000000
      0.428341       0.397369       0.000000
      0.351758       0.356122       0.000000
      0.382149       0.298816       0.000000
      0.428341       0.397369       0.000000
      0.407483       0.445805       0.000000
      0.331305       0.424779       0.000000
      0.351758       0.356122       0.000000
      0.382149       0.298816       0.000000
      0.351758       0.356122       0.000000
      0.277372       0.316058       0.000000
      0.305719       0.239052       0.000000
      0.351758       0.356122       0.000000
      0.331305       0.424779       0.000000
      0.258747       0.404752       0.000000
      0.277372       0.316058       0.000000
      0.407483       0.445805       0.000000
      0.400000       0.500000       0.000000
      0.324066       0.500000       0.000000
      0.331305       0.424779       0.000000
      0.400000       0.500000       0.000000
      0.407483       0.554195       0.000000
      0.331305       0.575221       0.000000
      0.324066       0.500000       0.000000
      0.331305       0.424779       0.000000
      0.324066       0.500000       0.000000
      0.252241       0.500000       0.000000
      0.258747       0.404752       0.000000
      0.324066       0.500000       0.000000
      0.331305       0.575221       0.000000
      0.258747       0.595248       0.000000
      0.252241       0.500000       0.000000
      0.407483       0.554195       0.000000
      0.428341       0.602631       0.000000
      0.351758       0.643878       0.000000
      0.331305       0.575221       0.000000
      0.428341       0.602631       0.000000
      0.458579       0.641421       0.000000
      0.382149       0.701184       0.000000
      0.351758       0.643878       0.000000
      0.331305       0.575221       0.000000
      0.351758       0.643878       0.000000
      0.277372       0.683942       0.000000
      0.258747       0.595248       0.000000
      0.351758       0.643878       0.000000
      0.382149       0.701184       0.000000
      0.305719       0.760948       0.000000
      0.277372       0.683942       0.000000
      0.305719       0.239052       0.000000
      0.277372       0.316058       0.000000
      0.205089       0.277126       0.000000
      0.229289       0.179289       0.000000
      0.277372       0.316058       0.000000
      0.258747       0.404752       0.000000
      0.189557       0.385654       0.000000
      0.205089       0.277126       0.000000
      0.229289       0.179289       0.000000
      0.205089       0.277126       0.000000
      0.134820       0.239280       0.000000
      0.152860       0.119526       0.000000
      0.205089       0.277126       0.000000
      0.189557       0.385654       0.000000
      0.123505       0.367423       0.000000
      0.134820       0.239280       0.000000
      0.258747       0.404752       0.000000
      0.252241       0.500000       0.000000
      0.184198       0.500000       0.000000
      0.189557       0.385654       0.000000
      0.252241       0.500000       0.000000
      0.258747       0.595248       0.000000
      0.189557       0.614346       0.000000
      0.184198       0.500000       0.000000
      0.189557       0.385654       0.000000
      0.184198       0.500000       0.000000
      0.119648       0.500000       0.000000
      0.123505       0.367423       0.000000
[...]
POINT_DATA   576
VECTORS U float 
      0.000416       0.005395       0.000000
      0.000214       0.005769       0.000000
      0.000036       0.005485       0.000000
      0.000271       0.005004       0.000000
      0.000214       0.005769       0.000000
      0.000004       0.006019       0.000000
     -0.000118       0.005910       0.000000
      0.000036       0.005485       0.000000
      0.000271       0.005004       0.000000
      0.000036       0.005485       0.000000
      0.000059       0.005454       0.000000
      0.000339       0.005045       0.000000
      0.000036       0.005485       0.000000
     -0.000118       0.005910       0.000000
     -0.000134       0.005863       0.000000
      0.000059       0.005454       0.000000
      0.000004       0.006019       0.000000
     -0.000212       0.006121       0.000000
     -0.000200       0.006147       0.000000
     -0.000118       0.005910       0.000000
     -0.000212       0.006121       0.000000
     -0.000448       0.006069       0.000000
     -0.000278       0.006107       0.000000
     -0.000200       0.006147       0.000000
     -0.000118       0.005910       0.000000
     -0.000200       0.006147       0.000000
     -0.000198       0.006143       0.000000
     -0.000134       0.005863       0.000000
     -0.000200       0.006147       0.000000
     -0.000278       0.006107       0.000000
     -0.000209       0.006133       0.000000
     -0.000198       0.006143       0.000000
     -0.000448       0.006069       0.000000
     -0.000717       0.005864       0.000000
     -0.000422       0.005793       0.000000
     -0.000278       0.006107       0.000000
     -0.000717       0.005864       0.000000
     -0.001012       0.005520       0.000000
     -0.000676       0.005307       0.000000
     -0.000422       0.005793       0.000000
     -0.000278       0.006107       0.000000
     -0.000422       0.005793       0.000000
     -0.000301       0.005814       0.000000
     -0.000209       0.006133       0.000000
     -0.000422       0.005793       0.000000
     -0.000676       0.005307       0.000000
     -0.000537       0.005331       0.000000
     -0.000301       0.005814       0.000000
      0.000339       0.005045       0.000000
      0.000059       0.005454       0.000000
      0.000123       0.005565       0.000000
      0.000441       0.005253       0.000000
      0.000059       0.005454       0.000000
     -0.000134       0.005863       0.000000
     -0.000115       0.005897       0.000000
      0.000123       0.005565       0.000000
      0.000441       0.005253       0.000000
      0.000123       0.005565       0.000000
      0.000201       0.005761       0.000000
      0.000562       0.005541       0.000000
      0.000123       0.005565       0.000000
     -0.000115       0.005897       0.000000
     -0.000084       0.005992       0.000000
      0.000201       0.005761       0.000000
     -0.000134       0.005863       0.000000
     -0.000198       0.006143       0.000000
     -0.000193       0.006158       0.000000
     -0.000115       0.005897       0.000000
     -0.000198       0.006143       0.000000
     -0.000209       0.006133       0.000000
     -0.000173       0.006168       0.000000
     -0.000193       0.006158       0.000000
     -0.000115       0.005897       0.000000
     -0.000193       0.006158       0.000000
     -0.000187       0.006193       0.000000
     -0.000084       0.005992       0.000000
     -0.000193       0.006158       0.000000
     -0.000173       0.006168       0.000000
     -0.000151       0.006212       0.000000
     -0.000187       0.006193       0.000000
     -0.000209       0.006133       0.000000
     -0.000301       0.005814       0.000000
     -0.000237       0.005885       0.000000
     -0.000173       0.006168       0.000000
     -0.000301       0.005814       0.000000
     -0.000537       0.005331       0.000000
     -0.000461       0.005450       0.000000
     -0.000237       0.005885       0.000000
     -0.000173       0.006168       0.000000
     -0.000237       0.005885       0.000000
     -0.000202       0.005994       0.000000
     -0.000151       0.006212       0.000000
     -0.000237       0.005885       0.000000
     -0.000461       0.005450       0.000000
     -0.000440       0.005648       0.000000
     -0.000202       0.005994       0.000000
      0.000562       0.005541       0.000000
      0.000201       0.005761       0.000000
      0.000300       0.006015       0.000000
      0.000721       0.005889       0.000000
      0.000201       0.005761       0.000000
     -0.000084       0.005992       0.000000
     -0.000045       0.006133       0.000000
      0.000300       0.006015       0.000000
      0.000721       0.005889       0.000000
      0.000300       0.006015       0.000000
      0.000428       0.006312       0.000000
      0.000944       0.006312       0.000000
      0.000300       0.006015       0.000000
     -0.000045       0.006133       0.000000
      0.000008       0.006312       0.000000
      0.000428       0.006312       0.000000
     -0.000084       0.005992       0.000000
     -0.000187       0.006193       0.000000
     -0.000182       0.006245       0.000000
     -0.000045       0.006133       0.000000
     -0.000187       0.006193       0.000000
     -0.000151       0.006212       0.000000
     -0.000139       0.006261       0.000000
     -0.000182       0.006245       0.000000
     -0.000045       0.006133       0.000000
     -0.000182       0.006245       0.000000
     -0.000179       0.006312       0.000000
      0.000008       0.006312       0.000000
     -0.000182       0.006245       0.000000
     -0.000139       0.006261       0.000000
     -0.000135       0.006312       0.000000
     -0.000179       0.006312       0.000000
     -0.000151       0.006212       0.000000
     -0.000202       0.005994       0.000000
     -0.000192       0.006136       0.000000
     -0.000139       0.006261       0.000000
     -0.000202       0.005994       0.000000
     -0.000440       0.005648       0.000000
     -0.000479       0.005936       0.000000
     -0.000192       0.006136       0.000000
     -0.000139       0.006261       0.000000
     -0.000192       0.006136       0.000000
     -0.000205       0.006312       0.000000
     -0.000135       0.006312       0.000000
     -0.000192       0.006136       0.000000
     -0.000479       0.005936       0.000000
     -0.000578       0.006312       0.000000
     -0.000205       0.006312       0.000000
      0.000364       0.000791       0.000000
      0.000556       0.001282       0.000000
      0.000536       0.001705       0.000000
      0.000219       0.001164       0.000000
      0.000556       0.001282       0.000000
      0.000707       0.001994       0.000000
      0.000896       0.002358       0.000000
      0.000536       0.001705       0.000000
      0.000219       0.001164       0.000000
      0.000536       0.001705       0.000000
      0.000610       0.001720       0.000000
      0.000259       0.001120       0.000000
      0.000536       0.001705       0.000000
      0.000896       0.002358       0.000000
      0.001012       0.002414       0.000000
      0.000610       0.001720       0.000000
      0.000707       0.001994       0.000000
      0.000739       0.003068       0.000000
      0.001096       0.003083       0.000000
      0.000896       0.002358       0.000000
      0.000739       0.003068       0.000000
      0.000735       0.004155       0.000000
      0.000932       0.003804       0.000000
      0.001096       0.003083       0.000000
      0.000896       0.002358       0.000000
      0.001096       0.003083       0.000000
      0.001224       0.003093       0.000000
      0.001012       0.002414       0.000000
      0.001096       0.003083       0.000000
      0.000932       0.003804       0.000000
      0.001049       0.003764       0.000000
      0.001224       0.003093       0.000000
      0.000735       0.004155       0.000000
      0.000605       0.004883       0.000000
      0.000590       0.004455       0.000000
      0.000932       0.003804       0.000000
      0.000605       0.004883       0.000000
      0.000416       0.005395       0.000000
      0.000271       0.005004       0.000000
      0.000590       0.004455       0.000000
      0.000932       0.003804       0.000000
      0.000590       0.004455       0.000000
      0.000676       0.004445       0.000000
      0.001049       0.003764       0.000000
      0.000590       0.004455       0.000000
      0.000271       0.005004       0.000000
      0.000339       0.005045       0.000000
      0.000676       0.004445       0.000000
      0.000259       0.001120       0.000000
      0.000610       0.001720       0.000000
      0.000696       0.001611       0.000000
      0.000303       0.000918       0.000000
      0.000610       0.001720       0.000000
      0.001012       0.002414       0.000000
      0.001125       0.002379       0.000000
      0.000696       0.001611       0.000000
      0.000303       0.000918       0.000000
      0.000696       0.001611       0.000000
      0.000774       0.001483       0.000000
      0.000312       0.000655       0.000000
      0.000696       0.001611       0.000000
      0.001125       0.002379       0.000000
      0.001240       0.002337       0.000000
      0.000774       0.001483       0.000000
      0.001012       0.002414       0.000000
      0.001224       0.003093       0.000000
      0.001342       0.003104       0.000000
      0.001125       0.002379       0.000000
      0.001224       0.003093       0.000000
      0.001049       0.003764       0.000000
      0.001165       0.003820       0.000000
      0.001342       0.003104       0.000000
      0.001125       0.002379       0.000000
      0.001342       0.003104       0.000000
      0.001468       0.003117       0.000000
      0.001240       0.002337       0.000000
      0.001342       0.003104       0.000000
      0.001165       0.003820       0.000000
      0.001283       0.003893       0.000000
      0.001468       0.003117       0.000000
      0.001049       0.003764       0.000000
      0.000676       0.004445       0.000000
      0.000781       0.004569       0.000000
      0.001165       0.003820       0.000000
      0.000676       0.004445       0.000000
      0.000339       0.005045       0.000000
      0.000441       0.005253       0.000000
      0.000781       0.004569       0.000000
      0.001165       0.003820       0.000000
      0.000781       0.004569       0.000000
      0.000886       0.004729       0.000000
      0.001283       0.003893       0.000000
      0.000781       0.004569       0.000000
      0.000441       0.005253       0.000000
      0.000562       0.005541       0.000000
      0.000886       0.004729       0.000000
      0.000312       0.000655       0.000000
      0.000774       0.001483       0.000000
      0.000841       0.001388       0.000000
      0.000252       0.000361       0.000000
      0.000774       0.001483       0.000000
      0.001240       0.002337       0.000000
      0.001348       0.002323       0.000000
      0.000841       0.001388       0.000000
      0.000252       0.000361       0.000000
      0.000841       0.001388       0.000000
      0.000900       0.001344       0.000000
      0.000000       0.000000       0.000000
      0.000841       0.001388       0.000000
      0.001348       0.002323       0.000000
      0.001444       0.002363       0.000000
      0.000900       0.001344       0.000000
      0.001240       0.002337       0.000000
      0.001468       0.003117       0.000000
      0.001598       0.003130       0.000000
      0.001348       0.002323       0.000000
      0.001468       0.003117       0.000000
      0.001283       0.003893       0.000000
      0.001399       0.003941       0.000000
      0.001598       0.003130       0.000000
      0.001348       0.002323       0.000000
      0.001598       0.003130       0.000000
      0.001715       0.003141       0.000000
      0.001444       0.002363       0.000000
      0.001598       0.003130       0.000000
      0.001399       0.003941       0.000000
      0.001506       0.003935       0.000000
      0.001715       0.003141       0.000000
      0.001283       0.003893       0.000000
      0.000886       0.004729       0.000000
      0.000993       0.004884       0.000000
      0.001399       0.003941       0.000000
      0.000886       0.004729       0.000000
      0.000562       0.005541       0.000000
      0.000721       0.005889       0.000000
      0.000993       0.004884       0.000000
      0.001399       0.003941       0.000000
      0.000993       0.004884       0.000000
      0.001115       0.005021       0.000000
      0.001506       0.003935       0.000000
      0.000993       0.004884       0.000000
      0.000721       0.005889       0.000000
      0.000944       0.006312       0.000000
      0.001115       0.005021       0.000000
     -0.000950       0.000736       0.000000
     -0.000650       0.000394       0.000000
     -0.000347       0.000470       0.000000
     -0.000599       0.000957       0.000000
     -0.000650       0.000394       0.000000
     -0.000392       0.000192       0.000000
     -0.000218       0.000162       0.000000
     -0.000347       0.000470       0.000000
     -0.000599       0.000957       0.000000
     -0.000347       0.000470       0.000000
     -0.000201       0.000456       0.000000
     -0.000435       0.000942       0.000000
     -0.000347       0.000470       0.000000
     -0.000218       0.000162       0.000000
     -0.000129       0.000146       0.000000
     -0.000201       0.000456       0.000000
     -0.000392       0.000192       0.000000
     -0.000185       0.000137       0.000000
     -0.000164       0.000117       0.000000
     -0.000218       0.000162       0.000000
     -0.000185       0.000137       0.000000
     -0.000005       0.000222       0.000000
     -0.000115       0.000322       0.000000
     -0.000164       0.000117       0.000000
     -0.000218       0.000162       0.000000
     -0.000164       0.000117       0.000000
     -0.000151       0.000127       0.000000
     -0.000129       0.000146       0.000000
     -0.000164       0.000117       0.000000
     -0.000115       0.000322       0.000000
     -0.000133       0.000368       0.000000
     -0.000151       0.000127       0.000000
     -0.000005       0.000222       0.000000
      0.000176       0.000444       0.000000
      0.000006       0.000709       0.000000
     -0.000115       0.000322       0.000000
      0.000176       0.000444       0.000000
      0.000364       0.000791       0.000000
      0.000219       0.001164       0.000000
      0.000006       0.000709       0.000000
     -0.000115       0.000322       0.000000
      0.000006       0.000709       0.000000
      0.000010       0.000735       0.000000
     -0.000133       0.000368       0.000000
      0.000006       0.000709       0.000000
      0.000219       0.001164       0.000000
      0.000259       0.001120       0.000000
      0.000010       0.000735       0.000000
     -0.000435       0.000942       0.000000
     -0.000201       0.000456       0.000000
     -0.000105       0.000390       0.000000
     -0.000325       0.000828       0.000000
     -0.000201       0.000456       0.000000
     -0.000129       0.000146       0.000000
     -0.000070       0.000123       0.000000
     -0.000105       0.000390       0.000000
     -0.000325       0.000828       0.000000
     -0.000105       0.000390       0.000000
     -0.000037       0.000286       0.000000
     -0.000255       0.000634       0.000000
     -0.000105       0.000390       0.000000
     -0.000070       0.000123       0.000000
     -0.000028       0.000091       0.000000
     -0.000037       0.000286       0.000000
     -0.000129       0.000146       0.000000
     -0.000151       0.000127       0.000000
     -0.000132       0.000122       0.000000
     -0.000070       0.000123       0.000000
     -0.000151       0.000127       0.000000
     -0.000133       0.000368       0.000000
     -0.000119       0.000338       0.000000
     -0.000132       0.000122       0.000000
     -0.000070       0.000123       0.000000
     -0.000132       0.000122       0.000000
     -0.000105       0.000099       0.000000
     -0.000028       0.000091       0.000000
     -0.000132       0.000122       0.000000
     -0.000119       0.000338       0.000000
     -0.000091       0.000254       0.000000
     -0.000105       0.000099       0.000000
     -0.000133       0.000368       0.000000
      0.000010       0.000735       0.000000
      0.000038       0.000623       0.000000
     -0.000119       0.000338       0.000000
      0.000010       0.000735       0.000000
      0.000259       0.001120       0.000000
      0.000303       0.000918       0.000000
      0.000038       0.000623       0.000000
     -0.000119       0.000338       0.000000
      0.000038       0.000623       0.000000
      0.000057       0.000439       0.000000
     -0.000091       0.000254       0.000000
      0.000038       0.000623       0.000000
      0.000303       0.000918       0.000000
      0.000312       0.000655       0.000000
      0.000057       0.000439       0.000000
     -0.000255       0.000634       0.000000
     -0.000037       0.000286       0.000000
      0.000001       0.000152       0.000000
     -0.000197       0.000355       0.000000
     -0.000037       0.000286       0.000000
     -0.000028       0.000091       0.000000
     -0.000003       0.000051       0.000000
      0.000001       0.000152       0.000000
     -0.000197       0.000355       0.000000
      0.000001       0.000152       0.000000
      0.000000       0.000000       0.000000
      0.000000       0.000000       0.000000
      0.000001       0.000152       0.000000
     -0.000003       0.000051       0.000000
      0.000000       0.000000       0.000000
      0.000000       0.000000       0.000000
     -0.000028       0.000091       0.000000
     -0.000105       0.000099       0.000000
     -0.000064       0.000058       0.000000
     -0.000003       0.000051       0.000000
     -0.000105       0.000099       0.000000
     -0.000091       0.000254       0.000000
     -0.000051       0.000135       0.000000
     -0.000064       0.000058       0.000000
     -0.000003       0.000051       0.000000
     -0.000064       0.000058       0.000000
      0.000000       0.000000       0.000000
      0.000000       0.000000       0.000000
     -0.000064       0.000058       0.000000
     -0.000051       0.000135       0.000000
      0.000000       0.000000       0.000000
      0.000000       0.000000       0.000000
     -0.000091       0.000254       0.000000
      0.000057       0.000439       0.000000
      0.000049       0.000222       0.000000
     -0.000051       0.000135       0.000000
      0.000057       0.000439       0.000000
      0.000312       0.000655       0.000000
      0.000252       0.000361       0.000000
      0.000049       0.000222       0.000000
     -0.000051       0.000135       0.000000
      0.000049       0.000222       0.000000
      0.000000       0.000000       0.000000
      0.000000       0.000000       0.000000
      0.000049       0.000222       0.000000
      0.000252       0.000361       0.000000
      0.000000       0.000000       0.000000
      0.000000       0.000000       0.000000
     -0.000950       0.000736       0.000000
     -0.001283       0.001234       0.000000
     -0.001050       0.001489       0.000000
     -0.000599       0.000957       0.000000
     -0.001283       0.001234       0.000000
     -0.001579       0.001963       0.000000
     -0.001611       0.002174       0.000000
     -0.001050       0.001489       0.000000
     -0.000599       0.000957       0.000000
     -0.001050       0.001489       0.000000
     -0.000910       0.001527       0.000000