# vtk DataFile Version 2.0
time_10.vtk
ASCII
DATASET UNSTRUCTURED_GRID
POINTS   576 float
      0.458579       0.641421       0.000000
      0.497369       0.671659       0.000000
      0.438243       0.730363       0.000000
      0.382149       0.701184       0.000000
      0.497369       0.671659       0.000000
      0.545805       0.692517       0.000000
      0.506084       0.750000       0.000000
      0.438243       0.730363       0.000000
      0.382149       0.701184       0.000000
      0.438243       0.730363       0.000000
      0.380813       0.787383       0.000000
      0.305719       0.760948       0.000000
      0.438243       0.730363       0.000000
      0.506084       0.750000       0.000000
      0.468251       0.804752       0.000000
      0.380813       0.787383       0.000000
      0.545805       0.692517       0.000000
      0.600000       0.700000       0.000000
      0.581017       0.756950       0.000000
      0.506084       0.750000       0.000000
      0.600000       0.700000       0.000000
      0.654195       0.692517       0.000000
      0.656527       0.750000       0.000000
      0.581017       0.756950       0.000000
      0.506084       0.750000       0.000000
      0.581017       0.756950       0.000000
      0.563060       0.810819       0.000000
      0.468251       0.804752       0.000000
      0.581017       0.756950       0.000000
      0.656527       0.750000       0.000000
      0.658747       0.804752       0.000000
      0.563060       0.810819       0.000000
      0.654195       0.692517       0.000000
      0.702631       0.671659       0.000000
      0.725999       0.730363       0.000000
      0.656527       0.750000       0.000000
      0.702631       0.671659       0.000000
      0.741421       0.641421       0.000000
      0.784518       0.701184       0.000000
      0.725999       0.730363       0.000000
      0.656527       0.750000       0.000000
      0.725999       0.730363       0.000000
      0.748697       0.787383       0.000000
      0.658747       0.804752       0.000000
      0.725999       0.730363       0.000000
      0.784518       0.701184       0.000000
      0.827614       0.760948       0.000000
      0.748697       0.787383       0.000000
      0.305719       0.760948       0.000000
      0.380813       0.787383       0.000000
      0.325006       0.842791       0.000000
      0.229289       0.820711       0.000000
      0.380813       0.787383       0.000000
      0.468251       0.804752       0.000000
      0.432173       0.856962       0.000000
      0.325006       0.842791       0.000000
      0.229289       0.820711       0.000000
      0.325006       0.842791       0.000000
      0.270755       0.896655       0.000000
      0.152860       0.880474       0.000000
      0.325006       0.842791       0.000000
      0.432173       0.856962       0.000000
      0.397732       0.906804       0.000000
      0.270755       0.896655       0.000000
      0.468251       0.804752       0.000000
      0.563060       0.810819       0.000000
      0.546050       0.861851       0.000000
      0.432173       0.856962       0.000000
      0.563060       0.810819       0.000000
      0.658747       0.804752       0.000000
      0.660865       0.856962       0.000000
      0.546050       0.861851       0.000000
      0.432173       0.856962       0.000000
      0.546050       0.861851       0.000000
      0.529912       0.910264       0.000000
      0.397732       0.906804       0.000000
      0.546050       0.861851       0.000000
      0.660865       0.856962       0.000000
      0.662887       0.906804       0.000000
      0.529912       0.910264       0.000000
      0.658747       0.804752       0.000000
      0.748697       0.787383       0.000000
      0.770753       0.842791       0.000000
      0.660865       0.856962       0.000000
      0.748697       0.787383       0.000000
      0.827614       0.760948       0.000000
      0.870711       0.820711       0.000000
      0.770753       0.842791       0.000000
      0.660865       0.856962       0.000000
      0.770753       0.842791       0.000000
      0.792195       0.896655       0.000000
      0.662887       0.906804       0.000000
      0.770753       0.842791       0.000000
      0.870711       0.820711       0.000000
      0.913807       0.880474       0.000000
      0.792195       0.896655       0.000000
      0.152860       0.880474       0.000000
      0.270755       0.896655       0.000000
      0.217995       0.949038       0.000000
      0.076430       0.940237       0.000000
      0.270755       0.896655       0.000000
      0.397732       0.906804       0.000000
      0.364819       0.954435       0.000000
      0.217995       0.949038       0.000000
      0.076430       0.940237       0.000000
      0.217995       0.949038       0.000000
      0.166667       1.000000       0.000000
      0.000000       1.000000       0.000000
      0.217995       0.949038       0.000000
      0.364819       0.954435       0.000000
      0.333333       1.000000       0.000000
      0.166667       1.000000       0.000000
      0.397732       0.906804       0.000000
      0.529912       0.910264       0.000000
      0.514582       0.956255       0.000000
      0.364819       0.954435       0.000000
      0.529912       0.910264       0.000000
      0.662887       0.906804       0.000000
      0.664819       0.954435       0.000000
      0.514582       0.956255       0.000000
      0.364819       0.954435       0.000000
      0.514582       0.956255       0.000000
      0.500000       1.000000       0.000000
      0.333333       1.000000       0.000000
      0.514582       0.956255       0.000000
      0.664819       0.954435       0.000000
      0.666667       1.000000       0.000000
      0.500000       1.000000       0.000000
      0.662887       0.906804       0.000000
      0.792195       0.896655       0.000000
      0.813047       0.949038       0.000000
      0.664819       0.954435       0.000000
      0.792195       0.896655       0.000000
      0.913807       0.880474       0.000000
      0.956904       0.940237       0.000000
      0.813047       0.949038       0.000000
      0.664819       0.954435       0.000000
      0.813047       0.949038       0.000000
      0.833333       1.000000       0.000000
      0.666667       1.000000       0.000000
      0.813047       0.949038       0.000000
      0.956904       0.940237       0.000000
      1.000000       1.000000       0.000000
      0.833333       1.000000       0.000000
      0.458579       0.358579       0.000000
      0.428341       0.397369       0.000000
      0.351758       0.356122       0.000000
      0.382149       0.298816       0.000000
      0.428341       0.397369       0.000000
      0.407483       0.445805       0.000000
      0.331305       0.424779       0.000000
      0.351758       0.356122       0.000000
      0.382149       0.298816       0.000000
      0.351758       0.356122       0.000000
      0.277372       0.316058       0.000000
      0.305719       0.239052       0.000000
      0.351758       0.356122       0.000000
      0.331305       0.424779       0.000000
      0.258747       0.404752       0.000000
      0.277372       0.316058       0.000000
      0.407483       0.445805       0.000000
      0.400000       0.500000       0.000000
      0.324066       0.500000       0.000000
      0.331305       0.424779       0.000000
      0.400000       0.500000       0.000000
      0.407483       0.554195       0.000000
      0.331305       0.575221       0.000000
      0.324066       0.500000       0.000000
      0.331305       0.424779       0.000000
      0.324066       0.500000       0.000000
      0.252241       0.500000       0.000000
      0.258747       0.404752       0.000000
      0.324066       0.500000       0.000000
      0.331305       0.575221       0.000000
      0.258747       0.595248       0.000000
      0.252241       0.500000       0.000000
      0.407483       0.554195       0.000000
      0.428341       0.602631       0.000000
      0.351758       0.643878       0.000000
      0.331305       0.575221       0.000000
      0.428341       0.602631       0.000000
      0.458579       0.641421       0.000000
      0.382149       0.701184       0.000000
      0.351758       0.643878       0.000000
      0.331305       0.575221       0.000000
      0.351758       0.643878       0.000000
      0.277372       0.683942       0.000000
      0.258747       0.595248       0.000000
      0.351758       0.643878       0.000000
      0.382149       0.701184       0.000000
      0.305719       0.760948       0.000000
      0.277372       0.683942       0.000000
      0.305719       0.239052       0.000000
      0.277372       0.316058       0.000000
      0.205089       0.277126       0.000000
      0.229289       0.179289       0.000000
      0.277372       0.316058       0.000000
      0.258747       0.404752       0.000000
      0.189557       0.385654       0.000000
      0.205089       0.277126       0.000000
      0.229289       0.179289       0.000000
      0.205089       0.277126       0.000000
      0.134820       0.239280       0.000000
      0.152860       0.119526       0.000000
      0.205089       0.277126       0.000000
      0.189557       0.385654       0.000000
      0.123505       0.367423       0.000000
      0.134820       0.239280       0.000000
      0.258747       0.404752       0.000000
      0.252241       0.500000       0.000000
      0.184198       0.500000       0.000000
      0.189557       0.385654       0.000000
      0.252241       0.500000       0.000000
      0.258747       0.595248       0.000000
      0.189557       0.614346       0.000000
      0.184198       0.500000       0.000000
      0.189557       0.385654       0.000000
      0.184198       0.500000       0.000000
      0.119648       0.500000       0.000000
      0.123505       0.367423       0.000000
[...]
POINT_DATA   576
VECTORS U float 
      0.000380       0.004936       0.000000
      0.000196       0.005291       0.000000
      0.000033       0.005025       0.000000
      0.000251       0.004578       0.000000
      0.000196       0.005291       0.000000
      0.000002       0.005527       0.000000
     -0.000112       0.005424       0.000000
      0.000033       0.005025       0.000000
      0.000251       0.004578       0.000000
      0.000033       0.005025       0.000000
      0.000058       0.005001       0.000000
      0.000318       0.004626       0.000000
      0.000033       0.005025       0.000000
     -0.000112       0.005424       0.000000
     -0.000124       0.005382       0.000000
      0.000058       0.005001       0.000000
      0.000002       0.005527       0.000000
     -0.000199       0.005624       0.000000
     -0.000188       0.005648       0.000000
     -0.000112       0.005424       0.000000
     -0.000199       0.005624       0.000000
     -0.000419       0.005574       0.000000
     -0.000260       0.005609       0.000000
     -0.000188       0.005648       0.000000
     -0.000112       0.005424       0.000000
     -0.000188       0.005648       0.000000
     -0.000186       0.005646       0.000000
     -0.000124       0.005382       0.000000
     -0.000188       0.005648       0.000000
     -0.000260       0.005609       0.000000
     -0.000197       0.005635       0.000000
     -0.000186       0.005646       0.000000
     -0.000419       0.005574       0.000000
     -0.000667       0.005377       0.000000
     -0.000395       0.005312       0.000000
     -0.000260       0.005609       0.000000
     -0.000667       0.005377       0.000000
     -0.000937       0.005050       0.000000
     -0.000631       0.004856       0.000000
     -0.000395       0.005312       0.000000
     -0.000260       0.005609       0.000000
     -0.000395       0.005312       0.000000
     -0.000285       0.005335       0.000000
     -0.000197       0.005635       0.000000
     -0.000395       0.005312       0.000000
     -0.000631       0.004856       0.000000
     -0.000507       0.004886       0.000000
     -0.000285       0.005335       0.000000
      0.000318       0.004626       0.000000
      0.000058       0.005001       0.000000
      0.000120       0.005110       0.000000
      0.000416       0.004827       0.000000
      0.000058       0.005001       0.000000
     -0.000124       0.005382       0.000000
     -0.000104       0.005417       0.000000
      0.000120       0.005110       0.000000
      0.000416       0.004827       0.000000
      0.000120       0.005110       0.000000
      0.000196       0.005297       0.000000
      0.000531       0.005100       0.000000
      0.000120       0.005110       0.000000
     -0.000104       0.005417       0.000000
     -0.000073       0.005509       0.000000
      0.000196       0.005297       0.000000
     -0.000124       0.005382       0.000000
     -0.000186       0.005646       0.000000
     -0.000180       0.005661       0.000000
     -0.000104       0.005417       0.000000
     -0.000186       0.005646       0.000000
     -0.000197       0.005635       0.000000
     -0.000164       0.005670       0.000000
     -0.000180       0.005661       0.000000
     -0.000104       0.005417       0.000000
     -0.000180       0.005661       0.000000
     -0.000174       0.005696       0.000000
     -0.000073       0.005509       0.000000
     -0.000180       0.005661       0.000000
     -0.000164       0.005670       0.000000
     -0.000144       0.005713       0.000000
     -0.000174       0.005696       0.000000
     -0.000197       0.005635       0.000000
     -0.000285       0.005335       0.000000
     -0.000227       0.005406       0.000000
     -0.000164       0.005670       0.000000
     -0.000285       0.005335       0.000000
     -0.000507       0.004886       0.000000
     -0.000440       0.005003       0.000000
     -0.000227       0.005406       0.000000
     -0.000164       0.005670       0.000000
     -0.000227       0.005406       0.000000
     -0.000196       0.005510       0.000000
     -0.000144       0.005713       0.000000
     -0.000227       0.005406       0.000000
     -0.000440       0.005003       0.000000
     -0.000421       0.005192       0.000000
     -0.000196       0.005510       0.000000
      0.000531       0.005100       0.000000
      0.000196       0.005297       0.000000
      0.000290       0.005535       0.000000
      0.000680       0.005424       0.000000
      0.000196       0.005297       0.000000
     -0.000073       0.005509       0.000000
     -0.000034       0.005643       0.000000
      0.000290       0.005535       0.000000
      0.000680       0.005424       0.000000
      0.000290       0.005535       0.000000
      0.000410       0.005812       0.000000
      0.000884       0.005812       0.000000
      0.000290       0.005535       0.000000
     -0.000034       0.005643       0.000000
      0.000016       0.005812       0.000000
      0.000410       0.005812       0.000000
     -0.000073       0.005509       0.000000
     -0.000174       0.005696       0.000000
     -0.000169       0.005747       0.000000
     -0.000034       0.005643       0.000000
     -0.000174       0.005696       0.000000
     -0.000144       0.005713       0.000000
     -0.000133       0.005762       0.000000
     -0.000169       0.005747       0.000000
     -0.000034       0.005643       0.000000
     -0.000169       0.005747       0.000000
     -0.000165       0.005812       0.000000
      0.000016       0.005812       0.000000
     -0.000169       0.005747       0.000000
     -0.000133       0.005762       0.000000
     -0.000129       0.005812       0.000000
     -0.000165       0.005812       0.000000
     -0.000144       0.005713       0.000000
     -0.000196       0.005510       0.000000
     -0.000187       0.005645       0.000000
     -0.000133       0.005762       0.000000
     -0.000196       0.005510       0.000000
     -0.000421       0.005192       0.000000
     -0.000458       0.005462       0.000000
     -0.000187       0.005645       0.000000
     -0.000133       0.005762       0.000000
     -0.000187       0.005645       0.000000
     -0.000201       0.005812       0.000000
     -0.000129       0.005812       0.000000
     -0.000187       0.005645       0.000000
     -0.000458       0.005462       0.000000
     -0.000550       0.005812       0.000000
     -0.000201       0.005812       0.000000
      0.000331       0.000756       0.000000
      0.000504       0.001221       0.000000
      0.000492       0.001601       0.000000
      0.000201       0.001099       0.000000
      0.000504       0.001221       0.000000
      0.000639       0.001891       0.000000
      0.000815       0.002196       0.000000
      0.000492       0.001601       0.000000
      0.000201       0.001099       0.000000
      0.000492       0.001601       0.000000
      0.000561       0.001600       0.000000
      0.000240       0.001049       0.000000
      0.000492       0.001601       0.000000
      0.000815       0.002196       0.000000
      0.000920       0.002231       0.000000
      0.000561       0.001600       0.000000
      0.000639       0.001891       0.000000
      0.000681       0.002825       0.000000
      0.000985       0.002838       0.000000
      0.000815       0.002196       0.000000
      0.000681       0.002825       0.000000
      0.000665       0.003768       0.000000
      0.000849       0.003477       0.000000
      0.000985       0.002838       0.000000
      0.000815       0.002196       0.000000
      0.000985       0.002838       0.000000
      0.001105       0.002848       0.000000
      0.000920       0.002231       0.000000
      0.000985       0.002838       0.000000
      0.000849       0.003477       0.000000
      0.000956       0.003457       0.000000
      0.001105       0.002848       0.000000
      0.000665       0.003768       0.000000
      0.000549       0.004451       0.000000
      0.000543       0.004069       0.000000
      0.000849       0.003477       0.000000
      0.000549       0.004451       0.000000
      0.000380       0.004936       0.000000
      0.000251       0.004578       0.000000
      0.000543       0.004069       0.000000
      0.000849       0.003477       0.000000
      0.000543       0.004069       0.000000
      0.000624       0.004075       0.000000
      0.000956       0.003457       0.000000
      0.000543       0.004069       0.000000
      0.000251       0.004578       0.000000
      0.000318       0.004626       0.000000
      0.000624       0.004075       0.000000
      0.000240       0.001049       0.000000
      0.000561       0.001600       0.000000
      0.000640       0.001492       0.000000
      0.000283       0.000856       0.000000
      0.000561       0.001600       0.000000
      0.000920       0.002231       0.000000
      0.001024       0.002193       0.000000
      0.000640       0.001492       0.000000
      0.000283       0.000856       0.000000
      0.000640       0.001492       0.000000
      0.000712       0.001368       0.000000
      0.000291       0.000608       0.000000
      0.000640       0.001492       0.000000
      0.001024       0.002193       0.000000
      0.001131       0.002151       0.000000
      0.000712       0.001368       0.000000
      0.000920       0.002231       0.000000
      0.001105       0.002848       0.000000
      0.001216       0.002859       0.000000
      0.001024       0.002193       0.000000
      0.001105       0.002848       0.000000
      0.000956       0.003457       0.000000
      0.001063       0.003516       0.000000
      0.001216       0.002859       0.000000
      0.001024       0.002193       0.000000
      0.001216       0.002859       0.000000
      0.001335       0.002872       0.000000
      0.001131       0.002151       0.000000
      0.001216       0.002859       0.000000
      0.001063       0.003516       0.000000
      0.001173       0.003588       0.000000
      0.001335       0.002872       0.000000
      0.000956       0.003457       0.000000
      0.000624       0.004075       0.000000
      0.000722       0.004199       0.000000
      0.001063       0.003516       0.000000
      0.000624       0.004075       0.000000
      0.000318       0.004626       0.000000
      0.000416       0.004827       0.000000
      0.000722       0.004199       0.000000
      0.001063       0.003516       0.000000
      0.000722       0.004199       0.000000
      0.000821       0.004355       0.000000
      0.001173       0.003588       0.000000
      0.000722       0.004199       0.000000
      0.000416       0.004827       0.000000
      0.000531       0.005100       0.000000
      0.000821       0.004355       0.000000
      0.000291       0.000608       0.000000
      0.000712       0.001368       0.000000
      0.000776       0.001276       0.000000
      0.000236       0.000334       0.000000
      0.000712       0.001368       0.000000
      0.001131       0.002151       0.000000
      0.001232       0.002136       0.000000
      0.000776       0.001276       0.000000
      0.000236       0.000334       0.000000
      0.000776       0.001276       0.000000
      0.000830       0.001233       0.000000
      0.000000       0.000000       0.000000
      0.000776       0.001276       0.000000
      0.001232       0.002136       0.000000
      0.001321       0.002169       0.000000
      0.000830       0.001233       0.000000
      0.001131       0.002151       0.000000
      0.001335       0.002872       0.000000
      0.001455       0.002884       0.000000
      0.001232       0.002136       0.000000
      0.001335       0.002872       0.000000
      0.001173       0.003588       0.000000
      0.001281       0.003637       0.000000
      0.001455       0.002884       0.000000
      0.001232       0.002136       0.000000
      0.001455       0.002884       0.000000
      0.001565       0.002895       0.000000
      0.001321       0.002169       0.000000
      0.001455       0.002884       0.000000
      0.001281       0.003637       0.000000
      0.001382       0.003636       0.000000
      0.001565       0.002895       0.000000
      0.001173       0.003588       0.000000
      0.000821       0.004355       0.000000
      0.000921       0.004503       0.000000
      0.001281       0.003637       0.000000
      0.000821       0.004355       0.000000
      0.000531       0.005100       0.000000
      0.000680       0.005424       0.000000
      0.000921       0.004503       0.000000
      0.001281       0.003637       0.000000
      0.000921       0.004503       0.000000
      0.001036       0.004634       0.000000
      0.001382       0.003636       0.000000
      0.000921       0.004503       0.000000
      0.000680       0.005424       0.000000
      0.000884       0.005812       0.000000
      0.001036       0.004634       0.000000
     -0.000880       0.000708       0.000000
     -0.000605       0.000382       0.000000
     -0.000324       0.000452       0.000000
     -0.000559       0.000910       0.000000
     -0.000605       0.000382       0.000000
     -0.000367       0.000188       0.000000
     -0.000204       0.000160       0.000000
     -0.000324       0.000452       0.000000
     -0.000559       0.000910       0.000000
     -0.000324       0.000452       0.000000
     -0.000190       0.000436       0.000000
     -0.000411       0.000888       0.000000
     -0.000324       0.000452       0.000000
     -0.000204       0.000160       0.000000
     -0.000122       0.000144       0.000000
     -0.000190       0.000436       0.000000
     -0.000367       0.000188       0.000000
     -0.000174       0.000134       0.000000
     -0.000155       0.000116       0.000000
     -0.000204       0.000160       0.000000
     -0.000174       0.000134       0.000000
     -0.000007       0.000215       0.000000
     -0.000110       0.000310       0.000000
     -0.000155       0.000116       0.000000
     -0.000204       0.000160       0.000000
     -0.000155       0.000116       0.000000
     -0.000143       0.000125       0.000000
     -0.000122       0.000144       0.000000
     -0.000155       0.000116       0.000000
     -0.000110       0.000310       0.000000
     -0.000126       0.000352       0.000000
     -0.000143       0.000125       0.000000
     -0.000007       0.000215       0.000000
      0.000159       0.000426       0.000000
      0.000002       0.000674       0.000000
     -0.000110       0.000310       0.000000
      0.000159       0.000426       0.000000
      0.000331       0.000756       0.000000
      0.000201       0.001099       0.000000
      0.000002       0.000674       0.000000
     -0.000110       0.000310       0.000000
      0.000002       0.000674       0.000000
      0.000009       0.000694       0.000000
     -0.000126       0.000352       0.000000
      0.000002       0.000674       0.000000
      0.000201       0.001099       0.000000
      0.000240       0.001049       0.000000
      0.000009       0.000694       0.000000
     -0.000411       0.000888       0.000000
     -0.000190       0.000436       0.000000
     -0.000102       0.000371       0.000000
     -0.000310       0.000777       0.000000
     -0.000190       0.000436       0.000000
     -0.000122       0.000144       0.000000
     -0.000067       0.000120       0.000000
     -0.000102       0.000371       0.000000
     -0.000310       0.000777       0.000000
     -0.000102       0.000371       0.000000
     -0.000038       0.000270       0.000000
     -0.000243       0.000593       0.000000
     -0.000102       0.000371       0.000000
     -0.000067       0.000120       0.000000
     -0.000028       0.000089       0.000000
     -0.000038       0.000270       0.000000
     -0.000122       0.000144       0.000000
     -0.000143       0.000125       0.000000
     -0.000124       0.000119       0.000000
     -0.000067       0.000120       0.000000
     -0.000143       0.000125       0.000000
     -0.000126       0.000352       0.000000
     -0.000111       0.000322       0.000000
     -0.000124       0.000119       0.000000
     -0.000067       0.000120       0.000000
     -0.000124       0.000119       0.000000
     -0.000098       0.000096       0.000000
     -0.000028       0.000089       0.000000
     -0.000124       0.000119       0.000000
     -0.000111       0.000322       0.000000
     -0.000085       0.000241       0.000000
     -0.000098       0.000096       0.000000
     -0.000126       0.000352       0.000000
      0.000009       0.000694       0.000000
      0.000037       0.000587       0.000000
     -0.000111       0.000322       0.000000
      0.000009       0.000694       0.000000
      0.000240       0.001049       0.000000
      0.000283       0.000856       0.000000
      0.000037       0.000587       0.000000
     -0.000111       0.000322       0.000000
      0.000037       0.000587       0.000000
      0.000055       0.000412       0.000000
     -0.000085       0.000241       0.000000
      0.000037       0.000587       0.000000
      0.000283       0.000856       0.000000
      0.000291       0.000608       0.000000
      0.000055       0.000412       0.000000
     -0.000243       0.000593       0.000000
     -0.000038       0.000270       0.000000
     -0.000002       0.000143       0.000000
     -0.000187       0.000333       0.000000
     -0.000038       0.000270       0.000000
     -0.000028       0.000089       0.000000
     -0.000004       0.000049       0.000000
     -0.000002       0.000143       0.000000
     -0.000187       0.000333       0.000000
     -0.000002       0.000143       0.000000
      0.000000       0.000000       0.000000
      0.000000       0.000000       0.000000
     -0.000002       0.000143       0.000000
     -0.000004       0.000049       0.000000
      0.000000       0.000000       0.000000
      0.000000       0.000000       0.000000
     -0.000028       0.000089       0.000000
     -0.000098       0.000096       0.000000
     -0.000060       0.000055       0.000000
     -0.000004       0.000049       0.000000
     -0.000098       0.000096       0.000000
     -0.000085       0.000241       0.000000
     -0.000047       0.000128       0.000000
     -0.000060       0.000055       0.000000
     -0.000004       0.000049       0.000000
     -0.000060       0.000055       0.000000
      0.000000       0.000000       0.000000
      0.000000       0.000000       0.000000
     -0.000060       0.000055       0.000000
     -0.000047       0.000128       0.000000
      0.000000       0.000000       0.000000
      0.000000       0.000000       0.000000
     -0.000085       0.000241       0.000000
      0.000055       0.000412       0.000000
      0.000048       0.000208       0.000000
     -0.000047       0.000128       0.000000
      0.000055       0.000412       0.000000
      0.000291       0.000608       0.000000
      0.000236       0.000334       0.000000
      0.000048       0.000208       0.000000
     -0.000047       0.000128       0.000000
      0.000048       0.000208       0.000000
      0.000000       0.000000       0.000000
      0.000000       0.000000       0.000000
      0.000048       0.000208       0.000000
      0.000236       0.000334       0.000000
      0.000000       0.000000       0.000000
      0.000000       0.000000       0.000000
     -0.000880       0.000708       0.000000
     -0.001180       0.001182       0.000000
     -0.000974       0.001411       0.000000
     -0.000559       0.000910       0.000000
     -0.001180       0.001182       0.000000
     -0.001443       0.001874       0.000000
     -0.001481       0.002051       0.000000
     -0.000974       0.001411       0.000000
     -0.000559       0.000910       0.000000
     -0.000974       0.001411       0.000000
     -0.000850       0.001435       0.000000