# vtk DataFile Version 2.0
time_10.vtk
ASCII
DATASET UNSTRUCTURED_GRID
POINTS   576 float
      0.458579       0.641421       0.000000
      0.497369       0.671659       0.000000
      0.438243       0.730363       0.000000
      0.382149       0.701184       0.000000
      0.497369       0.671659       0.000000
      0.545805       0.692517       0.000000
      0.506084       0.750000       0.000000
      0.438243       0.730363       0.000000
      0.382149       0.701184       0.000000
      0.438243       0.730363       0.000000
      0.380813       0.787383       0.000000
      0.305719       0.760948       0.000000
      0.438243       0.730363       0.000000
      0.506084       0.750000       0.000000
      0.468251       0.804752       0.000000
      0.380813       0.787383       0.000000
      0.545805       0.692517       0.000000
      0.600000       0.700000       0.000000
      0.581017       0.756950       0.000000
      0.506084       0.750000       0.000000
      0.600000       0.700000       0.000000
      0.654195       0.692517       0.000000
      0.656527       0.750000       0.000000
      0.581017       0.756950       0.000000
      0.506084       0.750000       0.000000
      0.581017       0.756950       0.000000
      0.563060       0.810819       0.000000
      0.468251       0.804752       0.000000
      0.581017       0.756950       0.000000
      0.656527       0.750000       0.000000
      0.658747       0.804752       0.000000
      0.563060       0.810819       0.000000
      0.654195       0.692517       0.000000
      0.702631       0.671659       0.000000
      0.725999       0.730363       0.000000
      0.656527       0.750000       0.000000
      0.702631       0.671659       0.000000
      0.741421       0.641421       0.000000
      0.784518       0.701184       0.000000
      0.725999       0.730363       0.000000
      0.656527       0.750000       0.000000
      0.725999       0.730363       0.000000
      0.748697       0.787383       0.000000
      0.658747       0.804752       0.000000
      0.725999       0.730363       0.000000
      0.784518       0.701184       0.000000
      0.827614       0.760948       0.000000
      0.748697       0.787383       0.000000
      0.305719       0.760948       0.000000
      0.380813       0.787383       0.000000
      0.325006       0.842791       0.000000
      0.229289       0.820711       0.000000
      0.380813       0.787383       0.000000
      0.468251       0.804752       0.000000
      0.432173       0.856962       0.000000
      0.325006       0.842791       0.000000
      0.229289       0.820711       0.000000
      0.325006       0.842791       0.000000
      0.270755       0.896655       0.000000
      0.152860       0.880474       0.000000
      0.325006       0.842791       0.000000
      0.432173       0.856962       0.000000
      0.397732       0.906804       0.000000
      0.270755       0.896655       0.000000
      0.468251       0.804752       0.000000
      0.563060       0.810819       0.000000
      0.546050       0.861851       0.000000
      0.432173       0.856962       0.000000
      0.563060       0.810819       0.000000
      0.658747       0.804752       0.000000
      0.660865       0.856962       0.000000
      0.546050       0.861851       0.000000
      0.432173       0.856962       0.000000
      0.546050       0.861851       0.000000
      0.529912       0.910264       0.000000
      0.397732       0.906804       0.000000
      0.546050       0.861851       0.000000
      0.660865       0.856962       0.000000
      0.662887       0.906804       0.000000
      0.529912       0.910264       0.000000
      0.658747       0.804752       0.000000
      0.748697       0.787383       0.000000
      0.770753       0.842791       0.000000
      0.660865       0.856962       0.000000
      0.748697       0.787383       0.000000
      0.827614       0.760948       0.000000
      0.870711       0.820711       0.000000
      0.770753       0.842791       0.000000
      0.660865       0.856962       0.000000
      0.770753       0.842791       0.000000
      0.792195       0.896655       0.000000
      0.662887       0.906804       0.000000
      0.770753       0.842791       0.000000
      0.870711       0.820711       0.000000
      0.913807       0.880474       0.000000
      0.792195       0.896655       0.000000
      0.152860       0.880474       0.000000
      0.270755       0.896655       0.000000
      0.217995       0.949038       0.000000
      0.076430       0.940237       0.000000
      0.270755       0.896655       0.000000
      0.397732       0.906804       0.000000
      0.364819       0.954435       0.000000
      0.217995       0.949038       0.000000
      0.076430       0.940237       0.000000
      0.217995       0.949038       0.000000
      0.166667       1.000000       0.000000
      0.000000       1.000000       0.000000
      0.217995       0.949038       0.000000
      0.364819       0.954435       0.000000
      0.333333       1.000000       0.000000
      0.166667       1.000000       0.000000
      0.397732       0.906804       0.000000
      0.529912       0.910264       0.000000
      0.514582       0.956255       0.000000
      0.364819       0.954435       0.000000
      0.529912       0.910264       0.000000
      0.662887       0.906804       0.000000
      0.664819       0.954435       0.000000
      0.514582       0.956255       0.000000
      0.364819       0.954435       0.000000
      0.514582       0.956255       0.000000
      0.500000       1.000000       0.000000
      0.333333       1.000000       0.000000
      0.514582       0.956255       0.000000
      0.664819       0.954435       0.000000
      0.666667       1.000000       0.000000
      0.500000       1.000000       0.000000
      0.662887       0.906804       0.000000
      0.792195       0.896655       0.000000
      0.813047       0.949038       0.000000
      0.664819       0.954435       0.000000
      0.792195       0.896655       0.000000
      0.913807       0.880474       0.000000
      0.956904       0.940237       0.000000
      0.813047       0.949038       0.000000
      0.664819       0.954435       0.000000
      0.813047       0.949038       0.000000
      0.833333       1.000000       0.000000
      0.666667       1.000000       0.000000
      0.813047       0.949038       0.000000
      0.956904       0.940237       0.000000
      1.000000       1.000000       0.000000
      0.833333       1.000000       0.000000
      0.458579       0.358579       0.000000
      0.428341       0.397369       0.000000
      0.351758       0.356122       0.000000
      0.382149       0.298816       0.000000
      0.428341       0.397369       0.000000
      0.407483       0.445805       0.000000
      0.331305       0.424779       0.000000
      0.351758       0.356122       0.000000
      0.382149       0.298816       0.000000
      0.351758       0.356122       0.000000
      0.277372       0.316058       0.000000
      0.305719       0.239052       0.000000
      0.351758       0.356122       0.000000
      0.331305       0.424779       0.000000
      0.258747       0.404752       0.000000
      0.277372       0.316058       0.000000
      0.407483       0.445805       0.000000
      0.400000       0.500000       0.000000
      0.324066       0.500000       0.000000
      0.331305       0.424779       0.000000
      0.400000       0.500000       0.000000
      0.407483       0.554195       0.000000
      0.331305       0.575221       0.000000
      0.324066       0.500000       0.000000
      0.331305       0.424779       0.000000
      0.324066       0.500000       0.000000
      0.252241       0.500000       0.000000
      0.258747       0.404752       0.000000
      0.324066       0.500000       0.000000
      0.331305       0.575221       0.000000
      0.258747       0.595248       0.000000
      0.252241       0.500000       0.000000
      0.407483       0.554195       0.000000
      0.428341       0.602631       0.000000
      0.351758       0.643878       0.000000
      0.331305       0.575221       0.000000
      0.428341       0.602631       0.000000
      0.458579       0.641421       0.000000
      0.382149       0.701184       0.000000
      0.351758       0.643878       0.000000
      0.331305       0.575221       0.000000
      0.351758       0.643878       0.000000
      0.277372       0.683942       0.000000
      0.258747       0.595248       0.000000
      0.351758       0.643878       0.000000
      0.382149       0.701184       0.000000
      0.305719       0.760948       0.000000
      0.277372       0.683942       0.000000
      0.305719       0.239052       0.000000
      0.277372       0.316058       0.000000
      0.205089       0.277126       0.000000
      0.229289       0.179289       0.000000
      0.277372       0.316058       0.000000
      0.258747       0.404752       0.000000
      0.189557       0.385654       0.000000
      0.205089       0.277126       0.000000
      0.229289       0.179289       0.000000
      0.205089       0.277126       0.000000
      0.134820       0.239280       0.000000
      0.152860       0.119526       0.000000
      0.205089       0.277126       0.000000
      0.189557       0.385654       0.000000
      0.123505       0.367423       0.000000
      0.134820       0.239280       0.000000
      0.258747       0.404752       0.000000
      0.252241       0.500000       0.000000
      0.184198       0.500000       0.000000
      0.189557       0.385654       0.000000
      0.252241       0.500000       0.000000
      0.258747       0.595248       0.000000
      0.189557       0.614346       0.000000
      0.184198       0.500000       0.000000
      0.189557       0.385654       0.000000
      0.184198       0.500000       0.000000
      0.119648       0.500000       0.000000
      0.123505       0.367423       0.000000
[...]
POINT_DATA   576
VECTORS U float 
      0.000420       0.005451       0.000000
      0.000216       0.005827       0.000000
      0.000036       0.005541       0.000000
      0.000273       0.005056       0.000000
      0.000216       0.005827       0.000000
      0.000004       0.006078       0.000000
     -0.000119       0.005968       0.000000
      0.000036       0.005541       0.000000
      0.000273       0.005056       0.000000
      0.000036       0.005541       0.000000
      0.000059       0.005509       0.000000
      0.000341       0.005096       0.000000
      0.000036       0.005541       0.000000
     -0.000119       0.005968       0.000000
     -0.000135       0.005921       0.000000
      0.000059       0.005509       0.000000
      0.000004       0.006078       0.000000
     -0.000214       0.006181       0.000000
     -0.000201       0.006207       0.000000
     -0.000119       0.005968       0.000000
     -0.000214       0.006181       0.000000
     -0.000452       0.006129       0.000000
     -0.000280       0.006168       0.000000
     -0.000201       0.006207       0.000000
     -0.000119       0.005968       0.000000
     -0.000201       0.006207       0.000000
     -0.000200       0.006203       0.000000
     -0.000135       0.005921       0.000000
     -0.000201       0.006207       0.000000
     -0.000280       0.006168       0.000000
     -0.000211       0.006193       0.000000
     -0.000200       0.006203       0.000000
     -0.000452       0.006129       0.000000
     -0.000722       0.005923       0.000000
     -0.000425       0.005852       0.000000
     -0.000280       0.006168       0.000000
     -0.000722       0.005923       0.000000
     -0.001020       0.005578       0.000000
     -0.000681       0.005363       0.000000
     -0.000425       0.005852       0.000000
     -0.000280       0.006168       0.000000
     -0.000425       0.005852       0.000000
     -0.000303       0.005873       0.000000
     -0.000211       0.006193       0.000000
     -0.000425       0.005852       0.000000
     -0.000681       0.005363       0.000000
     -0.000540       0.005386       0.000000
     -0.000303       0.005873       0.000000
      0.000341       0.005096       0.000000
      0.000059       0.005509       0.000000
      0.000123       0.005620       0.000000
      0.000444       0.005304       0.000000
      0.000059       0.005509       0.000000
     -0.000135       0.005921       0.000000
     -0.000116       0.005955       0.000000
      0.000123       0.005620       0.000000
      0.000444       0.005304       0.000000
      0.000123       0.005620       0.000000
      0.000202       0.005817       0.000000
      0.000565       0.005594       0.000000
      0.000123       0.005620       0.000000
     -0.000116       0.005955       0.000000
     -0.000086       0.006050       0.000000
      0.000202       0.005817       0.000000
     -0.000135       0.005921       0.000000
     -0.000200       0.006203       0.000000
     -0.000194       0.006217       0.000000
     -0.000116       0.005955       0.000000
     -0.000200       0.006203       0.000000
     -0.000211       0.006193       0.000000
     -0.000174       0.006228       0.000000
     -0.000194       0.006217       0.000000
     -0.000116       0.005955       0.000000
     -0.000194       0.006217       0.000000
     -0.000188       0.006253       0.000000
     -0.000086       0.006050       0.000000
     -0.000194       0.006217       0.000000
     -0.000174       0.006228       0.000000
     -0.000152       0.006272       0.000000
     -0.000188       0.006253       0.000000
     -0.000211       0.006193       0.000000
     -0.000303       0.005873       0.000000
     -0.000237       0.005944       0.000000
     -0.000174       0.006228       0.000000
     -0.000303       0.005873       0.000000
     -0.000540       0.005386       0.000000
     -0.000463       0.005504       0.000000
     -0.000237       0.005944       0.000000
     -0.000174       0.006228       0.000000
     -0.000237       0.005944       0.000000
     -0.000202       0.006052       0.000000
     -0.000152       0.006272       0.000000
     -0.000237       0.005944       0.000000
     -0.000463       0.005504       0.000000
     -0.000441       0.005704       0.000000
     -0.000202       0.006052       0.000000
      0.000565       0.005594       0.000000
      0.000202       0.005817       0.000000
      0.000301       0.006072       0.000000
      0.000725       0.005944       0.000000
      0.000202       0.005817       0.000000
     -0.000086       0.006050       0.000000
     -0.000046       0.006192       0.000000
      0.000301       0.006072       0.000000
      0.000725       0.005944       0.000000
      0.000301       0.006072       0.000000
      0.000430       0.006372       0.000000
      0.000950       0.006372       0.000000
      0.000301       0.006072       0.000000
     -0.000046       0.006192       0.000000
      0.000007       0.006372       0.000000
      0.000430       0.006372       0.000000
     -0.000086       0.006050       0.000000
     -0.000188       0.006253       0.000000
     -0.000184       0.006305       0.000000
     -0.000046       0.006192       0.000000
     -0.000188       0.006253       0.000000
     -0.000152       0.006272       0.000000
     -0.000140       0.006321       0.000000
     -0.000184       0.006305       0.000000
     -0.000046       0.006192       0.000000
     -0.000184       0.006305       0.000000
     -0.000181       0.006372       0.000000
      0.000007       0.006372       0.000000
     -0.000184       0.006305       0.000000
     -0.000140       0.006321       0.000000
     -0.000135       0.006372       0.000000
     -0.000181       0.006372       0.000000
     -0.000152       0.006272       0.000000
     -0.000202       0.006052       0.000000
     -0.000192       0.006195       0.000000
     -0.000140       0.006321       0.000000
     -0.000202       0.006052       0.000000
     -0.000441       0.005704       0.000000
     -0.000481       0.005994       0.000000
     -0.000192       0.006195       0.000000
     -0.000140       0.006321       0.000000
     -0.000192       0.006195       0.000000
     -0.000206       0.006372       0.000000
     -0.000135       0.006372       0.000000
     -0.000192       0.006195       0.000000
     -0.000481       0.005994       0.000000
     -0.000580       0.006372       0.000000
     -0.000206       0.006372       0.000000
      0.000368       0.000795       0.000000
      0.000563       0.001288       0.000000
      0.000541       0.001716       0.000000
      0.000221       0.001171       0.000000
      0.000563       0.001288       0.000000
      0.000715       0.002004       0.000000
      0.000906       0.002377       0.000000
      0.000541       0.001716       0.000000
      0.000221       0.001171       0.000000
      0.000541       0.001716       0.000000
      0.000616       0.001733       0.000000
      0.000261       0.001127       0.000000
      0.000541       0.001716       0.000000
      0.000906       0.002377       0.000000
      0.001023       0.002435       0.000000
      0.000616       0.001733       0.000000
      0.000715       0.002004       0.000000
      0.000746       0.003097       0.000000
      0.001110       0.003112       0.000000
      0.000906       0.002377       0.000000
      0.000746       0.003097       0.000000
      0.000744       0.004204       0.000000
      0.000942       0.003845       0.000000
      0.001110       0.003112       0.000000
      0.000906       0.002377       0.000000
      0.001110       0.003112       0.000000
      0.001239       0.003122       0.000000
      0.001023       0.002435       0.000000
      0.001110       0.003112       0.000000
      0.000942       0.003845       0.000000
      0.001060       0.003801       0.000000
      0.001239       0.003122       0.000000
      0.000744       0.004204       0.000000
      0.000612       0.004936       0.000000
      0.000595       0.004502       0.000000
      0.000942       0.003845       0.000000
      0.000612       0.004936       0.000000
      0.000420       0.005451       0.000000
      0.000273       0.005056       0.000000
      0.000595       0.004502       0.000000
      0.000942       0.003845       0.000000
      0.000595       0.004502       0.000000
      0.000682       0.004490       0.000000
      0.001060       0.003801       0.000000
      0.000595       0.004502       0.000000
      0.000273       0.005056       0.000000
      0.000341       0.005096       0.000000
      0.000682       0.004490       0.000000
      0.000261       0.001127       0.000000
      0.000616       0.001733       0.000000
      0.000703       0.001625       0.000000
      0.000306       0.000925       0.000000
      0.000616       0.001733       0.000000
      0.001023       0.002435       0.000000
      0.001138       0.002402       0.000000
      0.000703       0.001625       0.000000
      0.000306       0.000925       0.000000
      0.000703       0.001625       0.000000
      0.000781       0.001497       0.000000
      0.000314       0.000660       0.000000
      0.000703       0.001625       0.000000
      0.001138       0.002402       0.000000
      0.001253       0.002359       0.000000
      0.000781       0.001497       0.000000
      0.001023       0.002435       0.000000
      0.001239       0.003122       0.000000
      0.001357       0.003134       0.000000
      0.001138       0.002402       0.000000
      0.001239       0.003122       0.000000
      0.001060       0.003801       0.000000
      0.001177       0.003857       0.000000
      0.001357       0.003134       0.000000
      0.001138       0.002402       0.000000
      0.001357       0.003134       0.000000
      0.001485       0.003147       0.000000
      0.001253       0.002359       0.000000
      0.001357       0.003134       0.000000
      0.001177       0.003857       0.000000
      0.001297       0.003929       0.000000
      0.001485       0.003147       0.000000
      0.001060       0.003801       0.000000
      0.000682       0.004490       0.000000
      0.000788       0.004614       0.000000
      0.001177       0.003857       0.000000
      0.000682       0.004490       0.000000
      0.000341       0.005096       0.000000
      0.000444       0.005304       0.000000
      0.000788       0.004614       0.000000
      0.001177       0.003857       0.000000
      0.000788       0.004614       0.000000
      0.000894       0.004774       0.000000
      0.001297       0.003929       0.000000
      0.000788       0.004614       0.000000
      0.000444       0.005304       0.000000
      0.000565       0.005594       0.000000
      0.000894       0.004774       0.000000
      0.000314       0.000660       0.000000
      0.000781       0.001497       0.000000
      0.000849       0.001401       0.000000
      0.000254       0.000364       0.000000
      0.000781       0.001497       0.000000
      0.001253       0.002359       0.000000
      0.001363       0.002346       0.000000
      0.000849       0.001401       0.000000
      0.000254       0.000364       0.000000
      0.000849       0.001401       0.000000
      0.000908       0.001358       0.000000
      0.000000       0.000000       0.000000
      0.000849       0.001401       0.000000
      0.001363       0.002346       0.000000
      0.001459       0.002387       0.000000
      0.000908       0.001358       0.000000
      0.001253       0.002359       0.000000
      0.001485       0.003147       0.000000
      0.001616       0.003160       0.000000
      0.001363       0.002346       0.000000
      0.001485       0.003147       0.000000
      0.001297       0.003929       0.000000
      0.001413       0.003978       0.000000
      0.001616       0.003160       0.000000
      0.001363       0.002346       0.000000
      0.001616       0.003160       0.000000
      0.001734       0.003170       0.000000
      0.001459       0.002387       0.000000
      0.001616       0.003160       0.000000
      0.001413       0.003978       0.000000
      0.001521       0.003970       0.000000
      0.001734       0.003170       0.000000
      0.001297       0.003929       0.000000
      0.000894       0.004774       0.000000
      0.001001       0.004929       0.000000
      0.001413       0.003978       0.000000
      0.000894       0.004774       0.000000
      0.000565       0.005594       0.000000
      0.000725       0.005944       0.000000
      0.001001       0.004929       0.000000
      0.001413       0.003978       0.000000
      0.001001       0.004929       0.000000
      0.001124       0.005067       0.000000
      0.001521       0.003970       0.000000
      0.001001       0.004929       0.000000
      0.000725       0.005944       0.000000
      0.000950       0.006372       0.000000
      0.001124       0.005067       0.000000
     -0.000959       0.000738       0.000000
     -0.000655       0.000395       0.000000
     -0.000349       0.000471       0.000000
     -0.000603       0.000962       0.000000
     -0.000655       0.000395       0.000000
     -0.000395       0.000192       0.000000
     -0.000219       0.000162       0.000000
     -0.000349       0.000471       0.000000
     -0.000603       0.000962       0.000000
     -0.000349       0.000471       0.000000
     -0.000202       0.000458       0.000000
     -0.000437       0.000947       0.000000
     -0.000349       0.000471       0.000000
     -0.000219       0.000162       0.000000
     -0.000130       0.000146       0.000000
     -0.000202       0.000458       0.000000
     -0.000395       0.000192       0.000000
     -0.000186       0.000136       0.000000
     -0.000165       0.000116       0.000000
     -0.000219       0.000162       0.000000
     -0.000186       0.000136       0.000000
     -0.000004       0.000222       0.000000
     -0.000115       0.000323       0.000000
     -0.000165       0.000116       0.000000
     -0.000219       0.000162       0.000000
     -0.000165       0.000116       0.000000
     -0.000152       0.000127       0.000000
     -0.000130       0.000146       0.000000
     -0.000165       0.000116       0.000000
     -0.000115       0.000323       0.000000
     -0.000134       0.000370       0.000000
     -0.000152       0.000127       0.000000
     -0.000004       0.000222       0.000000
      0.000178       0.000446       0.000000
      0.000006       0.000712       0.000000
     -0.000115       0.000323       0.000000
      0.000178       0.000446       0.000000
      0.000368       0.000795       0.000000
      0.000221       0.001171       0.000000
      0.000006       0.000712       0.000000
     -0.000115       0.000323       0.000000
      0.000006       0.000712       0.000000
      0.000010       0.000739       0.000000
     -0.000134       0.000370       0.000000
      0.000006       0.000712       0.000000
      0.000221       0.001171       0.000000
      0.000261       0.001127       0.000000
      0.000010       0.000739       0.000000
     -0.000437       0.000947       0.000000
     -0.000202       0.000458       0.000000
     -0.000105       0.000392       0.000000
     -0.000326       0.000834       0.000000
     -0.000202       0.000458       0.000000
     -0.000130       0.000146       0.000000
     -0.000071       0.000123       0.000000
     -0.000105       0.000392       0.000000
     -0.000326       0.000834       0.000000
     -0.000105       0.000392       0.000000
     -0.000037       0.000287       0.000000
     -0.000256       0.000638       0.000000
     -0.000105       0.000392       0.000000
     -0.000071       0.000123       0.000000
     -0.000028       0.000092       0.000000
     -0.000037       0.000287       0.000000
     -0.000130       0.000146       0.000000
     -0.000152       0.000127       0.000000
     -0.000133       0.000123       0.000000
     -0.000071       0.000123       0.000000
     -0.000152       0.000127       0.000000
     -0.000134       0.000370       0.000000
     -0.000120       0.000340       0.000000
     -0.000133       0.000123       0.000000
     -0.000071       0.000123       0.000000
     -0.000133       0.000123       0.000000
     -0.000105       0.000099       0.000000
     -0.000028       0.000092       0.000000
     -0.000133       0.000123       0.000000
     -0.000120       0.000340       0.000000
     -0.000092       0.000255       0.000000
     -0.000105       0.000099       0.000000
     -0.000134       0.000370       0.000000
      0.000010       0.000739       0.000000
      0.000038       0.000627       0.000000
     -0.000120       0.000340       0.000000
      0.000010       0.000739       0.000000
      0.000261       0.001127       0.000000
      0.000306       0.000925       0.000000
      0.000038       0.000627       0.000000
     -0.000120       0.000340       0.000000
      0.000038       0.000627       0.000000
      0.000057       0.000443       0.000000
     -0.000092       0.000255       0.000000
      0.000038       0.000627       0.000000
      0.000306       0.000925       0.000000
      0.000314       0.000660       0.000000
      0.000057       0.000443       0.000000
     -0.000256       0.000638       0.000000
     -0.000037       0.000287       0.000000
      0.000001       0.000153       0.000000
     -0.000198       0.000358       0.000000
     -0.000037       0.000287       0.000000
     -0.000028       0.000092       0.000000
     -0.000003       0.000051       0.000000
      0.000001       0.000153       0.000000
     -0.000198       0.000358       0.000000
      0.000001       0.000153       0.000000
      0.000000       0.000000       0.000000
      0.000000       0.000000       0.000000
      0.000001       0.000153       0.000000
     -0.000003       0.000051       0.000000
      0.000000       0.000000       0.000000
      0.000000       0.000000       0.000000
     -0.000028       0.000092       0.000000
     -0.000105       0.000099       0.000000
     -0.000065       0.000058       0.000000
     -0.000003       0.000051       0.000000
     -0.000105       0.000099       0.000000
     -0.000092       0.000255       0.000000
     -0.000052       0.000136       0.000000
     -0.000065       0.000058       0.000000
     -0.000003       0.000051       0.000000
     -0.000065       0.000058       0.000000
      0.000000       0.000000       0.000000
      0.000000       0.000000       0.000000
     -0.000065       0.000058       0.000000
     -0.000052       0.000136       0.000000
      0.000000       0.000000       0.000000
      0.000000       0.000000       0.000000
     -0.000092       0.000255       0.000000
      0.000057       0.000443       0.000000
      0.000049       0.000224       0.000000
     -0.000052       0.000136       0.000000
      0.000057       0.000443       0.000000
      0.000314       0.000660       0.000000
      0.000254       0.000364       0.000000
      0.000049       0.000224       0.000000
     -0.000052       0.000136       0.000000
      0.000049       0.000224       0.000000
      0.000000       0.000000       0.000000
      0.000000       0.000000       0.000000
      0.000049       0.000224       0.000000
      0.000254       0.000364       0.000000
      0.000000       0.000000       0.000000
      0.000000       0.000000       0.000000
     -0.000959       0.000738       0.000000
     -0.001295       0.001238       0.000000
     -0.001059       0.001497       0.000000
     -0.000603       0.000962       0.000000
     -0.001295       0.001238       0.000000
     -0.001596       0.001969       0.000000
     -0.001627       0.002186       0.000000
     -0.001059       0.001497       0.000000
     -0.000603       0.000962       0.000000
     -0.001059       0.001497       0.000000
     -0.000917       0.001537       0.000000