# vtk DataFile Version 2.0
time_10.vtk
ASCII
DATASET UNSTRUCTURED_GRID
POINTS   576 float
      0.458579       0.641421       0.000000
      0.497369       0.671659       0.000000
      0.438243       0.730363       0.000000
      0.382149       0.701184       0.000000
      0.497369       0.671659       0.000000
      0.545805       0.692517       0.000000
      0.506084       0.750000       0.000000
      0.438243       0.730363       0.000000
      0.382149       0.701184       0.000000
      0.438243       0.730363       0.000000
      0.380813       0.787383       0.000000
      0.305719       0.760948       0.000000
      0.438243       0.730363       0.000000
      0.506084       0.750000       0.000000
      0.468251       0.804752       0.000000
      0.380813       0.787383       0.000000
      0.545805       0.692517       0.000000
      0.600000       0.700000       0.000000
      0.581017       0.756950       0.000000
      0.506084       0.750000       0.000000
      0.600000       0.700000       0.000000
      0.654195       0.692517       0.000000
      0.656527       0.750000       0.000000
      0.581017       0.756950       0.000000
      0.506084       0.750000       0.000000
      0.581017       0.756950       0.000000
      0.563060       0.810819       0.000000
      0.468251       0.804752       0.000000
      0.581017       0.756950       0.000000
      0.656527       0.750000       0.000000
      0.658747       0.804752       0.000000
      0.563060       0.810819       0.000000
      0.654195       0.692517       0.000000
      0.702631       0.671659       0.000000
      0.725999       0.730363       0.000000
      0.656527       0.750000       0.000000
      0.702631       0.671659       0.000000
      0.741421       0.641421       0.000000
      0.784518       0.701184       0.000000
      0.725999       0.730363       0.000000
      0.656527       0.750000       0.000000
      0.725999       0.730363       0.000000
      0.748697       0.787383       0.000000
      0.658747       0.804752       0.000000
      0.725999       0.730363       0.000000
      0.784518       0.701184       0.000000
      0.827614       0.760948       0.000000
      0.748697       0.787383       0.000000
      0.305719       0.760948       0.000000
      0.380813       0.787383       0.000000
      0.325006       0.842791       0.000000
      0.229289       0.820711       0.000000
      0.380813       0.787383       0.000000
      0.468251       0.804752       0.000000
      0.432173       0.856962       0.000000
      0.325006       0.842791       0.000000
      0.229289       0.820711       0.000000
      0.325006       0.842791       0.000000
      0.270755       0.896655       0.000000
      0.152860       0.880474       0.000000
      0.325006       0.842791       0.000000
      0.432173       0.856962       0.000000
      0.397732       0.906804       0.000000
      0.270755       0.896655       0.000000
      0.468251       0.804752       0.000000
      0.563060       0.810819       0.000000
      0.546050       0.861851       0.000000
      0.432173       0.856962       0.000000
      0.563060       0.810819       0.000000
      0.658747       0.804752       0.000000
      0.660865       0.856962       0.000000
      0.546050       0.861851       0.000000
      0.432173       0.856962       0.000000
      0.546050       0.861851       0.000000
      0.529912       0.910264       0.000000
      0.397732       0.906804       0.000000
      0.546050       0.861851       0.000000
      0.660865       0.856962       0.000000
      0.662887       0.906804       0.000000
      0.529912       0.910264       0.000000
      0.658747       0.804752       0.000000
      0.748697       0.787383       0.000000
      0.770753       0.842791       0.000000
      0.660865       0.856962       0.000000
      0.748697       0.787383       0.000000
      0.827614       0.760948       0.000000
      0.870711       0.820711       0.000000
      0.770753       0.842791       0.000000
      0.660865       0.856962       0.000000
      0.770753       0.842791       0.000000
      0.792195       0.896655       0.000000
      0.662887       0.906804       0.000000
      0.770753       0.842791       0.000000
      0.870711       0.820711       0.000000
      0.913807       0.880474       0.000000
      0.792195       0.896655       0.000000
      0.152860       0.880474       0.000000
      0.270755       0.896655       0.000000
      0.217995       0.949038       0.000000
      0.076430       0.940237       0.000000
      0.270755       0.896655       0.000000
      0.397732       0.906804       0.000000
      0.364819       0.954435       0.000000
      0.217995       0.949038       0.000000
      0.076430       0.940237       0.000000
      0.217995       0.949038       0.000000
      0.166667       1.000000       0.000000
      0.000000       1.000000       0.000000
      0.217995       0.949038       0.000000
      0.364819       0.954435       0.000000
      0.333333       1.000000       0.000000
      0.166667       1.000000       0.000000
      0.397732       0.906804       0.000000
      0.529912       0.910264       0.000000
      0.514582       0.956255       0.000000
      0.364819       0.954435       0.000000
      0.529912       0.910264       0.000000
      0.662887       0.906804       0.000000
      0.664819       0.954435       0.000000
      0.514582       0.956255       0.000000
      0.364819       0.954435       0.000000
      0.514582       0.956255       0.000000
      0.500000       1.000000       0.000000
      0.333333       1.000000       0.000000
      0.514582       0.956255       0.000000
      0.664819       0.954435       0.000000
      0.666667       1.000000       0.000000
      0.500000       1.000000       0.000000
      0.662887       0.906804       0.000000
      0.792195       0.896655       0.000000
      0.813047       0.949038       0.000000
      0.664819       0.954435       0.000000
      0.792195       0.896655       0.000000
      0.913807       0.880474       0.000000
      0.956904       0.940237       0.000000
      0.813047       0.949038       0.000000
      0.664819       0.954435       0.000000
      0.813047       0.949038       0.000000
      0.833333       1.000000       0.000000
      0.666667       1.000000       0.000000
      0.813047       0.949038       0.000000
      0.956904       0.940237       0.000000
      1.000000       1.000000       0.000000
      0.833333       1.000000       0.000000
      0.458579       0.358579       0.000000
      0.428341       0.397369       0.000000
      0.351758       0.356122       0.000000
      0.382149       0.298816       0.000000
      0.428341       0.397369       0.000000
      0.407483       0.445805       0.000000
      0.331305       0.424779       0.000000
      0.351758       0.356122       0.000000
      0.382149       0.298816       0.000000
      0.351758       0.356122       0.000000
      0.277372       0.316058       0.000000
      0.305719       0.239052       0.000000
      0.351758       0.356122       0.000000
      0.331305       0.424779       0.000000
      0.258747       0.404752       0.000000
      0.277372       0.316058       0.000000
      0.407483       0.445805       0.000000
      0.400000       0.500000       0.000000
      0.324066       0.500000       0.000000
      0.331305       0.424779       0.000000
      0.400000       0.500000       0.000000
      0.407483       0.554195       0.000000
      0.331305       0.575221       0.000000
      0.324066       0.500000       0.000000
      0.331305       0.424779       0.000000
      0.324066       0.500000       0.000000
      0.252241       0.500000       0.000000
      0.258747       0.404752       0.000000
      0.324066       0.500000       0.000000
      0.331305       0.575221       0.000000
      0.258747       0.595248       0.000000
      0.252241       0.500000       0.000000
      0.407483       0.554195       0.000000
      0.428341       0.602631       0.000000
      0.351758       0.643878       0.000000
      0.331305       0.575221       0.000000
      0.428341       0.602631       0.000000
      0.458579       0.641421       0.000000
      0.382149       0.701184       0.000000
      0.351758       0.643878       0.000000
      0.331305       0.575221       0.000000
      0.351758       0.643878       0.000000
      0.277372       0.683942       0.000000
      0.258747       0.595248       0.000000
      0.351758       0.643878       0.000000
      0.382149       0.701184       0.000000
      0.305719       0.760948       0.000000
      0.277372       0.683942       0.000000
      0.305719       0.239052       0.000000
      0.277372       0.316058       0.000000
      0.205089       0.277126       0.000000
      0.229289       0.179289       0.000000
      0.277372       0.316058       0.000000
      0.258747       0.404752       0.000000
      0.189557       0.385654       0.000000
      0.205089       0.277126       0.000000
      0.229289       0.179289       0.000000
      0.205089       0.277126       0.000000
      0.134820       0.239280       0.000000
      0.152860       0.119526       0.000000
      0.205089       0.277126       0.000000
      0.189557       0.385654       0.000000
      0.123505       0.367423       0.000000
      0.134820       0.239280       0.000000
      0.258747       0.404752       0.000000
      0.252241       0.500000       0.000000
      0.184198       0.500000       0.000000
      0.189557       0.385654       0.000000
      0.252241       0.500000       0.000000
      0.258747       0.595248       0.000000
      0.189557       0.614346       0.000000
      0.184198       0.500000       0.000000
      0.189557       0.385654       0.000000
      0.184198       0.500000       0.000000
      0.119648       0.500000       0.000000
      0.123505       0.367423       0.000000
[...]
POINT_DATA   576
VECTORS U float 
      0.000359       0.004666       0.000000
      0.000185       0.005007       0.000000
      0.000031       0.004754       0.000000
      0.000239       0.004327       0.000000
      0.000185       0.005007       0.000000
      0.000001       0.005235       0.000000
     -0.000107       0.005136       0.000000
      0.000031       0.004754       0.000000
      0.000239       0.004327       0.000000
      0.000031       0.004754       0.000000
      0.000057       0.004733       0.000000
      0.000305       0.004379       0.000000
      0.000031       0.004754       0.000000
     -0.000107       0.005136       0.000000
     -0.000118       0.005097       0.000000
      0.000057       0.004733       0.000000
      0.000001       0.005235       0.000000
     -0.000191       0.005327       0.000000
     -0.000180       0.005351       0.000000
     -0.000107       0.005136       0.000000
     -0.000191       0.005327       0.000000
     -0.000401       0.005279       0.000000
     -0.000249       0.005313       0.000000
     -0.000180       0.005351       0.000000
     -0.000107       0.005136       0.000000
     -0.000180       0.005351       0.000000
     -0.000178       0.005349       0.000000
     -0.000118       0.005097       0.000000
     -0.000180       0.005351       0.000000
     -0.000249       0.005313       0.000000
     -0.000189       0.005339       0.000000
     -0.000178       0.005349       0.000000
     -0.000401       0.005279       0.000000
     -0.000636       0.005090       0.000000
     -0.000377       0.005028       0.000000
     -0.000249       0.005313       0.000000
     -0.000636       0.005090       0.000000
     -0.000891       0.004775       0.000000
     -0.000603       0.004591       0.000000
     -0.000377       0.005028       0.000000
     -0.000249       0.005313       0.000000
     -0.000377       0.005028       0.000000
     -0.000274       0.005052       0.000000
     -0.000189       0.005339       0.000000
     -0.000377       0.005028       0.000000
     -0.000603       0.004591       0.000000
     -0.000487       0.004624       0.000000
     -0.000274       0.005052       0.000000
      0.000305       0.004379       0.000000
      0.000057       0.004733       0.000000
      0.000118       0.004840       0.000000
      0.000399       0.004574       0.000000
      0.000057       0.004733       0.000000
     -0.000118       0.005097       0.000000
     -0.000098       0.005131       0.000000
      0.000118       0.004840       0.000000
      0.000399       0.004574       0.000000
      0.000118       0.004840       0.000000
      0.000191       0.005020       0.000000
      0.000510       0.004836       0.000000
      0.000118       0.004840       0.000000
     -0.000098       0.005131       0.000000
     -0.000067       0.005220       0.000000
      0.000191       0.005020       0.000000
     -0.000118       0.005097       0.000000
     -0.000178       0.005349       0.000000
     -0.000172       0.005364       0.000000
     -0.000098       0.005131       0.000000
     -0.000178       0.005349       0.000000
     -0.000189       0.005339       0.000000
     -0.000158       0.005373       0.000000
     -0.000172       0.005364       0.000000
     -0.000098       0.005131       0.000000
     -0.000172       0.005364       0.000000
     -0.000166       0.005399       0.000000
     -0.000067       0.005220       0.000000
     -0.000172       0.005364       0.000000
     -0.000158       0.005373       0.000000
     -0.000139       0.005416       0.000000
     -0.000166       0.005399       0.000000
     -0.000189       0.005339       0.000000
     -0.000274       0.005052       0.000000
     -0.000220       0.005120       0.000000
     -0.000158       0.005373       0.000000
     -0.000274       0.005052       0.000000
     -0.000487       0.004624       0.000000
     -0.000424       0.004738       0.000000
     -0.000220       0.005120       0.000000
     -0.000158       0.005373       0.000000
     -0.000220       0.005120       0.000000
     -0.000191       0.005221       0.000000
     -0.000139       0.005416       0.000000
     -0.000220       0.005120       0.000000
     -0.000424       0.004738       0.000000
     -0.000407       0.004920       0.000000
     -0.000191       0.005221       0.000000
      0.000510       0.004836       0.000000
      0.000191       0.005020       0.000000
      0.000282       0.005248       0.000000
      0.000652       0.005145       0.000000
      0.000191       0.005020       0.000000
     -0.000067       0.005220       0.000000
     -0.000030       0.005350       0.000000
      0.000282       0.005248       0.000000
      0.000652       0.005145       0.000000
      0.000282       0.005248       0.000000
      0.000396       0.005512       0.000000
      0.000845       0.005512       0.000000
      0.000282       0.005248       0.000000
     -0.000030       0.005350       0.000000
      0.000019       0.005512       0.000000
      0.000396       0.005512       0.000000
     -0.000067       0.005220       0.000000
     -0.000166       0.005399       0.000000
     -0.000161       0.005449       0.000000
     -0.000030       0.005350       0.000000
     -0.000166       0.005399       0.000000
     -0.000139       0.005416       0.000000
     -0.000129       0.005463       0.000000
     -0.000161       0.005449       0.000000
     -0.000030       0.005350       0.000000
     -0.000161       0.005449       0.000000
     -0.000157       0.005512       0.000000
      0.000019       0.005512       0.000000
     -0.000161       0.005449       0.000000
     -0.000129       0.005463       0.000000
     -0.000125       0.005512       0.000000
     -0.000157       0.005512       0.000000
     -0.000139       0.005416       0.000000
     -0.000191       0.005221       0.000000
     -0.000183       0.005352       0.000000
     -0.000129       0.005463       0.000000
     -0.000191       0.005221       0.000000
     -0.000407       0.004920       0.000000
     -0.000442       0.005178       0.000000
     -0.000183       0.005352       0.000000
     -0.000129       0.005463       0.000000
     -0.000183       0.005352       0.000000
     -0.000196       0.005512       0.000000
     -0.000125       0.005512       0.000000
     -0.000183       0.005352       0.000000
     -0.000442       0.005178       0.000000
     -0.000530       0.005512       0.000000
     -0.000196       0.005512       0.000000
      0.000312       0.000730       0.000000
      0.000474       0.001177       0.000000
      0.000466       0.001532       0.000000
      0.000190       0.001055       0.000000
      0.000474       0.001177       0.000000
      0.000601       0.001816       0.000000
      0.000768       0.002093       0.000000
      0.000466       0.001532       0.000000
      0.000190       0.001055       0.000000
      0.000466       0.001532       0.000000
      0.000532       0.001526       0.000000
      0.000229       0.001003       0.000000
      0.000466       0.001532       0.000000
      0.000768       0.002093       0.000000
      0.000867       0.002120       0.000000
      0.000532       0.001526       0.000000
      0.000601       0.001816       0.000000
      0.000644       0.002679       0.000000
      0.000924       0.002692       0.000000
      0.000768       0.002093       0.000000
      0.000644       0.002679       0.000000
      0.000626       0.003549       0.000000
      0.000800       0.003286       0.000000
      0.000924       0.002692       0.000000
      0.000768       0.002093       0.000000
      0.000924       0.002692       0.000000
      0.001038       0.002701       0.000000
      0.000867       0.002120       0.000000
      0.000924       0.002692       0.000000
      0.000800       0.003286       0.000000
      0.000901       0.003275       0.000000
      0.001038       0.002701       0.000000
      0.000626       0.003549       0.000000
      0.000517       0.004201       0.000000
      0.000515       0.003844       0.000000
      0.000800       0.003286       0.000000
      0.000517       0.004201       0.000000
      0.000359       0.004666       0.000000
      0.000239       0.004327       0.000000
      0.000515       0.003844       0.000000
      0.000800       0.003286       0.000000
      0.000515       0.003844       0.000000
      0.000593       0.003857       0.000000
      0.000901       0.003275       0.000000
      0.000515       0.003844       0.000000
      0.000239       0.004327       0.000000
      0.000305       0.004379       0.000000
      0.000593       0.003857       0.000000
      0.000229       0.001003       0.000000
      0.000532       0.001526       0.000000
      0.000606       0.001419       0.000000
      0.000270       0.000817       0.000000
      0.000532       0.001526       0.000000
      0.000867       0.002120       0.000000
      0.000966       0.002081       0.000000
      0.000606       0.001419       0.000000
      0.000270       0.000817       0.000000
      0.000606       0.001419       0.000000
      0.000675       0.001299       0.000000
      0.000278       0.000579       0.000000
      0.000606       0.001419       0.000000
      0.000966       0.002081       0.000000
      0.001067       0.002040       0.000000
      0.000675       0.001299       0.000000
      0.000867       0.002120       0.000000
      0.001038       0.002701       0.000000
      0.001144       0.002711       0.000000
      0.000966       0.002081       0.000000
      0.001038       0.002701       0.000000
      0.000901       0.003275       0.000000
      0.001003       0.003334       0.000000
      0.001144       0.002711       0.000000
      0.000966       0.002081       0.000000
      0.001144       0.002711       0.000000
      0.001257       0.002724       0.000000
      0.001067       0.002040       0.000000
      0.001144       0.002711       0.000000
      0.001003       0.003334       0.000000
      0.001108       0.003404       0.000000
      0.001257       0.002724       0.000000
      0.000901       0.003275       0.000000
      0.000593       0.003857       0.000000
      0.000686       0.003979       0.000000
      0.001003       0.003334       0.000000
      0.000593       0.003857       0.000000
      0.000305       0.004379       0.000000
      0.000399       0.004574       0.000000
      0.000686       0.003979       0.000000
      0.001003       0.003334       0.000000
      0.000686       0.003979       0.000000
      0.000781       0.004130       0.000000
      0.001108       0.003404       0.000000
      0.000686       0.003979       0.000000
      0.000399       0.004574       0.000000
      0.000510       0.004836       0.000000
      0.000781       0.004130       0.000000
      0.000278       0.000579       0.000000
      0.000675       0.001299       0.000000
      0.000736       0.001209       0.000000
      0.000226       0.000317       0.000000
      0.000675       0.001299       0.000000
      0.001067       0.002040       0.000000
      0.001163       0.002024       0.000000
      0.000736       0.001209       0.000000
      0.000226       0.000317       0.000000
      0.000736       0.001209       0.000000
      0.000788       0.001166       0.000000
      0.000000       0.000000       0.000000
      0.000736       0.001209       0.000000
      0.001163       0.002024       0.000000
      0.001249       0.002053       0.000000
      0.000788       0.001166       0.000000
      0.001067       0.002040       0.000000
      0.001257       0.002724       0.000000
      0.001373       0.002737       0.000000
      0.001163       0.002024       0.000000
      0.001257       0.002724       0.000000
      0.001108       0.003404       0.000000
      0.001211       0.003453       0.000000
      0.001373       0.002737       0.000000
      0.001163       0.002024       0.000000
      0.001373       0.002737       0.000000
      0.001478       0.002747       0.000000
      0.001249       0.002053       0.000000
      0.001373       0.002737       0.000000
      0.001211       0.003453       0.000000
      0.001308       0.003455       0.000000
      0.001478       0.002747       0.000000
      0.001108       0.003404       0.000000
      0.000781       0.004130       0.000000
      0.000877       0.004274       0.000000
      0.001211       0.003453       0.000000
      0.000781       0.004130       0.000000
      0.000510       0.004836       0.000000
      0.000652       0.005145       0.000000
      0.000877       0.004274       0.000000
      0.001211       0.003453       0.000000
      0.000877       0.004274       0.000000
      0.000986       0.004400       0.000000
      0.001308       0.003455       0.000000
      0.000877       0.004274       0.000000
      0.000652       0.005145       0.000000
      0.000845       0.005512       0.000000
      0.000986       0.004400       0.000000
     -0.000837       0.000685       0.000000
     -0.000577       0.000370       0.000000
     -0.000309       0.000437       0.000000
     -0.000534       0.000876       0.000000
     -0.000577       0.000370       0.000000
     -0.000351       0.000183       0.000000
     -0.000195       0.000157       0.000000
     -0.000309       0.000437       0.000000
     -0.000534       0.000876       0.000000
     -0.000309       0.000437       0.000000
     -0.000183       0.000421       0.000000
     -0.000394       0.000852       0.000000
     -0.000309       0.000437       0.000000
     -0.000195       0.000157       0.000000
     -0.000117       0.000141       0.000000
     -0.000183       0.000421       0.000000
     -0.000351       0.000183       0.000000
     -0.000167       0.000132       0.000000
     -0.000149       0.000114       0.000000
     -0.000195       0.000157       0.000000
     -0.000167       0.000132       0.000000
     -0.000008       0.000209       0.000000
     -0.000107       0.000301       0.000000
     -0.000149       0.000114       0.000000
     -0.000195       0.000157       0.000000
     -0.000149       0.000114       0.000000
     -0.000137       0.000122       0.000000
     -0.000117       0.000141       0.000000
     -0.000149       0.000114       0.000000
     -0.000107       0.000301       0.000000
     -0.000121       0.000340       0.000000
     -0.000137       0.000122       0.000000
     -0.000008       0.000209       0.000000
      0.000150       0.000412       0.000000
      0.000001       0.000650       0.000000
     -0.000107       0.000301       0.000000
      0.000150       0.000412       0.000000
      0.000312       0.000730       0.000000
      0.000190       0.001055       0.000000
      0.000001       0.000650       0.000000
     -0.000107       0.000301       0.000000
      0.000001       0.000650       0.000000
      0.000008       0.000667       0.000000
     -0.000121       0.000340       0.000000
      0.000001       0.000650       0.000000
      0.000190       0.001055       0.000000
      0.000229       0.001003       0.000000
      0.000008       0.000667       0.000000
     -0.000394       0.000852       0.000000
     -0.000183       0.000421       0.000000
     -0.000099       0.000357       0.000000
     -0.000299       0.000743       0.000000
     -0.000183       0.000421       0.000000
     -0.000117       0.000141       0.000000
     -0.000065       0.000117       0.000000
     -0.000099       0.000357       0.000000
     -0.000299       0.000743       0.000000
     -0.000099       0.000357       0.000000
     -0.000038       0.000260       0.000000
     -0.000235       0.000567       0.000000
     -0.000099       0.000357       0.000000
     -0.000065       0.000117       0.000000
     -0.000027       0.000086       0.000000
     -0.000038       0.000260       0.000000
     -0.000117       0.000141       0.000000
     -0.000137       0.000122       0.000000
     -0.000120       0.000116       0.000000
     -0.000065       0.000117       0.000000
     -0.000137       0.000122       0.000000
     -0.000121       0.000340       0.000000
     -0.000107       0.000310       0.000000
     -0.000120       0.000116       0.000000
     -0.000065       0.000117       0.000000
     -0.000120       0.000116       0.000000
     -0.000094       0.000093       0.000000
     -0.000027       0.000086       0.000000
     -0.000120       0.000116       0.000000
     -0.000107       0.000310       0.000000
     -0.000081       0.000232       0.000000
     -0.000094       0.000093       0.000000
     -0.000121       0.000340       0.000000
      0.000008       0.000667       0.000000
      0.000036       0.000563       0.000000
     -0.000107       0.000310       0.000000
      0.000008       0.000667       0.000000
      0.000229       0.001003       0.000000
      0.000270       0.000817       0.000000
      0.000036       0.000563       0.000000
     -0.000107       0.000310       0.000000
      0.000036       0.000563       0.000000
      0.000053       0.000395       0.000000
     -0.000081       0.000232       0.000000
      0.000036       0.000563       0.000000
      0.000270       0.000817       0.000000
      0.000278       0.000579       0.000000
      0.000053       0.000395       0.000000
     -0.000235       0.000567       0.000000
     -0.000038       0.000260       0.000000
     -0.000002       0.000138       0.000000
     -0.000180       0.000319       0.000000
     -0.000038       0.000260       0.000000
     -0.000027       0.000086       0.000000
     -0.000004       0.000048       0.000000
     -0.000002       0.000138       0.000000
     -0.000180       0.000319       0.000000
     -0.000002       0.000138       0.000000
      0.000000       0.000000       0.000000
      0.000000       0.000000       0.000000
     -0.000002       0.000138       0.000000
     -0.000004       0.000048       0.000000
      0.000000       0.000000       0.000000
      0.000000       0.000000       0.000000
     -0.000027       0.000086       0.000000
     -0.000094       0.000093       0.000000
     -0.000058       0.000054       0.000000
     -0.000004       0.000048       0.000000
     -0.000094       0.000093       0.000000
     -0.000081       0.000232       0.000000
     -0.000045       0.000123       0.000000
     -0.000058       0.000054       0.000000
     -0.000004       0.000048       0.000000
     -0.000058       0.000054       0.000000
      0.000000       0.000000       0.000000
      0.000000       0.000000       0.000000
     -0.000058       0.000054       0.000000
     -0.000045       0.000123       0.000000
      0.000000       0.000000       0.000000
      0.000000       0.000000       0.000000
     -0.000081       0.000232       0.000000
      0.000053       0.000395       0.000000
      0.000046       0.000199       0.000000
     -0.000045       0.000123       0.000000
      0.000053       0.000395       0.000000
      0.000278       0.000579       0.000000
      0.000226       0.000317       0.000000
      0.000046       0.000199       0.000000
     -0.000045       0.000123       0.000000
      0.000046       0.000199       0.000000
      0.000000       0.000000       0.000000
      0.000000       0.000000       0.000000
      0.000046       0.000199       0.000000
      0.000226       0.000317       0.000000
      0.000000       0.000000       0.000000
      0.000000       0.000000       0.000000
     -0.000837       0.000685       0.000000
     -0.001119       0.001142       0.000000
     -0.000927       0.001355       0.000000
     -0.000534       0.000876       0.000000
     -0.001119       0.001142       0.000000
     -0.001365       0.001804       0.000000
     -0.001403       0.001964       0.000000
     -0.000927       0.001355       0.000000
     -0.000534       0.000876       0.000000
     -0.000927       0.001355       0.000000
     -0.000811       0.001374       0.000000