# vtk DataFile Version 2.0
time_10.vtk
ASCII
DATASET UNSTRUCTURED_GRID
POINTS   576 float
      0.458579       0.641421       0.000000
      0.497369       0.671659       0.000000
      0.438243       0.730363       0.000000
      0.382149       0.701184       0.000000
      0.497369       0.671659       0.000000
      0.545805       0.692517       0.000000
      0.506084       0.750000       0.000000
      0.438243       0.730363       0.000000
      0.382149       0.701184       0.000000
      0.438243       0.730363       0.000000
      0.380813       0.787383       0.000000
      0.305719       0.760948       0.000000
      0.438243       0.730363       0.000000
      0.506084       0.750000       0.000000
      0.468251       0.804752       0.000000
      0.380813       0.787383       0.000000
      0.545805       0.692517       0.000000
      0.600000       0.700000       0.000000
      0.581017       0.756950       0.000000
      0.506084       0.750000       0.000000
      0.600000       0.700000       0.000000
      0.654195       0.692517       0.000000
      0.656527       0.750000       0.000000
      0.581017       0.756950       0.000000
      0.506084       0.750000       0.000000
      0.581017       0.756950       0.000000
      0.563060       0.810819       0.000000
      0.468251       0.804752       0.000000
      0.581017       0.756950       0.000000
      0.656527       0.750000       0.000000
      0.658747       0.804752       0.000000
      0.563060       0.810819       0.000000
      0.654195       0.692517       0.000000
      0.702631       0.671659       0.000000
      0.725999       0.730363       0.000000
      0.656527       0.750000       0.000000
      0.702631       0.671659       0.000000
      0.741421       0.641421       0.000000
      0.784518       0.701184       0.000000
      0.725999       0.730363       0.000000
      0.656527       0.750000       0.000000
      0.725999       0.730363       0.000000
      0.748697       0.787383       0.000000
      0.658747       0.804752       0.000000
      0.725999       0.730363       0.000000
      0.784518       0.701184       0.000000
      0.827614       0.760948       0.000000
      0.748697       0.787383       0.000000
      0.305719       0.760948       0.000000
      0.380813       0.787383       0.000000
      0.325006       0.842791       0.000000
      0.229289       0.820711       0.000000
      0.380813       0.787383       0.000000
      0.468251       0.804752       0.000000
      0.432173       0.856962       0.000000
      0.325006       0.842791       0.000000
      0.229289       0.820711       0.000000
      0.325006       0.842791       0.000000
      0.270755       0.896655       0.000000
      0.152860       0.880474       0.000000
      0.325006       0.842791       0.000000
      0.432173       0.856962       0.000000
      0.397732       0.906804       0.000000
      0.270755       0.896655       0.000000
      0.468251       0.804752       0.000000
      0.563060       0.810819       0.000000
      0.546050       0.861851       0.000000
      0.432173       0.856962       0.000000
      0.563060       0.810819       0.000000
      0.658747       0.804752       0.000000
      0.660865       0.856962       0.000000
      0.546050       0.861851       0.000000
      0.432173       0.856962       0.000000
      0.546050       0.861851       0.000000
      0.529912       0.910264       0.000000
      0.397732       0.906804       0.000000
      0.546050       0.861851       0.000000
      0.660865       0.856962       0.000000
      0.662887       0.906804       0.000000
      0.529912       0.910264       0.000000
      0.658747       0.804752       0.000000
      0.748697       0.787383       0.000000
      0.770753       0.842791       0.000000
      0.660865       0.856962       0.000000
      0.748697       0.787383       0.000000
      0.827614       0.760948       0.000000
      0.870711       0.820711       0.000000
      0.770753       0.842791       0.000000
      0.660865       0.856962       0.000000
      0.770753       0.842791       0.000000
      0.792195       0.896655       0.000000
      0.662887       0.906804       0.000000
      0.770753       0.842791       0.000000
      0.870711       0.820711       0.000000
      0.913807       0.880474       0.000000
      0.792195       0.896655       0.000000
      0.152860       0.880474       0.000000
      0.270755       0.896655       0.000000
      0.217995       0.949038       0.000000
      0.076430       0.940237       0.000000
      0.270755       0.896655       0.000000
      0.397732       0.906804       0.000000
      0.364819       0.954435       0.000000
      0.217995       0.949038       0.000000
      0.076430       0.940237       0.000000
      0.217995       0.949038       0.000000
      0.166667       1.000000       0.000000
      0.000000       1.000000       0.000000
      0.217995       0.949038       0.000000
      0.364819       0.954435       0.000000
      0.333333       1.000000       0.000000
      0.166667       1.000000       0.000000
      0.397732       0.906804       0.000000
      0.529912       0.910264       0.000000
      0.514582       0.956255       0.000000
      0.364819       0.954435       0.000000
      0.529912       0.910264       0.000000
      0.662887       0.906804       0.000000
      0.664819       0.954435       0.000000
      0.514582       0.956255       0.000000
      0.364819       0.954435       0.000000
      0.514582       0.956255       0.000000
      0.500000       1.000000       0.000000
      0.333333       1.000000       0.000000
      0.514582       0.956255       0.000000
      0.664819       0.954435       0.000000
      0.666667       1.000000       0.000000
      0.500000       1.000000       0.000000
      0.662887       0.906804       0.000000
      0.792195       0.896655       0.000000
      0.813047       0.949038       0.000000
      0.664819       0.954435       0.000000
      0.792195       0.896655       0.000000
      0.913807       0.880474       0.000000
      0.956904       0.940237       0.000000
      0.813047       0.949038       0.000000
      0.664819       0.954435       0.000000
      0.813047       0.949038       0.000000
      0.833333       1.000000       0.000000
      0.666667       1.000000       0.000000
      0.813047       0.949038       0.000000
      0.956904       0.940237       0.000000
      1.000000       1.000000       0.000000
      0.833333       1.000000       0.000000
      0.458579       0.358579       0.000000
      0.428341       0.397369       0.000000
      0.351758       0.356122       0.000000
      0.382149       0.298816       0.000000
      0.428341       0.397369       0.000000
      0.407483       0.445805       0.000000
      0.331305       0.424779       0.000000
      0.351758       0.356122       0.000000
      0.382149       0.298816       0.000000
      0.351758       0.356122       0.000000
      0.277372       0.316058       0.000000
      0.305719       0.239052       0.000000
      0.351758       0.356122       0.000000
      0.331305       0.424779       0.000000
      0.258747       0.404752       0.000000
      0.277372       0.316058       0.000000
      0.407483       0.445805       0.000000
      0.400000       0.500000       0.000000
      0.324066       0.500000       0.000000
      0.331305       0.424779       0.000000
      0.400000       0.500000       0.000000
      0.407483       0.554195       0.000000
      0.331305       0.575221       0.000000
      0.324066       0.500000       0.000000
      0.331305       0.424779       0.000000
      0.324066       0.500000       0.000000
      0.252241       0.500000       0.000000
      0.258747       0.404752       0.000000
      0.324066       0.500000       0.000000
      0.331305       0.575221       0.000000
      0.258747       0.595248       0.000000
      0.252241       0.500000       0.000000
      0.407483       0.554195       0.000000
      0.428341       0.602631       0.000000
      0.351758       0.643878       0.000000
      0.331305       0.575221       0.000000
      0.428341       0.602631       0.000000
      0.458579       0.641421       0.000000
      0.382149       0.701184       0.000000
      0.351758       0.643878       0.000000
      0.331305       0.575221       0.000000
      0.351758       0.643878       0.000000
      0.277372       0.683942       0.000000
      0.258747       0.595248       0.000000
      0.351758       0.643878       0.000000
      0.382149       0.701184       0.000000
      0.305719       0.760948       0.000000
      0.277372       0.683942       0.000000
      0.305719       0.239052       0.000000
      0.277372       0.316058       0.000000
      0.205089       0.277126       0.000000
      0.229289       0.179289       0.000000
      0.277372       0.316058       0.000000
      0.258747       0.404752       0.000000
      0.189557       0.385654       0.000000
      0.205089       0.277126       0.000000
      0.229289       0.179289       0.000000
      0.205089       0.277126       0.000000
      0.134820       0.239280       0.000000
      0.152860       0.119526       0.000000
      0.205089       0.277126       0.000000
      0.189557       0.385654       0.000000
      0.123505       0.367423       0.000000
      0.134820       0.239280       0.000000
      0.258747       0.404752       0.000000
      0.252241       0.500000       0.000000
      0.184198       0.500000       0.000000
      0.189557       0.385654       0.000000
      0.252241       0.500000       0.000000
      0.258747       0.595248       0.000000
      0.189557       0.614346       0.000000
      0.184198       0.500000       0.000000
      0.189557       0.385654       0.000000
      0.184198       0.500000       0.000000
      0.119648       0.500000       0.000000
      0.123505       0.367423       0.000000
[...]
POINT_DATA   576
VECTORS U float 
      0.000363       0.004720       0.000000
      0.000188       0.005064       0.000000
      0.000031       0.004808       0.000000
      0.000242       0.004377       0.000000
      0.000188       0.005064       0.000000
      0.000001       0.005293       0.000000
     -0.000108       0.005193       0.000000
      0.000031       0.004808       0.000000
      0.000242       0.004377       0.000000
      0.000031       0.004808       0.000000
      0.000057       0.004787       0.000000
      0.000308       0.004428       0.000000
      0.000031       0.004808       0.000000
     -0.000108       0.005193       0.000000
     -0.000119       0.005154       0.000000
      0.000057       0.004787       0.000000
      0.000001       0.005293       0.000000
     -0.000193       0.005387       0.000000
     -0.000181       0.005410       0.000000
     -0.000108       0.005193       0.000000
     -0.000193       0.005387       0.000000
     -0.000404       0.005338       0.000000
     -0.000251       0.005372       0.000000
     -0.000181       0.005410       0.000000
     -0.000108       0.005193       0.000000
     -0.000181       0.005410       0.000000
     -0.000180       0.005408       0.000000
     -0.000119       0.005154       0.000000
     -0.000181       0.005410       0.000000
     -0.000251       0.005372       0.000000
     -0.000191       0.005398       0.000000
     -0.000180       0.005408       0.000000
     -0.000404       0.005338       0.000000
     -0.000643       0.005147       0.000000
     -0.000381       0.005085       0.000000
     -0.000251       0.005372       0.000000
     -0.000643       0.005147       0.000000
     -0.000901       0.004829       0.000000
     -0.000608       0.004644       0.000000
     -0.000381       0.005085       0.000000
     -0.000251       0.005372       0.000000
     -0.000381       0.005085       0.000000
     -0.000276       0.005108       0.000000
     -0.000191       0.005398       0.000000
     -0.000381       0.005085       0.000000
     -0.000608       0.004644       0.000000
     -0.000491       0.004676       0.000000
     -0.000276       0.005108       0.000000
      0.000308       0.004428       0.000000
      0.000057       0.004787       0.000000
      0.000118       0.004894       0.000000
      0.000403       0.004624       0.000000
      0.000057       0.004787       0.000000
     -0.000119       0.005154       0.000000
     -0.000099       0.005188       0.000000
      0.000118       0.004894       0.000000
      0.000403       0.004624       0.000000
      0.000118       0.004894       0.000000
      0.000193       0.005075       0.000000
      0.000514       0.004889       0.000000
      0.000118       0.004894       0.000000
     -0.000099       0.005188       0.000000
     -0.000069       0.005278       0.000000
      0.000193       0.005075       0.000000
     -0.000119       0.005154       0.000000
     -0.000180       0.005408       0.000000
     -0.000174       0.005424       0.000000
     -0.000099       0.005188       0.000000
     -0.000180       0.005408       0.000000
     -0.000191       0.005398       0.000000
     -0.000159       0.005432       0.000000
     -0.000174       0.005424       0.000000
     -0.000099       0.005188       0.000000
     -0.000174       0.005424       0.000000
     -0.000167       0.005458       0.000000
     -0.000069       0.005278       0.000000
     -0.000174       0.005424       0.000000
     -0.000159       0.005432       0.000000
     -0.000140       0.005475       0.000000
     -0.000167       0.005458       0.000000
     -0.000191       0.005398       0.000000
     -0.000276       0.005108       0.000000
     -0.000221       0.005177       0.000000
     -0.000159       0.005432       0.000000
     -0.000276       0.005108       0.000000
     -0.000491       0.004676       0.000000
     -0.000428       0.004791       0.000000
     -0.000221       0.005177       0.000000
     -0.000159       0.005432       0.000000
     -0.000221       0.005177       0.000000
     -0.000192       0.005279       0.000000
     -0.000140       0.005475       0.000000
     -0.000221       0.005177       0.000000
     -0.000428       0.004791       0.000000
     -0.000410       0.004974       0.000000
     -0.000192       0.005279       0.000000
      0.000514       0.004889       0.000000
      0.000193       0.005075       0.000000
      0.000284       0.005306       0.000000
      0.000657       0.005200       0.000000
      0.000193       0.005075       0.000000
     -0.000069       0.005278       0.000000
     -0.000031       0.005408       0.000000
      0.000284       0.005306       0.000000
      0.000657       0.005200       0.000000
      0.000284       0.005306       0.000000
      0.000399       0.005572       0.000000
      0.000853       0.005572       0.000000
      0.000284       0.005306       0.000000
     -0.000031       0.005408       0.000000
      0.000019       0.005572       0.000000
      0.000399       0.005572       0.000000
     -0.000069       0.005278       0.000000
     -0.000167       0.005458       0.000000
     -0.000162       0.005509       0.000000
     -0.000031       0.005408       0.000000
     -0.000167       0.005458       0.000000
     -0.000140       0.005475       0.000000
     -0.000130       0.005523       0.000000
     -0.000162       0.005509       0.000000
     -0.000031       0.005408       0.000000
     -0.000162       0.005509       0.000000
     -0.000159       0.005572       0.000000
      0.000019       0.005572       0.000000
     -0.000162       0.005509       0.000000
     -0.000130       0.005523       0.000000
     -0.000126       0.005572       0.000000
     -0.000159       0.005572       0.000000
     -0.000140       0.005475       0.000000
     -0.000192       0.005279       0.000000
     -0.000184       0.005411       0.000000
     -0.000130       0.005523       0.000000
     -0.000192       0.005279       0.000000
     -0.000410       0.004974       0.000000
     -0.000445       0.005235       0.000000
     -0.000184       0.005411       0.000000
     -0.000130       0.005523       0.000000
     -0.000184       0.005411       0.000000
     -0.000197       0.005572       0.000000
     -0.000126       0.005572       0.000000
     -0.000184       0.005411       0.000000
     -0.000445       0.005235       0.000000
     -0.000534       0.005572       0.000000
     -0.000197       0.005572       0.000000
      0.000315       0.000735       0.000000
      0.000480       0.001186       0.000000
      0.000471       0.001546       0.000000
      0.000192       0.001064       0.000000
      0.000480       0.001186       0.000000
      0.000608       0.001831       0.000000
      0.000777       0.002114       0.000000
      0.000471       0.001546       0.000000
      0.000192       0.001064       0.000000
      0.000471       0.001546       0.000000
      0.000538       0.001541       0.000000
      0.000231       0.001013       0.000000
      0.000471       0.001546       0.000000
      0.000777       0.002114       0.000000
      0.000877       0.002142       0.000000
      0.000538       0.001541       0.000000
      0.000608       0.001831       0.000000
      0.000652       0.002708       0.000000
      0.000936       0.002721       0.000000
      0.000777       0.002114       0.000000
      0.000652       0.002708       0.000000
      0.000633       0.003592       0.000000
      0.000809       0.003324       0.000000
      0.000936       0.002721       0.000000
      0.000777       0.002114       0.000000
      0.000936       0.002721       0.000000
      0.001051       0.002730       0.000000
      0.000877       0.002142       0.000000
      0.000936       0.002721       0.000000
      0.000809       0.003324       0.000000
      0.000912       0.003311       0.000000
      0.001051       0.002730       0.000000
      0.000633       0.003592       0.000000
      0.000524       0.004251       0.000000
      0.000521       0.003889       0.000000
      0.000809       0.003324       0.000000
      0.000524       0.004251       0.000000
      0.000363       0.004720       0.000000
      0.000242       0.004377       0.000000
      0.000521       0.003889       0.000000
      0.000809       0.003324       0.000000
      0.000521       0.003889       0.000000
      0.000599       0.003900       0.000000
      0.000912       0.003311       0.000000
      0.000521       0.003889       0.000000
      0.000242       0.004377       0.000000
      0.000308       0.004428       0.000000
      0.000599       0.003900       0.000000
      0.000231       0.001013       0.000000
      0.000538       0.001541       0.000000
      0.000613       0.001434       0.000000
      0.000273       0.000824       0.000000
      0.000538       0.001541       0.000000
      0.000877       0.002142       0.000000
      0.000977       0.002104       0.000000
      0.000613       0.001434       0.000000
      0.000273       0.000824       0.000000
      0.000613       0.001434       0.000000
      0.000683       0.001313       0.000000
      0.000281       0.000585       0.000000
      0.000613       0.001434       0.000000
      0.000977       0.002104       0.000000
      0.001080       0.002062       0.000000
      0.000683       0.001313       0.000000
      0.000877       0.002142       0.000000
      0.001051       0.002730       0.000000
      0.001158       0.002741       0.000000
      0.000977       0.002104       0.000000
      0.001051       0.002730       0.000000
      0.000912       0.003311       0.000000
      0.001015       0.003371       0.000000
      0.001158       0.002741       0.000000
      0.000977       0.002104       0.000000
      0.001158       0.002741       0.000000
      0.001273       0.002754       0.000000
      0.001080       0.002062       0.000000
      0.001158       0.002741       0.000000
      0.001015       0.003371       0.000000
      0.001121       0.003441       0.000000
      0.001273       0.002754       0.000000
      0.000912       0.003311       0.000000
      0.000599       0.003900       0.000000
      0.000693       0.004023       0.000000
      0.001015       0.003371       0.000000
      0.000599       0.003900       0.000000
      0.000308       0.004428       0.000000
      0.000403       0.004624       0.000000
      0.000693       0.004023       0.000000
      0.001015       0.003371       0.000000
      0.000693       0.004023       0.000000
      0.000789       0.004175       0.000000
      0.001121       0.003441       0.000000
      0.000693       0.004023       0.000000
      0.000403       0.004624       0.000000
      0.000514       0.004889       0.000000
      0.000789       0.004175       0.000000
      0.000281       0.000585       0.000000
      0.000683       0.001313       0.000000
      0.000744       0.001222       0.000000
      0.000228       0.000321       0.000000
      0.000683       0.001313       0.000000
      0.001080       0.002062       0.000000
      0.001177       0.002046       0.000000
      0.000744       0.001222       0.000000
      0.000228       0.000321       0.000000
      0.000744       0.001222       0.000000
      0.000796       0.001180       0.000000
      0.000000       0.000000       0.000000
      0.000744       0.001222       0.000000
      0.001177       0.002046       0.000000
      0.001264       0.002076       0.000000
      0.000796       0.001180       0.000000
      0.001080       0.002062       0.000000
      0.001273       0.002754       0.000000
      0.001389       0.002766       0.000000
      0.001177       0.002046       0.000000
      0.001273       0.002754       0.000000
      0.001121       0.003441       0.000000
      0.001225       0.003490       0.000000
      0.001389       0.002766       0.000000
      0.001177       0.002046       0.000000
      0.001389       0.002766       0.000000
      0.001495       0.002776       0.000000
      0.001264       0.002076       0.000000
      0.001389       0.002766       0.000000
      0.001225       0.003490       0.000000
      0.001323       0.003491       0.000000
      0.001495       0.002776       0.000000
      0.001121       0.003441       0.000000
      0.000789       0.004175       0.000000
      0.000886       0.004320       0.000000
      0.001225       0.003490       0.000000
      0.000789       0.004175       0.000000
      0.000514       0.004889       0.000000
      0.000657       0.005200       0.000000
      0.000886       0.004320       0.000000
      0.001225       0.003490       0.000000
      0.000886       0.004320       0.000000
      0.000996       0.004447       0.000000
      0.001323       0.003491       0.000000
      0.000886       0.004320       0.000000
      0.000657       0.005200       0.000000
      0.000853       0.005572       0.000000
      0.000996       0.004447       0.000000
     -0.000846       0.000690       0.000000
     -0.000583       0.000373       0.000000
     -0.000312       0.000440       0.000000
     -0.000539       0.000883       0.000000
     -0.000583       0.000373       0.000000
     -0.000354       0.000184       0.000000
     -0.000197       0.000158       0.000000
     -0.000312       0.000440       0.000000
     -0.000539       0.000883       0.000000
     -0.000312       0.000440       0.000000
     -0.000184       0.000424       0.000000
     -0.000398       0.000860       0.000000
     -0.000312       0.000440       0.000000
     -0.000197       0.000158       0.000000
     -0.000118       0.000141       0.000000
     -0.000184       0.000424       0.000000
     -0.000354       0.000184       0.000000
     -0.000169       0.000132       0.000000
     -0.000150       0.000115       0.000000
     -0.000197       0.000158       0.000000
     -0.000169       0.000132       0.000000
     -0.000008       0.000210       0.000000
     -0.000107       0.000303       0.000000
     -0.000150       0.000115       0.000000
     -0.000197       0.000158       0.000000
     -0.000150       0.000115       0.000000
     -0.000139       0.000123       0.000000
     -0.000118       0.000141       0.000000
     -0.000150       0.000115       0.000000
     -0.000107       0.000303       0.000000
     -0.000122       0.000342       0.000000
     -0.000139       0.000123       0.000000
     -0.000008       0.000210       0.000000
      0.000151       0.000415       0.000000
      0.000001       0.000655       0.000000
     -0.000107       0.000303       0.000000
      0.000151       0.000415       0.000000
      0.000315       0.000735       0.000000
      0.000192       0.001064       0.000000
      0.000001       0.000655       0.000000
     -0.000107       0.000303       0.000000
      0.000001       0.000655       0.000000
      0.000008       0.000673       0.000000
     -0.000122       0.000342       0.000000
      0.000001       0.000655       0.000000
      0.000192       0.001064       0.000000
      0.000231       0.001013       0.000000
      0.000008       0.000673       0.000000
     -0.000398       0.000860       0.000000
     -0.000184       0.000424       0.000000
     -0.000099       0.000360       0.000000
     -0.000301       0.000750       0.000000
     -0.000184       0.000424       0.000000
     -0.000118       0.000141       0.000000
     -0.000065       0.000118       0.000000
     -0.000099       0.000360       0.000000
     -0.000301       0.000750       0.000000
     -0.000099       0.000360       0.000000
     -0.000038       0.000262       0.000000
     -0.000237       0.000572       0.000000
     -0.000099       0.000360       0.000000
     -0.000065       0.000118       0.000000
     -0.000027       0.000087       0.000000
     -0.000038       0.000262       0.000000
     -0.000118       0.000141       0.000000
     -0.000139       0.000123       0.000000
     -0.000121       0.000117       0.000000
     -0.000065       0.000118       0.000000
     -0.000139       0.000123       0.000000
     -0.000122       0.000342       0.000000
     -0.000108       0.000313       0.000000
     -0.000121       0.000117       0.000000
     -0.000065       0.000118       0.000000
     -0.000121       0.000117       0.000000
     -0.000095       0.000094       0.000000
     -0.000027       0.000087       0.000000
     -0.000121       0.000117       0.000000
     -0.000108       0.000313       0.000000
     -0.000081       0.000234       0.000000
     -0.000095       0.000094       0.000000
     -0.000122       0.000342       0.000000
      0.000008       0.000673       0.000000
      0.000036       0.000568       0.000000
     -0.000108       0.000313       0.000000
      0.000008       0.000673       0.000000
      0.000231       0.001013       0.000000
      0.000273       0.000824       0.000000
      0.000036       0.000568       0.000000
     -0.000108       0.000313       0.000000
      0.000036       0.000568       0.000000
      0.000054       0.000398       0.000000
     -0.000081       0.000234       0.000000
      0.000036       0.000568       0.000000
      0.000273       0.000824       0.000000
      0.000281       0.000585       0.000000
      0.000054       0.000398       0.000000
     -0.000237       0.000572       0.000000
     -0.000038       0.000262       0.000000
     -0.000002       0.000139       0.000000
     -0.000182       0.000322       0.000000
     -0.000038       0.000262       0.000000
     -0.000027       0.000087       0.000000
     -0.000004       0.000048       0.000000
     -0.000002       0.000139       0.000000
     -0.000182       0.000322       0.000000
     -0.000002       0.000139       0.000000
      0.000000       0.000000       0.000000
      0.000000       0.000000       0.000000
     -0.000002       0.000139       0.000000
     -0.000004       0.000048       0.000000
      0.000000       0.000000       0.000000
      0.000000       0.000000       0.000000
     -0.000027       0.000087       0.000000
     -0.000095       0.000094       0.000000
     -0.000058       0.000054       0.000000
     -0.000004       0.000048       0.000000
     -0.000095       0.000094       0.000000
     -0.000081       0.000234       0.000000
     -0.000045       0.000124       0.000000
     -0.000058       0.000054       0.000000
     -0.000004       0.000048       0.000000
     -0.000058       0.000054       0.000000
      0.000000       0.000000       0.000000
      0.000000       0.000000       0.000000
     -0.000058       0.000054       0.000000
     -0.000045       0.000124       0.000000
      0.000000       0.000000       0.000000
      0.000000       0.000000       0.000000
     -0.000081       0.000234       0.000000
      0.000054       0.000398       0.000000
      0.000047       0.000201       0.000000
     -0.000045       0.000124       0.000000
      0.000054       0.000398       0.000000
      0.000281       0.000585       0.000000
      0.000228       0.000321       0.000000
      0.000047       0.000201       0.000000
     -0.000045       0.000124       0.000000
      0.000047       0.000201       0.000000
      0.000000       0.000000       0.000000
      0.000000       0.000000       0.000000
      0.000047       0.000201       0.000000
      0.000228       0.000321       0.000000
      0.000000       0.000000       0.000000
      0.000000       0.000000       0.000000
     -0.000846       0.000690       0.000000
     -0.001131       0.001150       0.000000
     -0.000937       0.001367       0.000000
     -0.000539       0.000883       0.000000
     -0.001131       0.001150       0.000000
     -0.001380       0.001819       0.000000
     -0.001419       0.001982       0.000000
     -0.000937       0.001367       0.000000
     -0.000539       0.000883       0.000000
     -0.000937       0.001367       0.000000
     -0.000819       0.001387       0.000000