# vtk DataFile Version 2.0
time_10.vtk
ASCII
DATASET UNSTRUCTURED_GRID
POINTS   576 float
      0.458579       0.641421       0.000000
      0.497369       0.671659       0.000000
      0.438243       0.730363       0.000000
      0.382149       0.701184       0.000000
      0.497369       0.671659       0.000000
      0.545805       0.692517       0.000000
      0.506084       0.750000       0.000000
      0.438243       0.730363       0.000000
      0.382149       0.701184       0.000000
      0.438243       0.730363       0.000000
      0.380813       0.787383       0.000000
      0.305719       0.760948       0.000000
      0.438243       0.730363       0.000000
      0.506084       0.750000       0.000000
      0.468251       0.804752       0.000000
      0.380813       0.787383       0.000000
      0.545805       0.692517       0.000000
      0.600000       0.700000       0.000000
      0.581017       0.756950       0.000000
      0.506084       0.750000       0.000000
      0.600000       0.700000       0.000000
      0.654195       0.692517       0.000000
      0.656527       0.750000       0.000000
      0.581017       0.756950       0.000000
      0.506084       0.750000       0.000000
      0.581017       0.756950       0.000000
      0.563060       0.810819       0.000000
      0.468251       0.804752       0.000000
      0.581017       0.756950       0.000000
      0.656527       0.750000       0.000000
      0.658747       0.804752       0.000000
      0.563060       0.810819       0.000000
      0.654195       0.692517       0.000000
      0.702631       0.671659       0.000000
      0.725999       0.730363       0.000000
      0.656527       0.750000       0.000000
      0.702631       0.671659       0.000000
      0.741421       0.641421       0.000000
      0.784518       0.701184       0.000000
      0.725999       0.730363       0.000000
      0.656527       0.750000       0.000000
      0.725999       0.730363       0.000000
      0.748697       0.787383       0.000000
      0.658747       0.804752       0.000000
      0.725999       0.730363       0.000000
      0.784518       0.701184       0.000000
      0.827614       0.760948       0.000000
      0.748697       0.787383       0.000000
      0.305719       0.760948       0.000000
      0.380813       0.787383       0.000000
      0.325006       0.842791       0.000000
      0.229289       0.820711       0.000000
      0.380813       0.787383       0.000000
      0.468251       0.804752       0.000000
      0.432173       0.856962       0.000000
      0.325006       0.842791       0.000000
      0.229289       0.820711       0.000000
      0.325006       0.842791       0.000000
      0.270755       0.896655       0.000000
      0.152860       0.880474       0.000000
      0.325006       0.842791       0.000000
      0.432173       0.856962       0.000000
      0.397732       0.906804       0.000000
      0.270755       0.896655       0.000000
      0.468251       0.804752       0.000000
      0.563060       0.810819       0.000000
      0.546050       0.861851       0.000000
      0.432173       0.856962       0.000000
      0.563060       0.810819       0.000000
      0.658747       0.804752       0.000000
      0.660865       0.856962       0.000000
      0.546050       0.861851       0.000000
      0.432173       0.856962       0.000000
      0.546050       0.861851       0.000000
      0.529912       0.910264       0.000000
      0.397732       0.906804       0.000000
      0.546050       0.861851       0.000000
      0.660865       0.856962       0.000000
      0.662887       0.906804       0.000000
      0.529912       0.910264       0.000000
      0.658747       0.804752       0.000000
      0.748697       0.787383       0.000000
      0.770753       0.842791       0.000000
      0.660865       0.856962       0.000000
      0.748697       0.787383       0.000000
      0.827614       0.760948       0.000000
      0.870711       0.820711       0.000000
      0.770753       0.842791       0.000000
      0.660865       0.856962       0.000000
      0.770753       0.842791       0.000000
      0.792195       0.896655       0.000000
      0.662887       0.906804       0.000000
      0.770753       0.842791       0.000000
      0.870711       0.820711       0.000000
      0.913807       0.880474       0.000000
      0.792195       0.896655       0.000000
      0.152860       0.880474       0.000000
      0.270755       0.896655       0.000000
      0.217995       0.949038       0.000000
      0.076430       0.940237       0.000000
      0.270755       0.896655       0.000000
      0.397732       0.906804       0.000000
      0.364819       0.954435       0.000000
      0.217995       0.949038       0.000000
      0.076430       0.940237       0.000000
      0.217995       0.949038       0.000000
      0.166667       1.000000       0.000000
      0.000000       1.000000       0.000000
      0.217995       0.949038       0.000000
      0.364819       0.954435       0.000000
      0.333333       1.000000       0.000000
      0.166667       1.000000       0.000000
      0.397732       0.906804       0.000000
      0.529912       0.910264       0.000000
      0.514582       0.956255       0.000000
      0.364819       0.954435       0.000000
      0.529912       0.910264       0.000000
      0.662887       0.906804       0.000000
      0.664819       0.954435       0.000000
      0.514582       0.956255       0.000000
      0.364819       0.954435       0.000000
      0.514582       0.956255       0.000000
      0.500000       1.000000       0.000000
      0.333333       1.000000       0.000000
      0.514582       0.956255       0.000000
      0.664819       0.954435       0.000000
      0.666667       1.000000       0.000000
      0.500000       1.000000       0.000000
      0.662887       0.906804       0.000000
      0.792195       0.896655       0.000000
      0.813047       0.949038       0.000000
      0.664819       0.954435       0.000000
      0.792195       0.896655       0.000000
      0.913807       0.880474       0.000000
      0.956904       0.940237       0.000000
      0.813047       0.949038       0.000000
      0.664819       0.954435       0.000000
      0.813047       0.949038       0.000000
      0.833333       1.000000       0.000000
      0.666667       1.000000       0.000000
      0.813047       0.949038       0.000000
      0.956904       0.940237       0.000000
      1.000000       1.000000       0.000000
      0.833333       1.000000       0.000000
      0.458579       0.358579       0.000000
      0.428341       0.397369       0.000000
      0.351758       0.356122       0.000000
      0.382149       0.298816       0.000000
      0.428341       0.397369       0.000000
      0.407483       0.445805       0.000000
      0.331305       0.424779       0.000000
      0.351758       0.356122       0.000000
      0.382149       0.298816       0.000000
      0.351758       0.356122       0.000000
      0.277372       0.316058       0.000000
      0.305719       0.239052       0.000000
      0.351758       0.356122       0.000000
      0.331305       0.424779       0.000000
      0.258747       0.404752       0.000000
      0.277372       0.316058       0.000000
      0.407483       0.445805       0.000000
      0.400000       0.500000       0.000000
      0.324066       0.500000       0.000000
      0.331305       0.424779       0.000000
      0.400000       0.500000       0.000000
      0.407483       0.554195       0.000000
      0.331305       0.575221       0.000000
      0.324066       0.500000       0.000000
      0.331305       0.424779       0.000000
      0.324066       0.500000       0.000000
      0.252241       0.500000       0.000000
      0.258747       0.404752       0.000000
      0.324066       0.500000       0.000000
      0.331305       0.575221       0.000000
      0.258747       0.595248       0.000000
      0.252241       0.500000       0.000000
      0.407483       0.554195       0.000000
      0.428341       0.602631       0.000000
      0.351758       0.643878       0.000000
      0.331305       0.575221       0.000000
      0.428341       0.602631       0.000000
      0.458579       0.641421       0.000000
      0.382149       0.701184       0.000000
      0.351758       0.643878       0.000000
      0.331305       0.575221       0.000000
      0.351758       0.643878       0.000000
      0.277372       0.683942       0.000000
      0.258747       0.595248       0.000000
      0.351758       0.643878       0.000000
      0.382149       0.701184       0.000000
      0.305719       0.760948       0.000000
      0.277372       0.683942       0.000000
      0.305719       0.239052       0.000000
      0.277372       0.316058       0.000000
      0.205089       0.277126       0.000000
      0.229289       0.179289       0.000000
      0.277372       0.316058       0.000000
      0.258747       0.404752       0.000000
      0.189557       0.385654       0.000000
      0.205089       0.277126       0.000000
      0.229289       0.179289       0.000000
      0.205089       0.277126       0.000000
      0.134820       0.239280       0.000000
      0.152860       0.119526       0.000000
      0.205089       0.277126       0.000000
      0.189557       0.385654       0.000000
      0.123505       0.367423       0.000000
      0.134820       0.239280       0.000000
      0.258747       0.404752       0.000000
      0.252241       0.500000       0.000000
      0.184198       0.500000       0.000000
      0.189557       0.385654       0.000000
      0.252241       0.500000       0.000000
      0.258747       0.595248       0.000000
      0.189557       0.614346       0.000000
      0.184198       0.500000       0.000000
      0.189557       0.385654       0.000000
      0.184198       0.500000       0.000000
      0.119648       0.500000       0.000000
      0.123505       0.367423       0.000000
[...]
POINT_DATA   576
VECTORS U float 
      0.000402       0.005219       0.000000
      0.000207       0.005586       0.000000
      0.000035       0.005309       0.000000
      0.000264       0.004840       0.000000
      0.000207       0.005586       0.000000
      0.000003       0.005831       0.000000
     -0.000116       0.005724       0.000000
      0.000035       0.005309       0.000000
      0.000264       0.004840       0.000000
      0.000035       0.005309       0.000000
      0.000059       0.005281       0.000000
      0.000332       0.004885       0.000000
      0.000035       0.005309       0.000000
     -0.000116       0.005724       0.000000
     -0.000130       0.005679       0.000000
      0.000059       0.005281       0.000000
      0.000003       0.005831       0.000000
     -0.000208       0.005931       0.000000
     -0.000195       0.005957       0.000000
     -0.000116       0.005724       0.000000
     -0.000208       0.005931       0.000000
     -0.000438       0.005880       0.000000
     -0.000272       0.005917       0.000000
     -0.000195       0.005957       0.000000
     -0.000116       0.005724       0.000000
     -0.000195       0.005957       0.000000
     -0.000194       0.005954       0.000000
     -0.000130       0.005679       0.000000
     -0.000195       0.005957       0.000000
     -0.000272       0.005917       0.000000
     -0.000205       0.005943       0.000000
     -0.000194       0.005954       0.000000
     -0.000438       0.005880       0.000000
     -0.000698       0.005677       0.000000
     -0.000412       0.005609       0.000000
     -0.000272       0.005917       0.000000
     -0.000698       0.005677       0.000000
     -0.000984       0.005339       0.000000
     -0.000659       0.005134       0.000000
     -0.000412       0.005609       0.000000
     -0.000272       0.005917       0.000000
     -0.000412       0.005609       0.000000
     -0.000296       0.005631       0.000000
     -0.000205       0.005943       0.000000
     -0.000412       0.005609       0.000000
     -0.000659       0.005134       0.000000
     -0.000526       0.005161       0.000000
     -0.000296       0.005631       0.000000
      0.000332       0.004885       0.000000
      0.000059       0.005281       0.000000
      0.000122       0.005392       0.000000
      0.000433       0.005090       0.000000
      0.000059       0.005281       0.000000
     -0.000130       0.005679       0.000000
     -0.000111       0.005714       0.000000
      0.000122       0.005392       0.000000
      0.000433       0.005090       0.000000
      0.000122       0.005392       0.000000
      0.000200       0.005585       0.000000
      0.000551       0.005374       0.000000
      0.000122       0.005392       0.000000
     -0.000111       0.005714       0.000000
     -0.000080       0.005808       0.000000
      0.000200       0.005585       0.000000
     -0.000130       0.005679       0.000000
     -0.000194       0.005954       0.000000
     -0.000188       0.005968       0.000000
     -0.000111       0.005714       0.000000
     -0.000194       0.005954       0.000000
     -0.000205       0.005943       0.000000
     -0.000170       0.005978       0.000000
     -0.000188       0.005968       0.000000
     -0.000111       0.005714       0.000000
     -0.000188       0.005968       0.000000
     -0.000182       0.006004       0.000000
     -0.000080       0.005808       0.000000
     -0.000188       0.005968       0.000000
     -0.000170       0.005978       0.000000
     -0.000149       0.006022       0.000000
     -0.000182       0.006004       0.000000
     -0.000205       0.005943       0.000000
     -0.000296       0.005631       0.000000
     -0.000233       0.005702       0.000000
     -0.000170       0.005978       0.000000
     -0.000296       0.005631       0.000000
     -0.000526       0.005161       0.000000
     -0.000454       0.005279       0.000000
     -0.000233       0.005702       0.000000
     -0.000170       0.005978       0.000000
     -0.000233       0.005702       0.000000
     -0.000200       0.005809       0.000000
     -0.000149       0.006022       0.000000
     -0.000233       0.005702       0.000000
     -0.000454       0.005279       0.000000
     -0.000434       0.005474       0.000000
     -0.000200       0.005809       0.000000
      0.000551       0.005374       0.000000
      0.000200       0.005585       0.000000
      0.000297       0.005832       0.000000
      0.000706       0.005712       0.000000
      0.000200       0.005585       0.000000
     -0.000080       0.005808       0.000000
     -0.000040       0.005947       0.000000
      0.000297       0.005832       0.000000
      0.000706       0.005712       0.000000
      0.000297       0.005832       0.000000
      0.000422       0.006122       0.000000
      0.000922       0.006122       0.000000
      0.000297       0.005832       0.000000
     -0.000040       0.005947       0.000000
      0.000012       0.006122       0.000000
      0.000422       0.006122       0.000000
     -0.000080       0.005808       0.000000
     -0.000182       0.006004       0.000000
     -0.000177       0.006056       0.000000
     -0.000040       0.005947       0.000000
     -0.000182       0.006004       0.000000
     -0.000149       0.006022       0.000000
     -0.000137       0.006071       0.000000
     -0.000177       0.006056       0.000000
     -0.000040       0.005947       0.000000
     -0.000177       0.006056       0.000000
     -0.000174       0.006122       0.000000
      0.000012       0.006122       0.000000
     -0.000177       0.006056       0.000000
     -0.000137       0.006071       0.000000
     -0.000133       0.006122       0.000000
     -0.000174       0.006122       0.000000
     -0.000149       0.006022       0.000000
     -0.000200       0.005809       0.000000
     -0.000191       0.005949       0.000000
     -0.000137       0.006071       0.000000
     -0.000200       0.005809       0.000000
     -0.000434       0.005474       0.000000
     -0.000472       0.005756       0.000000
     -0.000191       0.005949       0.000000
     -0.000137       0.006071       0.000000
     -0.000191       0.005949       0.000000
     -0.000204       0.006122       0.000000
     -0.000133       0.006122       0.000000
     -0.000191       0.005949       0.000000
     -0.000472       0.005756       0.000000
     -0.000568       0.006122       0.000000
     -0.000204       0.006122       0.000000
      0.000351       0.000779       0.000000
      0.000536       0.001261       0.000000
      0.000519       0.001667       0.000000
      0.000212       0.001141       0.000000
      0.000536       0.001261       0.000000
      0.000680       0.001959       0.000000
      0.000865       0.002299       0.000000
      0.000519       0.001667       0.000000
      0.000212       0.001141       0.000000
      0.000519       0.001667       0.000000
      0.000592       0.001675       0.000000
      0.000252       0.001094       0.000000
      0.000519       0.001667       0.000000
      0.000865       0.002299       0.000000
      0.000976       0.002345       0.000000
      0.000592       0.001675       0.000000
      0.000680       0.001959       0.000000
      0.000717       0.002976       0.000000
      0.001052       0.002990       0.000000
      0.000865       0.002299       0.000000
      0.000717       0.002976       0.000000
      0.000708       0.004003       0.000000
      0.000900       0.003678       0.000000
      0.001052       0.002990       0.000000
      0.000865       0.002299       0.000000
      0.001052       0.002990       0.000000
      0.001178       0.003000       0.000000
      0.000976       0.002345       0.000000
      0.001052       0.002990       0.000000
      0.000900       0.003678       0.000000
      0.001013       0.003647       0.000000
      0.001178       0.003000       0.000000
      0.000708       0.004003       0.000000
      0.000583       0.004716       0.000000
      0.000572       0.004306       0.000000
      0.000900       0.003678       0.000000
      0.000583       0.004716       0.000000
      0.000402       0.005219       0.000000
      0.000264       0.004840       0.000000
      0.000572       0.004306       0.000000
      0.000900       0.003678       0.000000
      0.000572       0.004306       0.000000
      0.000656       0.004303       0.000000
      0.001013       0.003647       0.000000
      0.000572       0.004306       0.000000
      0.000264       0.004840       0.000000
      0.000332       0.004885       0.000000
      0.000656       0.004303       0.000000
      0.000252       0.001094       0.000000
      0.000592       0.001675       0.000000
      0.000675       0.001566       0.000000
      0.000296       0.000895       0.000000
      0.000592       0.001675       0.000000
      0.000976       0.002345       0.000000
      0.001086       0.002309       0.000000
      0.000675       0.001566       0.000000
      0.000296       0.000895       0.000000
      0.000675       0.001566       0.000000
      0.000751       0.001440       0.000000
      0.000304       0.000637       0.000000
      0.000675       0.001566       0.000000
      0.001086       0.002309       0.000000
      0.001198       0.002266       0.000000
      0.000751       0.001440       0.000000
      0.000976       0.002345       0.000000
      0.001178       0.003000       0.000000
      0.001293       0.003011       0.000000
      0.001086       0.002309       0.000000
      0.001178       0.003000       0.000000
      0.001013       0.003647       0.000000
      0.001126       0.003705       0.000000
      0.001293       0.003011       0.000000
      0.001086       0.002309       0.000000
      0.001293       0.003011       0.000000
      0.001417       0.003024       0.000000
      0.001198       0.002266       0.000000
      0.001293       0.003011       0.000000
      0.001126       0.003705       0.000000
      0.001241       0.003777       0.000000
      0.001417       0.003024       0.000000
      0.001013       0.003647       0.000000
      0.000656       0.004303       0.000000
      0.000759       0.004428       0.000000
      0.001126       0.003705       0.000000
      0.000656       0.004303       0.000000
      0.000332       0.004885       0.000000
      0.000433       0.005090       0.000000
      0.000759       0.004428       0.000000
      0.001126       0.003705       0.000000
      0.000759       0.004428       0.000000
      0.000862       0.004587       0.000000
      0.001241       0.003777       0.000000
      0.000759       0.004428       0.000000
      0.000433       0.005090       0.000000
      0.000551       0.005374       0.000000
      0.000862       0.004587       0.000000
      0.000304       0.000637       0.000000
      0.000751       0.001440       0.000000
      0.000816       0.001345       0.000000
      0.000246       0.000350       0.000000
      0.000751       0.001440       0.000000
      0.001198       0.002266       0.000000
      0.001304       0.002252       0.000000
      0.000816       0.001345       0.000000
      0.000246       0.000350       0.000000
      0.000816       0.001345       0.000000
      0.000874       0.001302       0.000000
      0.000000       0.000000       0.000000
      0.000816       0.001345       0.000000
      0.001304       0.002252       0.000000
      0.001397       0.002289       0.000000
      0.000874       0.001302       0.000000
      0.001198       0.002266       0.000000
      0.001417       0.003024       0.000000
      0.001543       0.003037       0.000000
      0.001304       0.002252       0.000000
      0.001417       0.003024       0.000000
      0.001241       0.003777       0.000000
      0.001354       0.003826       0.000000
      0.001543       0.003037       0.000000
      0.001304       0.002252       0.000000
      0.001543       0.003037       0.000000
      0.001658       0.003047       0.000000
      0.001397       0.002289       0.000000
      0.001543       0.003037       0.000000
      0.001354       0.003826       0.000000
      0.001459       0.003822       0.000000
      0.001658       0.003047       0.000000
      0.001241       0.003777       0.000000
      0.000862       0.004587       0.000000
      0.000966       0.004739       0.000000
      0.001354       0.003826       0.000000
      0.000862       0.004587       0.000000
      0.000551       0.005374       0.000000
      0.000706       0.005712       0.000000
      0.000966       0.004739       0.000000
      0.001354       0.003826       0.000000
      0.000966       0.004739       0.000000
      0.001085       0.004874       0.000000
      0.001459       0.003822       0.000000
      0.000966       0.004739       0.000000
      0.000706       0.005712       0.000000
      0.000922       0.006122       0.000000
      0.001085       0.004874       0.000000
     -0.000924       0.000727       0.000000
     -0.000634       0.000390       0.000000
     -0.000338       0.000464       0.000000
     -0.000584       0.000941       0.000000
     -0.000634       0.000390       0.000000
     -0.000383       0.000191       0.000000
     -0.000212       0.000162       0.000000
     -0.000338       0.000464       0.000000
     -0.000584       0.000941       0.000000
     -0.000338       0.000464       0.000000
     -0.000197       0.000449       0.000000
     -0.000426       0.000923       0.000000
     -0.000338       0.000464       0.000000
     -0.000212       0.000162       0.000000
     -0.000127       0.000146       0.000000
     -0.000197       0.000449       0.000000
     -0.000383       0.000191       0.000000
     -0.000181       0.000136       0.000000
     -0.000161       0.000117       0.000000
     -0.000212       0.000162       0.000000
     -0.000181       0.000136       0.000000
     -0.000006       0.000220       0.000000
     -0.000113       0.000319       0.000000
     -0.000161       0.000117       0.000000
     -0.000212       0.000162       0.000000
     -0.000161       0.000117       0.000000
     -0.000148       0.000126       0.000000
     -0.000127       0.000146       0.000000
     -0.000161       0.000117       0.000000
     -0.000113       0.000319       0.000000
     -0.000130       0.000363       0.000000
     -0.000148       0.000126       0.000000
     -0.000006       0.000220       0.000000
      0.000169       0.000438       0.000000
      0.000004       0.000697       0.000000
     -0.000113       0.000319       0.000000
      0.000169       0.000438       0.000000
      0.000351       0.000779       0.000000
      0.000212       0.001141       0.000000
      0.000004       0.000697       0.000000
     -0.000113       0.000319       0.000000
      0.000004       0.000697       0.000000
      0.000009       0.000720       0.000000
     -0.000130       0.000363       0.000000
      0.000004       0.000697       0.000000
      0.000212       0.001141       0.000000
      0.000252       0.001094       0.000000
      0.000009       0.000720       0.000000
     -0.000426       0.000923       0.000000
     -0.000197       0.000449       0.000000
     -0.000104       0.000383       0.000000
     -0.000320       0.000809       0.000000
     -0.000197       0.000449       0.000000
     -0.000127       0.000146       0.000000
     -0.000069       0.000123       0.000000
     -0.000104       0.000383       0.000000
     -0.000320       0.000809       0.000000
     -0.000104       0.000383       0.000000
     -0.000038       0.000280       0.000000
     -0.000251       0.000619       0.000000
     -0.000104       0.000383       0.000000
     -0.000069       0.000123       0.000000
     -0.000028       0.000091       0.000000
     -0.000038       0.000280       0.000000
     -0.000127       0.000146       0.000000
     -0.000148       0.000126       0.000000
     -0.000129       0.000122       0.000000
     -0.000069       0.000123       0.000000
     -0.000148       0.000126       0.000000
     -0.000130       0.000363       0.000000
     -0.000116       0.000332       0.000000
     -0.000129       0.000122       0.000000
     -0.000069       0.000123       0.000000
     -0.000129       0.000122       0.000000
     -0.000102       0.000098       0.000000
     -0.000028       0.000091       0.000000
     -0.000129       0.000122       0.000000
     -0.000116       0.000332       0.000000
     -0.000089       0.000249       0.000000
     -0.000102       0.000098       0.000000
     -0.000130       0.000363       0.000000
      0.000009       0.000720       0.000000
      0.000038       0.000610       0.000000
     -0.000116       0.000332       0.000000
      0.000009       0.000720       0.000000
      0.000252       0.001094       0.000000
      0.000296       0.000895       0.000000
      0.000038       0.000610       0.000000
     -0.000116       0.000332       0.000000
      0.000038       0.000610       0.000000
      0.000056       0.000429       0.000000
     -0.000089       0.000249       0.000000
      0.000038       0.000610       0.000000
      0.000296       0.000895       0.000000
      0.000304       0.000637       0.000000
      0.000056       0.000429       0.000000
     -0.000251       0.000619       0.000000
     -0.000038       0.000280       0.000000
     -0.000000       0.000149       0.000000
     -0.000194       0.000347       0.000000
     -0.000038       0.000280       0.000000
     -0.000028       0.000091       0.000000
     -0.000003       0.000051       0.000000
     -0.000000       0.000149       0.000000
     -0.000194       0.000347       0.000000
     -0.000000       0.000149       0.000000
      0.000000       0.000000       0.000000
      0.000000       0.000000       0.000000
     -0.000000       0.000149       0.000000
     -0.000003       0.000051       0.000000
      0.000000       0.000000       0.000000
      0.000000       0.000000       0.000000
     -0.000028       0.000091       0.000000
     -0.000102       0.000098       0.000000
     -0.000063       0.000057       0.000000
     -0.000003       0.000051       0.000000
     -0.000102       0.000098       0.000000
     -0.000089       0.000249       0.000000
     -0.000049       0.000132       0.000000
     -0.000063       0.000057       0.000000
     -0.000003       0.000051       0.000000
     -0.000063       0.000057       0.000000
      0.000000       0.000000       0.000000
      0.000000       0.000000       0.000000
     -0.000063       0.000057       0.000000
     -0.000049       0.000132       0.000000
      0.000000       0.000000       0.000000
      0.000000       0.000000       0.000000
     -0.000089       0.000249       0.000000
      0.000056       0.000429       0.000000
      0.000049       0.000217       0.000000
     -0.000049       0.000132       0.000000
      0.000056       0.000429       0.000000
      0.000304       0.000637       0.000000
      0.000246       0.000350       0.000000
      0.000049       0.000217       0.000000
     -0.000049       0.000132       0.000000
      0.000049       0.000217       0.000000
      0.000000       0.000000       0.000000
      0.000000       0.000000       0.000000
      0.000049       0.000217       0.000000
      0.000246       0.000350       0.000000
      0.000000       0.000000       0.000000
      0.000000       0.000000       0.000000
     -0.000924       0.000727       0.000000
     -0.001244       0.001217       0.000000
     -0.001022       0.001462       0.000000
     -0.000584       0.000941       0.000000
     -0.001244       0.001217       0.000000
     -0.001526       0.001935       0.000000
     -0.001562       0.002131       0.000000
     -0.001022       0.001462       0.000000
     -0.000584       0.000941       0.000000
     -0.001022       0.001462       0.000000
     -0.000888       0.001494       0.000000