# vtk DataFile Version 2.0
time_10.vtk
ASCII
DATASET UNSTRUCTURED_GRID
POINTS  2316 float
      0.458579       0.641421       0.000000
      0.497369       0.671659       0.000000
      0.438243       0.730363       0.000000
      0.382149       0.701184       0.000000
      0.497369       0.671659       0.000000
      0.545805       0.692517       0.000000
      0.506084       0.750000       0.000000
      0.438243       0.730363       0.000000
      0.382149       0.701184       0.000000
      0.438243       0.730363       0.000000
      0.380813       0.787383       0.000000
      0.305719       0.760948       0.000000
      0.438243       0.730363       0.000000
      0.506084       0.750000       0.000000
      0.468251       0.804752       0.000000
      0.380813       0.787383       0.000000
      0.545805       0.692517       0.000000
      0.600000       0.700000       0.000000
      0.581017       0.756950       0.000000
      0.506084       0.750000       0.000000
      0.600000       0.700000       0.000000
      0.654195       0.692517       0.000000
      0.656527       0.750000       0.000000
      0.581017       0.756950       0.000000
      0.506084       0.750000       0.000000
      0.581017       0.756950       0.000000
      0.563060       0.810819       0.000000
      0.468251       0.804752       0.000000
      0.581017       0.756950       0.000000
      0.656527       0.750000       0.000000
      0.658747       0.804752       0.000000
      0.563060       0.810819       0.000000
      0.654195       0.692517       0.000000
      0.702631       0.671659       0.000000
      0.725999       0.730363       0.000000
      0.656527       0.750000       0.000000
      0.702631       0.671659       0.000000
      0.741421       0.641421       0.000000
      0.784518       0.701184       0.000000
      0.725999       0.730363       0.000000
      0.656527       0.750000       0.000000
      0.725999       0.730363       0.000000
      0.748697       0.787383       0.000000
      0.658747       0.804752       0.000000
      0.725999       0.730363       0.000000
      0.784518       0.701184       0.000000
      0.827614       0.760948       0.000000
      0.748697       0.787383       0.000000
      0.305719       0.760948       0.000000
      0.380813       0.787383       0.000000
      0.325006       0.842791       0.000000
      0.229289       0.820711       0.000000
      0.380813       0.787383       0.000000
      0.468251       0.804752       0.000000
      0.432173       0.856962       0.000000
      0.325006       0.842791       0.000000
      0.229289       0.820711       0.000000
      0.325006       0.842791       0.000000
      0.270755       0.896655       0.000000
      0.152860       0.880474       0.000000
      0.325006       0.842791       0.000000
      0.432173       0.856962       0.000000
      0.397732       0.906804       0.000000
      0.270755       0.896655       0.000000
      0.468251       0.804752       0.000000
      0.563060       0.810819       0.000000
      0.546050       0.861851       0.000000
      0.432173       0.856962       0.000000
      0.563060       0.810819       0.000000
      0.658747       0.804752       0.000000
      0.660865       0.856962       0.000000
      0.546050       0.861851       0.000000
      0.432173       0.856962       0.000000
      0.546050       0.861851       0.000000
      0.529912       0.910264       0.000000
      0.397732       0.906804       0.000000
      0.546050       0.861851       0.000000
      0.660865       0.856962       0.000000
      0.662887       0.906804       0.000000
      0.529912       0.910264       0.000000
      0.658747       0.804752       0.000000
      0.748697       0.787383       0.000000
      0.770753       0.842791       0.000000
      0.660865       0.856962       0.000000
      0.748697       0.787383       0.000000
      0.827614       0.760948       0.000000
      0.870711       0.820711       0.000000
      0.770753       0.842791       0.000000
      0.660865       0.856962       0.000000
      0.770753       0.842791       0.000000
      0.792195       0.896655       0.000000
      0.662887       0.906804       0.000000
      0.770753       0.842791       0.000000
      0.870711       0.820711       0.000000
      0.913807       0.880474       0.000000
      0.792195       0.896655       0.000000
      0.152860       0.880474       0.000000
      0.270755       0.896655       0.000000
      0.217995       0.949038       0.000000
      0.076430       0.940237       0.000000
      0.270755       0.896655       0.000000
      0.397732       0.906804       0.000000
      0.364819       0.954435       0.000000
      0.217995       0.949038       0.000000
      0.076430       0.940237       0.000000
      0.217995       0.949038       0.000000
      0.166667       1.000000       0.000000
      0.000000       1.000000       0.000000
      0.217995       0.949038       0.000000
      0.364819       0.954435       0.000000
      0.333333       1.000000       0.000000
      0.166667       1.000000       0.000000
      0.397732       0.906804       0.000000
      0.529912       0.910264       0.000000
      0.514582       0.956255       0.000000
      0.364819       0.954435       0.000000
      0.529912       0.910264       0.000000
      0.662887       0.906804       0.000000
      0.664819       0.954435       0.000000
      0.514582       0.956255       0.000000
      0.364819       0.954435       0.000000
      0.514582       0.956255       0.000000
      0.500000       1.000000       0.000000
      0.333333       1.000000       0.000000
      0.514582       0.956255       0.000000
      0.664819       0.954435       0.000000
      0.666667       1.000000       0.000000
      0.500000       1.000000       0.000000
      0.662887       0.906804       0.000000
      0.792195       0.896655       0.000000
      0.813047       0.949038       0.000000
      0.664819       0.954435       0.000000
      0.792195       0.896655       0.000000
      0.913807       0.880474       0.000000
      0.956904       0.940237       0.000000
      0.813047       0.949038       0.000000
      0.664819       0.954435       0.000000
      0.813047       0.949038       0.000000
      0.833333       1.000000       0.000000
      0.666667       1.000000       0.000000
      0.813047       0.949038       0.000000
      0.956904       0.940237       0.000000
      1.000000       1.000000       0.000000
      0.833333       1.000000       0.000000
      0.458579       0.358579       0.000000
      0.428341       0.397369       0.000000
      0.351758       0.356122       0.000000
      0.382149       0.298816       0.000000
      0.382149       0.298816       0.000000
      0.351758       0.356122       0.000000
      0.277372       0.316058       0.000000
      0.305719       0.239052       0.000000
      0.351758       0.356122       0.000000
      0.331305       0.424779       0.000000
      0.258747       0.404752       0.000000
      0.277372       0.316058       0.000000
      0.428341       0.602631       0.000000
      0.458579       0.641421       0.000000
      0.382149       0.701184       0.000000
      0.351758       0.643878       0.000000
      0.331305       0.575221       0.000000
      0.351758       0.643878       0.000000
      0.277372       0.683942       0.000000
      0.258747       0.595248       0.000000
      0.351758       0.643878       0.000000
      0.382149       0.701184       0.000000
      0.305719       0.760948       0.000000
      0.277372       0.683942       0.000000
      0.305719       0.239052       0.000000
      0.277372       0.316058       0.000000
      0.205089       0.277126       0.000000
      0.229289       0.179289       0.000000
      0.277372       0.316058       0.000000
      0.258747       0.404752       0.000000
      0.189557       0.385654       0.000000
      0.205089       0.277126       0.000000
      0.229289       0.179289       0.000000
      0.205089       0.277126       0.000000
      0.134820       0.239280       0.000000
      0.152860       0.119526       0.000000
      0.205089       0.277126       0.000000
      0.189557       0.385654       0.000000
      0.123505       0.367423       0.000000
      0.134820       0.239280       0.000000
      0.258747       0.404752       0.000000
      0.252241       0.500000       0.000000
      0.184198       0.500000       0.000000
      0.189557       0.385654       0.000000
      0.252241       0.500000       0.000000
      0.258747       0.595248       0.000000
      0.189557       0.614346       0.000000
      0.184198       0.500000       0.000000
      0.189557       0.385654       0.000000
      0.184198       0.500000       0.000000
      0.119648       0.500000       0.000000
      0.123505       0.367423       0.000000
      0.184198       0.500000       0.000000
      0.189557       0.614346       0.000000
      0.123505       0.632577       0.000000
      0.119648       0.500000       0.000000
      0.258747       0.595248       0.000000
      0.277372       0.683942       0.000000
      0.205089       0.722874       0.000000
      0.189557       0.614346       0.000000
      0.277372       0.683942       0.000000
      0.305719       0.760948       0.000000
      0.229289       0.820711       0.000000
      0.205089       0.722874       0.000000
      0.189557       0.614346       0.000000
      0.205089       0.722874       0.000000
      0.134820       0.760720       0.000000
      0.123505       0.632577       0.000000
      0.205089       0.722874       0.000000
      0.229289       0.820711       0.000000
      0.152860       0.880474       0.000000
      0.134820       0.760720       0.000000
      0.152860       0.119526       0.000000
      0.134820       0.239280       0.000000
      0.066483       0.202474       0.000000
      0.076430       0.059763       0.000000
[...]
POINT_DATA  2316
VECTORS U float 
      0.000569       0.005910       0.000000
      0.000371       0.006295       0.000000
      0.000152       0.005981       0.000000
      0.000390       0.005481       0.000000
      0.000371       0.006295       0.000000
      0.000194       0.006566       0.000000
      0.000008       0.006422       0.000000
      0.000152       0.005981       0.000000
      0.000390       0.005481       0.000000
      0.000152       0.005981       0.000000
      0.000128       0.005932       0.000000
      0.000426       0.005496       0.000000
      0.000152       0.005981       0.000000
      0.000008       0.006422       0.000000
     -0.000073       0.006361       0.000000
      0.000128       0.005932       0.000000
      0.000194       0.006566       0.000000
      0.000060       0.006723       0.000000
     -0.000048       0.006703       0.000000
      0.000008       0.006422       0.000000
      0.000060       0.006723       0.000000
     -0.000027       0.006794       0.000000
     -0.000071       0.006814       0.000000
     -0.000048       0.006703       0.000000
      0.000008       0.006422       0.000000
     -0.000048       0.006703       0.000000
     -0.000141       0.006681       0.000000
     -0.000073       0.006361       0.000000
     -0.000048       0.006703       0.000000
     -0.000071       0.006814       0.000000
     -0.000138       0.006821       0.000000
     -0.000141       0.006681       0.000000
     -0.000027       0.006794       0.000000
     -0.000076       0.006817       0.000000
     -0.000088       0.006833       0.000000
     -0.000071       0.006814       0.000000
     -0.000076       0.006817       0.000000
     -0.000103       0.006819       0.000000
     -0.000103       0.006823       0.000000
     -0.000088       0.006833       0.000000
     -0.000071       0.006814       0.000000
     -0.000088       0.006833       0.000000
     -0.000131       0.006845       0.000000
     -0.000138       0.006821       0.000000
     -0.000088       0.006833       0.000000
     -0.000103       0.006823       0.000000
     -0.000131       0.006832       0.000000
     -0.000131       0.006845       0.000000
      0.000426       0.005496       0.000000
      0.000128       0.005932       0.000000
      0.000165       0.006044       0.000000
      0.000513       0.005704       0.000000
      0.000128       0.005932       0.000000
     -0.000073       0.006361       0.000000
     -0.000097       0.006394       0.000000
      0.000165       0.006044       0.000000
      0.000513       0.005704       0.000000
      0.000165       0.006044       0.000000
      0.000234       0.006254       0.000000
      0.000631       0.006009       0.000000
      0.000165       0.006044       0.000000
     -0.000097       0.006394       0.000000
     -0.000088       0.006498       0.000000
      0.000234       0.006254       0.000000
     -0.000073       0.006361       0.000000
     -0.000141       0.006681       0.000000
     -0.000202       0.006686       0.000000
     -0.000097       0.006394       0.000000
     -0.000141       0.006681       0.000000
     -0.000138       0.006821       0.000000
     -0.000193       0.006827       0.000000
     -0.000202       0.006686       0.000000
     -0.000097       0.006394       0.000000
     -0.000202       0.006686       0.000000
     -0.000236       0.006720       0.000000
     -0.000088       0.006498       0.000000
     -0.000202       0.006686       0.000000
     -0.000193       0.006827       0.000000
     -0.000231       0.006835       0.000000
     -0.000236       0.006720       0.000000
     -0.000138       0.006821       0.000000
     -0.000131       0.006845       0.000000
     -0.000171       0.006850       0.000000
     -0.000193       0.006827       0.000000
     -0.000131       0.006845       0.000000
     -0.000131       0.006832       0.000000
     -0.000162       0.006839       0.000000
     -0.000171       0.006850       0.000000
     -0.000193       0.006827       0.000000
     -0.000171       0.006850       0.000000
     -0.000199       0.006852       0.000000
     -0.000231       0.006835       0.000000
     -0.000171       0.006850       0.000000
     -0.000162       0.006839       0.000000
     -0.000187       0.006845       0.000000
     -0.000199       0.006852       0.000000
      0.000631       0.006009       0.000000
      0.000234       0.006254       0.000000
      0.000334       0.006528       0.000000
      0.000798       0.006384       0.000000
      0.000234       0.006254       0.000000
     -0.000088       0.006498       0.000000
     -0.000054       0.006655       0.000000
      0.000334       0.006528       0.000000
      0.000798       0.006384       0.000000
      0.000334       0.006528       0.000000
      0.000472       0.006852       0.000000
      0.001043       0.006852       0.000000
      0.000334       0.006528       0.000000
     -0.000054       0.006655       0.000000
      0.000004       0.006852       0.000000
      0.000472       0.006852       0.000000
     -0.000088       0.006498       0.000000
     -0.000236       0.006720       0.000000
     -0.000250       0.006777       0.000000
     -0.000054       0.006655       0.000000
     -0.000236       0.006720       0.000000
     -0.000231       0.006835       0.000000
     -0.000253       0.006843       0.000000
     -0.000250       0.006777       0.000000
     -0.000054       0.006655       0.000000
     -0.000250       0.006777       0.000000
     -0.000248       0.006852       0.000000
      0.000004       0.006852       0.000000
     -0.000250       0.006777       0.000000
     -0.000253       0.006843       0.000000
     -0.000259       0.006852       0.000000
     -0.000248       0.006852       0.000000
     -0.000231       0.006835       0.000000
     -0.000199       0.006852       0.000000
     -0.000214       0.006852       0.000000
     -0.000253       0.006843       0.000000
     -0.000199       0.006852       0.000000
     -0.000187       0.006845       0.000000
     -0.000203       0.006851       0.000000
     -0.000214       0.006852       0.000000
     -0.000253       0.006843       0.000000
     -0.000214       0.006852       0.000000
     -0.000217       0.006852       0.000000
     -0.000259       0.006852       0.000000
     -0.000214       0.006852       0.000000
     -0.000203       0.006851       0.000000
     -0.000208       0.006852       0.000000
     -0.000217       0.006852       0.000000
      0.000513       0.000796       0.000000
      0.000720       0.001289       0.000000
      0.000676       0.001766       0.000000
      0.000338       0.001202       0.000000
      0.000338       0.001202       0.000000
      0.000676       0.001766       0.000000
      0.000743       0.001823       0.000000
      0.000348       0.001181       0.000000
      0.000676       0.001766       0.000000
      0.001080       0.002475       0.000000
      0.001209       0.002592       0.000000
      0.000743       0.001823       0.000000
      0.000772       0.005394       0.000000
      0.000569       0.005910       0.000000
      0.000390       0.005481       0.000000
      0.000732       0.004908       0.000000
      0.001119       0.004202       0.000000
      0.000732       0.004908       0.000000
      0.000809       0.004853       0.000000
      0.001248       0.004100       0.000000
      0.000732       0.004908       0.000000
      0.000390       0.005481       0.000000
      0.000426       0.005496       0.000000
      0.000809       0.004853       0.000000
      0.000348       0.001181       0.000000
      0.000743       0.001823       0.000000
      0.000825       0.001730       0.000000
      0.000371       0.000981       0.000000
      0.000743       0.001823       0.000000
      0.001209       0.002592       0.000000
      0.001330       0.002574       0.000000
      0.000825       0.001730       0.000000
      0.000371       0.000981       0.000000
      0.000825       0.001730       0.000000
      0.000899       0.001609       0.000000
      0.000361       0.000707       0.000000
      0.000825       0.001730       0.000000
      0.001330       0.002574       0.000000
      0.001450       0.002539       0.000000
      0.000899       0.001609       0.000000
      0.001209       0.002592       0.000000
      0.001479       0.003351       0.000000
      0.001593       0.003363       0.000000
      0.001330       0.002574       0.000000
      0.001479       0.003351       0.000000
      0.001248       0.004100       0.000000
      0.001370       0.004142       0.000000
      0.001593       0.003363       0.000000
      0.001330       0.002574       0.000000
      0.001593       0.003363       0.000000
      0.001723       0.003377       0.000000
      0.001450       0.002539       0.000000
      0.001593       0.003363       0.000000
      0.001370       0.004142       0.000000
      0.001493       0.004209       0.000000
      0.001723       0.003377       0.000000
      0.001248       0.004100       0.000000
      0.000809       0.004853       0.000000
      0.000911       0.004963       0.000000
      0.001370       0.004142       0.000000
      0.000809       0.004853       0.000000
      0.000426       0.005496       0.000000
      0.000513       0.005704       0.000000
      0.000911       0.004963       0.000000
      0.001370       0.004142       0.000000
      0.000911       0.004963       0.000000
      0.001015       0.005122       0.000000
      0.001493       0.004209       0.000000
      0.000911       0.004963       0.000000
      0.000513       0.005704       0.000000
      0.000631       0.006009       0.000000
      0.001015       0.005122       0.000000
      0.000361       0.000707       0.000000
      0.000899       0.001609       0.000000
      0.000961       0.001522       0.000000
      0.000282       0.000393       0.000000
      0.000899       0.001609       0.000000
      0.001450       0.002539       0.000000
      0.001561       0.002535       0.000000
      0.000961       0.001522       0.000000
      0.000282       0.000393       0.000000
      0.000961       0.001522       0.000000
      0.001016       0.001491       0.000000
      0.000000       0.000000       0.000000
      0.000961       0.001522       0.000000
      0.001561       0.002535       0.000000
      0.001657       0.002595       0.000000
      0.001016       0.001491       0.000000
      0.001450       0.002539       0.000000
      0.001723       0.003377       0.000000
      0.001857       0.003391       0.000000
      0.001561       0.002535       0.000000
      0.001723       0.003377       0.000000
      0.001493       0.004209       0.000000
      0.001611       0.004251       0.000000
      0.001857       0.003391       0.000000
      0.001561       0.002535       0.000000
      0.001857       0.003391       0.000000
      0.001979       0.003401       0.000000
      0.001657       0.002595       0.000000
      0.001857       0.003391       0.000000
      0.001611       0.004251       0.000000
      0.001721       0.004228       0.000000
      0.001979       0.003401       0.000000
      0.001493       0.004209       0.000000
      0.001015       0.005122       0.000000
      0.001121       0.005276       0.000000
      0.001611       0.004251       0.000000
      0.001015       0.005122       0.000000
      0.000631       0.006009       0.000000
      0.000798       0.006384       0.000000
      0.001121       0.005276       0.000000
      0.001611       0.004251       0.000000
      0.001121       0.005276       0.000000
      0.001248       0.005414       0.000000
      0.001721       0.004228       0.000000
      0.001121       0.005276       0.000000
      0.000798       0.006384       0.000000
      0.001043       0.006852       0.000000
      0.001248       0.005414       0.000000
      0.001173       0.003941       0.000000
      0.001044       0.004392       0.000000
      0.001119       0.004202       0.000000
      0.001287       0.003787       0.000000
      0.001006       0.002281       0.000000
      0.001149       0.002726       0.000000
      0.001263       0.002892       0.000000
      0.001080       0.002475       0.000000
      0.000850       0.003315       0.000000
      0.000861       0.003571       0.000000
      0.000998       0.003564       0.000000
      0.000993       0.003317       0.000000
      0.000861       0.003571       0.000000
      0.000888       0.003805       0.000000
      0.001007       0.003786       0.000000
      0.000998       0.003564       0.000000
      0.000993       0.003317       0.000000
      0.000998       0.003564       0.000000
      0.001101       0.003540       0.000000
      0.001101       0.003322       0.000000
      0.000998       0.003564       0.000000
      0.001007       0.003786       0.000000
      0.001098       0.003741       0.000000
      0.001101       0.003540       0.000000
      0.000886       0.002836       0.000000
      0.000862       0.003062       0.000000
      0.000995       0.003074       0.000000
      0.000999       0.002860       0.000000
      0.000862       0.003062       0.000000
      0.000850       0.003315       0.000000
      0.000993       0.003317       0.000000
      0.000995       0.003074       0.000000
      0.000999       0.002860       0.000000
      0.000995       0.003074       0.000000
      0.001096       0.003106       0.000000
      0.001087       0.002910       0.000000
      0.000995       0.003074       0.000000
      0.000993       0.003317       0.000000
      0.001101       0.003322       0.000000
      0.001096       0.003106       0.000000
      0.000934       0.004682       0.000000
      0.000866       0.005068       0.000000
      0.000892       0.004751       0.000000
      0.001044       0.004392       0.000000
      0.000866       0.005068       0.000000
      0.000772       0.005394       0.000000
      0.000728       0.005067       0.000000
      0.000892       0.004751       0.000000
      0.001044       0.004392       0.000000
      0.000892       0.004751       0.000000
      0.000927       0.004574       0.000000
      0.001119       0.004202       0.000000
      0.000892       0.004751       0.000000
      0.000728       0.005067       0.000000
      0.000732       0.004908       0.000000
      0.000927       0.004574       0.000000
      0.000935       0.004175       0.000000
      0.000947       0.004453       0.000000
      0.001046       0.004321       0.000000
      0.001079       0.004070       0.000000
      0.000947       0.004453       0.000000
      0.000934       0.004682       0.000000
      0.001001       0.004531       0.000000
      0.001046       0.004321       0.000000
      0.001079       0.004070       0.000000
      0.001046       0.004321       0.000000
      0.001113       0.004183       0.000000
      0.001173       0.003941       0.000000
      0.001046       0.004321       0.000000
      0.001001       0.004531       0.000000
      0.001044       0.004392       0.000000
      0.001113       0.004183       0.000000
      0.000888       0.003805       0.000000
      0.000916       0.004005       0.000000
      0.001014       0.003975       0.000000
      0.001007       0.003786       0.000000
      0.000916       0.004005       0.000000
      0.000935       0.004175       0.000000
      0.001017       0.004133       0.000000
      0.001014       0.003975       0.000000
      0.001007       0.003786       0.000000
      0.001014       0.003975       0.000000
      0.001090       0.003918       0.000000
      0.001098       0.003741       0.000000
      0.001014       0.003975       0.000000
      0.001017       0.004133       0.000000
      0.001079       0.004070       0.000000
      0.001090       0.003918       0.000000
      0.000720       0.001289       0.000000
      0.000821       0.001607       0.000000
      0.000843       0.001924       0.000000
      0.000674       0.001611       0.000000
      0.000821       0.001607       0.000000
      0.000901       0.001985       0.000000
      0.001006       0.002281       0.000000
      0.000843       0.001924       0.000000
      0.000674       0.001611       0.000000
      0.000843       0.001924       0.000000
      0.000876       0.002101       0.000000
      0.000676       0.001766       0.000000
      0.000843       0.001924       0.000000
      0.001006       0.002281       0.000000
      0.001080       0.002475       0.000000
      0.000876       0.002101       0.000000
      0.000901       0.001985       0.000000
      0.000923       0.002210       0.000000
      0.001017       0.002347       0.000000
      0.000964       0.002141       0.000000
      0.000923       0.002210       0.000000
      0.000921       0.002479       0.000000
      0.001059       0.002592       0.000000
      0.001017       0.002347       0.000000
      0.000964       0.002141       0.000000
      0.001017       0.002347       0.000000
      0.001081       0.002488       0.000000
      0.001006       0.002281       0.000000
      0.001017       0.002347       0.000000
      0.001059       0.002592       0.000000
      0.001149       0.002726       0.000000
      0.001081       0.002488       0.000000
      0.000921       0.002479       0.000000
      0.000908       0.002644       0.000000
      0.001001       0.002679       0.000000
      0.000999       0.002526       0.000000
      0.000908       0.002644       0.000000
      0.000886       0.002836       0.000000
      0.000999       0.002860       0.000000
      0.001001       0.002679       0.000000
      0.000999       0.002526       0.000000
      0.001001       0.002679       0.000000
      0.001074       0.002739       0.000000
      0.001059       0.002592       0.000000
      0.001001       0.002679       0.000000
      0.000999       0.002860       0.000000
      0.001087       0.002910       0.000000
      0.001074       0.002739       0.000000
      0.001080       0.002475       0.000000
      0.001263       0.002892       0.000000
      0.001336       0.002958       0.000000
      0.001147       0.002564       0.000000
      0.001263       0.002892       0.000000
      0.001358       0.003340       0.000000
      0.001424       0.003346       0.000000
      0.001336       0.002958       0.000000
      0.001147       0.002564       0.000000
      0.001336       0.002958       0.000000
      0.001396       0.002980       0.000000
      0.001209       0.002592       0.000000
      0.001336       0.002958       0.000000
      0.001424       0.003346       0.000000
      0.001479       0.003351       0.000000
      0.001396       0.002980       0.000000
      0.001358       0.003340       0.000000
      0.001287       0.003787       0.000000
      0.001358       0.003731       0.000000
      0.001424       0.003346       0.000000
      0.001287       0.003787       0.000000
      0.001119       0.004202       0.000000
      0.001186       0.004119       0.000000
      0.001358       0.003731       0.000000
      0.001424       0.003346       0.000000
      0.001358       0.003731       0.000000
      0.001417       0.003719       0.000000
      0.001479       0.003351       0.000000
      0.001358       0.003731       0.000000
      0.001186       0.004119       0.000000
      0.001248       0.004100       0.000000
      0.001417       0.003719       0.000000
      0.001234       0.003330       0.000000
      0.001219       0.003655       0.000000
      0.001292       0.003598       0.000000
      0.001309       0.003336       0.000000
      0.001219       0.003655       0.000000
      0.001173       0.003941       0.000000
      0.001238       0.003847       0.000000
      0.001292       0.003598       0.000000
      0.001309       0.003336       0.000000
      0.001292       0.003598       0.000000
      0.001341       0.003566       0.000000