# vtk DataFile Version 2.0
time_10.vtk
ASCII
DATASET UNSTRUCTURED_GRID
POINTS   912 float
      0.458579       0.641421       0.000000
      0.497369       0.671659       0.000000
      0.438243       0.730363       0.000000
      0.382149       0.701184       0.000000
      0.497369       0.671659       0.000000
      0.545805       0.692517       0.000000
      0.506084       0.750000       0.000000
      0.438243       0.730363       0.000000
      0.382149       0.701184       0.000000
      0.438243       0.730363       0.000000
      0.380813       0.787383       0.000000
      0.305719       0.760948       0.000000
      0.438243       0.730363       0.000000
      0.506084       0.750000       0.000000
      0.468251       0.804752       0.000000
      0.380813       0.787383       0.000000
      0.545805       0.692517       0.000000
      0.600000       0.700000       0.000000
      0.581017       0.756950       0.000000
      0.506084       0.750000       0.000000
      0.600000       0.700000       0.000000
      0.654195       0.692517       0.000000
      0.656527       0.750000       0.000000
      0.581017       0.756950       0.000000
      0.506084       0.750000       0.000000
      0.581017       0.756950       0.000000
      0.563060       0.810819       0.000000
      0.468251       0.804752       0.000000
      0.581017       0.756950       0.000000
      0.656527       0.750000       0.000000
      0.658747       0.804752       0.000000
      0.563060       0.810819       0.000000
      0.654195       0.692517       0.000000
      0.702631       0.671659       0.000000
      0.725999       0.730363       0.000000
      0.656527       0.750000       0.000000
      0.702631       0.671659       0.000000
      0.741421       0.641421       0.000000
      0.784518       0.701184       0.000000
      0.725999       0.730363       0.000000
      0.656527       0.750000       0.000000
      0.725999       0.730363       0.000000
      0.748697       0.787383       0.000000
      0.658747       0.804752       0.000000
      0.725999       0.730363       0.000000
      0.784518       0.701184       0.000000
      0.827614       0.760948       0.000000
      0.748697       0.787383       0.000000
      0.305719       0.760948       0.000000
      0.380813       0.787383       0.000000
      0.325006       0.842791       0.000000
      0.229289       0.820711       0.000000
      0.380813       0.787383       0.000000
      0.468251       0.804752       0.000000
      0.432173       0.856962       0.000000
      0.325006       0.842791       0.000000
      0.229289       0.820711       0.000000
      0.325006       0.842791       0.000000
      0.270755       0.896655       0.000000
      0.152860       0.880474       0.000000
      0.325006       0.842791       0.000000
      0.432173       0.856962       0.000000
      0.397732       0.906804       0.000000
      0.270755       0.896655       0.000000
      0.468251       0.804752       0.000000
      0.563060       0.810819       0.000000
      0.546050       0.861851       0.000000
      0.432173       0.856962       0.000000
      0.563060       0.810819       0.000000
      0.658747       0.804752       0.000000
      0.660865       0.856962       0.000000
      0.546050       0.861851       0.000000
      0.432173       0.856962       0.000000
      0.546050       0.861851       0.000000
      0.529912       0.910264       0.000000
      0.397732       0.906804       0.000000
      0.546050       0.861851       0.000000
      0.660865       0.856962       0.000000
      0.662887       0.906804       0.000000
      0.529912       0.910264       0.000000
      0.658747       0.804752       0.000000
      0.748697       0.787383       0.000000
      0.770753       0.842791       0.000000
      0.660865       0.856962       0.000000
      0.748697       0.787383       0.000000
      0.827614       0.760948       0.000000
      0.870711       0.820711       0.000000
      0.770753       0.842791       0.000000
      0.660865       0.856962       0.000000
      0.770753       0.842791       0.000000
      0.792195       0.896655       0.000000
      0.662887       0.906804       0.000000
      0.770753       0.842791       0.000000
      0.870711       0.820711       0.000000
      0.913807       0.880474       0.000000
      0.792195       0.896655       0.000000
      0.152860       0.880474       0.000000
      0.270755       0.896655       0.000000
      0.217995       0.949038       0.000000
      0.076430       0.940237       0.000000
      0.270755       0.896655       0.000000
      0.397732       0.906804       0.000000
      0.364819       0.954435       0.000000
      0.217995       0.949038       0.000000
      0.076430       0.940237       0.000000
      0.217995       0.949038       0.000000
      0.166667       1.000000       0.000000
      0.000000       1.000000       0.000000
      0.217995       0.949038       0.000000
      0.364819       0.954435       0.000000
      0.333333       1.000000       0.000000
      0.166667       1.000000       0.000000
      0.397732       0.906804       0.000000
      0.529912       0.910264       0.000000
      0.514582       0.956255       0.000000
      0.364819       0.954435       0.000000
      0.529912       0.910264       0.000000
      0.662887       0.906804       0.000000
      0.664819       0.954435       0.000000
      0.514582       0.956255       0.000000
      0.364819       0.954435       0.000000
      0.514582       0.956255       0.000000
      0.500000       1.000000       0.000000
      0.333333       1.000000       0.000000
      0.514582       0.956255       0.000000
      0.664819       0.954435       0.000000
      0.666667       1.000000       0.000000
      0.500000       1.000000       0.000000
      0.662887       0.906804       0.000000
      0.792195       0.896655       0.000000
      0.813047       0.949038       0.000000
      0.664819       0.954435       0.000000
      0.792195       0.896655       0.000000
      0.913807       0.880474       0.000000
      0.956904       0.940237       0.000000
      0.813047       0.949038       0.000000
      0.664819       0.954435       0.000000
      0.813047       0.949038       0.000000
      0.833333       1.000000       0.000000
      0.666667       1.000000       0.000000
      0.813047       0.949038       0.000000
      0.956904       0.940237       0.000000
      1.000000       1.000000       0.000000
      0.833333       1.000000       0.000000
      0.458579       0.358579       0.000000
      0.428341       0.397369       0.000000
      0.351758       0.356122       0.000000
      0.382149       0.298816       0.000000
      0.428341       0.397369       0.000000
      0.407483       0.445805       0.000000
      0.331305       0.424779       0.000000
      0.351758       0.356122       0.000000
      0.382149       0.298816       0.000000
      0.351758       0.356122       0.000000
      0.277372       0.316058       0.000000
      0.305719       0.239052       0.000000
      0.351758       0.356122       0.000000
      0.331305       0.424779       0.000000
      0.258747       0.404752       0.000000
      0.277372       0.316058       0.000000
      0.331305       0.424779       0.000000
      0.324066       0.500000       0.000000
      0.252241       0.500000       0.000000
      0.258747       0.404752       0.000000
      0.324066       0.500000       0.000000
      0.331305       0.575221       0.000000
      0.258747       0.595248       0.000000
      0.252241       0.500000       0.000000
      0.407483       0.554195       0.000000
      0.428341       0.602631       0.000000
      0.351758       0.643878       0.000000
      0.331305       0.575221       0.000000
      0.428341       0.602631       0.000000
      0.458579       0.641421       0.000000
      0.382149       0.701184       0.000000
      0.351758       0.643878       0.000000
      0.331305       0.575221       0.000000
      0.351758       0.643878       0.000000
      0.277372       0.683942       0.000000
      0.258747       0.595248       0.000000
      0.351758       0.643878       0.000000
      0.382149       0.701184       0.000000
      0.305719       0.760948       0.000000
      0.277372       0.683942       0.000000
      0.305719       0.239052       0.000000
      0.277372       0.316058       0.000000
      0.205089       0.277126       0.000000
      0.229289       0.179289       0.000000
      0.277372       0.316058       0.000000
      0.258747       0.404752       0.000000
      0.189557       0.385654       0.000000
      0.205089       0.277126       0.000000
      0.229289       0.179289       0.000000
      0.205089       0.277126       0.000000
      0.134820       0.239280       0.000000
      0.152860       0.119526       0.000000
      0.205089       0.277126       0.000000
      0.189557       0.385654       0.000000
      0.123505       0.367423       0.000000
      0.134820       0.239280       0.000000
      0.258747       0.404752       0.000000
      0.252241       0.500000       0.000000
      0.184198       0.500000       0.000000
      0.189557       0.385654       0.000000
      0.252241       0.500000       0.000000
      0.258747       0.595248       0.000000
      0.189557       0.614346       0.000000
      0.184198       0.500000       0.000000
      0.189557       0.385654       0.000000
      0.184198       0.500000       0.000000
      0.119648       0.500000       0.000000
      0.123505       0.367423       0.000000
      0.184198       0.500000       0.000000
      0.189557       0.614346       0.000000
      0.123505       0.632577       0.000000
      0.119648       0.500000       0.000000
      0.258747       0.595248       0.000000
      0.277372       0.683942       0.000000
      0.205089       0.722874       0.000000
      0.189557       0.614346       0.000000
[...]
POINT_DATA   912
VECTORS U float 
      0.000440       0.005719       0.000000
      0.000226       0.006103       0.000000
      0.000039       0.005807       0.000000
      0.000283       0.005307       0.000000
      0.000226       0.006103       0.000000
      0.000007       0.006359       0.000000
     -0.000121       0.006247       0.000000
      0.000039       0.005807       0.000000
      0.000283       0.005307       0.000000
      0.000039       0.005807       0.000000
      0.000058       0.005769       0.000000
      0.000350       0.005338       0.000000
      0.000039       0.005807       0.000000
     -0.000121       0.006247       0.000000
     -0.000141       0.006196       0.000000
      0.000058       0.005769       0.000000
      0.000007       0.006359       0.000000
     -0.000219       0.006466       0.000000
     -0.000206       0.006492       0.000000
     -0.000121       0.006247       0.000000
     -0.000219       0.006466       0.000000
     -0.000465       0.006415       0.000000
     -0.000289       0.006454       0.000000
     -0.000206       0.006492       0.000000
     -0.000121       0.006247       0.000000
     -0.000206       0.006492       0.000000
     -0.000206       0.006487       0.000000
     -0.000141       0.006196       0.000000
     -0.000206       0.006492       0.000000
     -0.000289       0.006454       0.000000
     -0.000216       0.006479       0.000000
     -0.000206       0.006487       0.000000
     -0.000465       0.006415       0.000000
     -0.000746       0.006209       0.000000
     -0.000438       0.006136       0.000000
     -0.000289       0.006454       0.000000
     -0.000746       0.006209       0.000000
     -0.001059       0.005862       0.000000
     -0.000701       0.005637       0.000000
     -0.000438       0.006136       0.000000
     -0.000289       0.006454       0.000000
     -0.000438       0.006136       0.000000
     -0.000309       0.006152       0.000000
     -0.000216       0.006479       0.000000
     -0.000438       0.006136       0.000000
     -0.000701       0.005637       0.000000
     -0.000549       0.005650       0.000000
     -0.000309       0.006152       0.000000
      0.000350       0.005338       0.000000
      0.000058       0.005769       0.000000
      0.000121       0.005880       0.000000
      0.000453       0.005546       0.000000
      0.000058       0.005769       0.000000
     -0.000141       0.006196       0.000000
     -0.000124       0.006229       0.000000
      0.000121       0.005880       0.000000
      0.000453       0.005546       0.000000
      0.000121       0.005880       0.000000
      0.000200       0.006080       0.000000
      0.000577       0.005843       0.000000
      0.000121       0.005880       0.000000
     -0.000124       0.006229       0.000000
     -0.000094       0.006324       0.000000
      0.000200       0.006080       0.000000
     -0.000141       0.006196       0.000000
     -0.000206       0.006487       0.000000
     -0.000202       0.006499       0.000000
     -0.000124       0.006229       0.000000
     -0.000206       0.006487       0.000000
     -0.000216       0.006479       0.000000
     -0.000177       0.006512       0.000000
     -0.000202       0.006499       0.000000
     -0.000124       0.006229       0.000000
     -0.000202       0.006499       0.000000
     -0.000196       0.006533       0.000000
     -0.000094       0.006324       0.000000
     -0.000202       0.006499       0.000000
     -0.000177       0.006512       0.000000
     -0.000154       0.006554       0.000000
     -0.000196       0.006533       0.000000
     -0.000216       0.006479       0.000000
     -0.000309       0.006152       0.000000
     -0.000238       0.006221       0.000000
     -0.000177       0.006512       0.000000
     -0.000309       0.006152       0.000000
     -0.000549       0.005650       0.000000
     -0.000466       0.005764       0.000000
     -0.000238       0.006221       0.000000
     -0.000177       0.006512       0.000000
     -0.000238       0.006221       0.000000
     -0.000201       0.006328       0.000000
     -0.000154       0.006554       0.000000
     -0.000238       0.006221       0.000000
     -0.000466       0.005764       0.000000
     -0.000443       0.005965       0.000000
     -0.000201       0.006328       0.000000
      0.000577       0.005843       0.000000
      0.000200       0.006080       0.000000
      0.000301       0.006342       0.000000
      0.000742       0.006204       0.000000
      0.000200       0.006080       0.000000
     -0.000094       0.006324       0.000000
     -0.000055       0.006468       0.000000
      0.000301       0.006342       0.000000
      0.000742       0.006204       0.000000
      0.000301       0.006342       0.000000
      0.000434       0.006652       0.000000
      0.000977       0.006652       0.000000
      0.000301       0.006342       0.000000
     -0.000055       0.006468       0.000000
     -0.000001       0.006652       0.000000
      0.000434       0.006652       0.000000
     -0.000094       0.006324       0.000000
     -0.000196       0.006533       0.000000
     -0.000193       0.006585       0.000000
     -0.000055       0.006468       0.000000
     -0.000196       0.006533       0.000000
     -0.000154       0.006554       0.000000
     -0.000141       0.006602       0.000000
     -0.000193       0.006585       0.000000
     -0.000055       0.006468       0.000000
     -0.000193       0.006585       0.000000
     -0.000190       0.006652       0.000000
     -0.000001       0.006652       0.000000
     -0.000193       0.006585       0.000000
     -0.000141       0.006602       0.000000
     -0.000137       0.006652       0.000000
     -0.000190       0.006652       0.000000
     -0.000154       0.006554       0.000000
     -0.000201       0.006328       0.000000
     -0.000189       0.006472       0.000000
     -0.000141       0.006602       0.000000
     -0.000201       0.006328       0.000000
     -0.000443       0.005965       0.000000
     -0.000484       0.006263       0.000000
     -0.000189       0.006472       0.000000
     -0.000141       0.006602       0.000000
     -0.000189       0.006472       0.000000
     -0.000203       0.006652       0.000000
     -0.000137       0.006652       0.000000
     -0.000189       0.006472       0.000000
     -0.000484       0.006263       0.000000
     -0.000586       0.006652       0.000000
     -0.000203       0.006652       0.000000
      0.000387       0.000805       0.000000
      0.000594       0.001307       0.000000
      0.000564       0.001761       0.000000
      0.000230       0.001197       0.000000
      0.000594       0.001307       0.000000
      0.000762       0.002029       0.000000
      0.000952       0.002454       0.000000
      0.000564       0.001761       0.000000
      0.000230       0.001197       0.000000
      0.000564       0.001761       0.000000
      0.000642       0.001793       0.000000
      0.000269       0.001161       0.000000
      0.000564       0.001761       0.000000
      0.000952       0.002454       0.000000
      0.001077       0.002534       0.000000
      0.000642       0.001793       0.000000
      0.000952       0.002454       0.000000
      0.001187       0.003250       0.000000
      0.001316       0.003260       0.000000
      0.001077       0.002534       0.000000
      0.001187       0.003250       0.000000
      0.000990       0.004043       0.000000
      0.001115       0.003977       0.000000
      0.001316       0.003260       0.000000
      0.000792       0.004456       0.000000
      0.000645       0.005195       0.000000
      0.000619       0.004733       0.000000
      0.000990       0.004043       0.000000
      0.000645       0.005195       0.000000
      0.000440       0.005719       0.000000
      0.000283       0.005307       0.000000
      0.000619       0.004733       0.000000
      0.000990       0.004043       0.000000
      0.000619       0.004733       0.000000
      0.000708       0.004705       0.000000
      0.001115       0.003977       0.000000
      0.000619       0.004733       0.000000
      0.000283       0.005307       0.000000
      0.000350       0.005338       0.000000
      0.000708       0.004705       0.000000
      0.000269       0.001161       0.000000
      0.000642       0.001793       0.000000
      0.000733       0.001688       0.000000
      0.000315       0.000957       0.000000
      0.000642       0.001793       0.000000
      0.001077       0.002534       0.000000
      0.001197       0.002505       0.000000
      0.000733       0.001688       0.000000
      0.000315       0.000957       0.000000
      0.000733       0.001688       0.000000
      0.000814       0.001560       0.000000
      0.000323       0.000686       0.000000
      0.000733       0.001688       0.000000
      0.001197       0.002505       0.000000
      0.001318       0.002463       0.000000
      0.000814       0.001560       0.000000
      0.001077       0.002534       0.000000
      0.001316       0.003260       0.000000
      0.001436       0.003271       0.000000
      0.001197       0.002505       0.000000
      0.001316       0.003260       0.000000
      0.001115       0.003977       0.000000
      0.001237       0.004028       0.000000
      0.001436       0.003271       0.000000
      0.001197       0.002505       0.000000
      0.001436       0.003271       0.000000
      0.001567       0.003284       0.000000
      0.001318       0.002463       0.000000
      0.001436       0.003271       0.000000
      0.001237       0.004028       0.000000
      0.001361       0.004100       0.000000
      0.001567       0.003284       0.000000
      0.001115       0.003977       0.000000
      0.000708       0.004705       0.000000
      0.000818       0.004824       0.000000
      0.001237       0.004028       0.000000
      0.000708       0.004705       0.000000
      0.000350       0.005338       0.000000
      0.000453       0.005546       0.000000
      0.000818       0.004824       0.000000
      0.001237       0.004028       0.000000
      0.000818       0.004824       0.000000
      0.000927       0.004985       0.000000
      0.001361       0.004100       0.000000
      0.000818       0.004824       0.000000
      0.000453       0.005546       0.000000
      0.000577       0.005843       0.000000
      0.000927       0.004985       0.000000
      0.000323       0.000686       0.000000
      0.000814       0.001560       0.000000
      0.000884       0.001464       0.000000
      0.000262       0.000378       0.000000
      0.000814       0.001560       0.000000
      0.001318       0.002463       0.000000
      0.001431       0.002452       0.000000
      0.000884       0.001464       0.000000
      0.000262       0.000378       0.000000
      0.000884       0.001464       0.000000
      0.000946       0.001421       0.000000
      0.000000       0.000000       0.000000
      0.000884       0.001464       0.000000
      0.001431       0.002452       0.000000
      0.001530       0.002498       0.000000
      0.000946       0.001421       0.000000
      0.001318       0.002463       0.000000
      0.001567       0.003284       0.000000
      0.001701       0.003297       0.000000
      0.001431       0.002452       0.000000
      0.001567       0.003284       0.000000
      0.001361       0.004100       0.000000
      0.001481       0.004146       0.000000
      0.001701       0.003297       0.000000
      0.001431       0.002452       0.000000
      0.001701       0.003297       0.000000
      0.001823       0.003308       0.000000
      0.001530       0.002498       0.000000
      0.001701       0.003297       0.000000
      0.001481       0.004146       0.000000
      0.001592       0.004134       0.000000
      0.001823       0.003308       0.000000
      0.001361       0.004100       0.000000
      0.000927       0.004985       0.000000
      0.001036       0.005141       0.000000
      0.001481       0.004146       0.000000
      0.000927       0.004985       0.000000
      0.000577       0.005843       0.000000
      0.000742       0.006204       0.000000
      0.001036       0.005141       0.000000
      0.001481       0.004146       0.000000
      0.001036       0.005141       0.000000
      0.001163       0.005282       0.000000
      0.001592       0.004134       0.000000
      0.001036       0.005141       0.000000
      0.000742       0.006204       0.000000
      0.000977       0.006652       0.000000
      0.001163       0.005282       0.000000
      0.000797       0.003935       0.000000
      0.000792       0.004456       0.000000
      0.000917       0.004193       0.000000
      0.001025       0.003760       0.000000
      0.001066       0.003243       0.000000
      0.001025       0.003760       0.000000
      0.001134       0.003656       0.000000
      0.001187       0.003250       0.000000
      0.001025       0.003760       0.000000
      0.000917       0.004193       0.000000
      0.000990       0.004043       0.000000
      0.001134       0.003656       0.000000
      0.000762       0.002029       0.000000
      0.000783       0.002539       0.000000
      0.001004       0.002728       0.000000
      0.000880       0.002299       0.000000
      0.000880       0.002299       0.000000
      0.001004       0.002728       0.000000
      0.001113       0.002843       0.000000
      0.000952       0.002454       0.000000
      0.001004       0.002728       0.000000
      0.001066       0.003243       0.000000
      0.001187       0.003250       0.000000
      0.001113       0.002843       0.000000
      0.000780       0.003604       0.000000
      0.000797       0.003935       0.000000
      0.000937       0.003847       0.000000
      0.000952       0.003558       0.000000
      0.000953       0.003237       0.000000
      0.000952       0.003558       0.000000
      0.001058       0.003509       0.000000
      0.001066       0.003243       0.000000
      0.000952       0.003558       0.000000
      0.000937       0.003847       0.000000
      0.001025       0.003760       0.000000
      0.001058       0.003509       0.000000
      0.000783       0.002539       0.000000
      0.000774       0.002863       0.000000
      0.000942       0.002919       0.000000
      0.000918       0.002635       0.000000
      0.000918       0.002635       0.000000
      0.000942       0.002919       0.000000
      0.001047       0.002977       0.000000
      0.001004       0.002728       0.000000
      0.000942       0.002919       0.000000
      0.000953       0.003237       0.000000
      0.001066       0.003243       0.000000
      0.001047       0.002977       0.000000
      0.000768       0.003232       0.000000
      0.000772       0.003421       0.000000
      0.000874       0.003413       0.000000
      0.000872       0.003234       0.000000
      0.000772       0.003421       0.000000
      0.000780       0.003604       0.000000
      0.000876       0.003585       0.000000
      0.000874       0.003413       0.000000
      0.000872       0.003234       0.000000
      0.000874       0.003413       0.000000
      0.000954       0.003400       0.000000
      0.000953       0.003237       0.000000
      0.000874       0.003413       0.000000
      0.000876       0.003585       0.000000
      0.000952       0.003558       0.000000
      0.000954       0.003400       0.000000
      0.000774       0.002863       0.000000
      0.000769       0.003044       0.000000
      0.000870       0.003057       0.000000
      0.000868       0.002887       0.000000
      0.000769       0.003044       0.000000
      0.000768       0.003232       0.000000
      0.000872       0.003234       0.000000
      0.000870       0.003057       0.000000
      0.000868       0.002887       0.000000
      0.000870       0.003057       0.000000
      0.000949       0.003075       0.000000
      0.000942       0.002919       0.000000
      0.000870       0.003057       0.000000
      0.000872       0.003234       0.000000
      0.000953       0.003237       0.000000
      0.000949       0.003075       0.000000
     -0.000995       0.000734       0.000000
     -0.000677       0.000390       0.000000
     -0.000360       0.000468       0.000000
     -0.000621       0.000968       0.000000
     -0.000677       0.000390       0.000000
     -0.000407       0.000187       0.000000
     -0.000226       0.000157       0.000000
     -0.000360       0.000468       0.000000
     -0.000621       0.000968       0.000000
     -0.000360       0.000468       0.000000
     -0.000206       0.000459       0.000000
     -0.000444       0.000963       0.000000
     -0.000360       0.000468       0.000000
     -0.000226       0.000157       0.000000
     -0.000134       0.000142       0.000000
     -0.000206       0.000459       0.000000
     -0.000407       0.000187       0.000000
     -0.000189       0.000133       0.000000
     -0.000169       0.000113       0.000000
     -0.000226       0.000157       0.000000
     -0.000189       0.000133       0.000000
     -0.000002       0.000222       0.000000
     -0.000116       0.000326       0.000000
     -0.000169       0.000113       0.000000
     -0.000226       0.000157       0.000000
     -0.000169       0.000113       0.000000
     -0.000156       0.000124       0.000000
     -0.000134       0.000142       0.000000
     -0.000169       0.000113       0.000000
     -0.000116       0.000326       0.000000
     -0.000137       0.000375       0.000000
     -0.000156       0.000124       0.000000
     -0.000002       0.000222       0.000000
      0.000188       0.000450       0.000000
      0.000009       0.000724       0.000000
     -0.000116       0.000326       0.000000
      0.000188       0.000450       0.000000
      0.000387       0.000805       0.000000
      0.000230       0.001197       0.000000
      0.000009       0.000724       0.000000
     -0.000116       0.000326       0.000000
      0.000009       0.000724       0.000000
      0.000010       0.000756       0.000000
     -0.000137       0.000375       0.000000
      0.000009       0.000724       0.000000
      0.000230       0.001197       0.000000
      0.000269       0.001161       0.000000
      0.000010       0.000756       0.000000
     -0.000444       0.000963       0.000000
     -0.000206       0.000459       0.000000
     -0.000104       0.000396       0.000000
     -0.000328       0.000853       0.000000
     -0.000206       0.000459       0.000000
     -0.000134       0.000142       0.000000
     -0.000072       0.000121       0.000000
     -0.000104       0.000396       0.000000
     -0.000328       0.000853       0.000000
     -0.000104       0.000396       0.000000
     -0.000034       0.000291       0.000000
     -0.000257       0.000656       0.000000
     -0.000104       0.000396       0.000000
     -0.000072       0.000121       0.000000
     -0.000028       0.000090       0.000000
     -0.000034       0.000291       0.000000
     -0.000134       0.000142       0.000000
     -0.000156       0.000124       0.000000
     -0.000137       0.000122       0.000000
     -0.000072       0.000121       0.000000
     -0.000156       0.000124       0.000000
     -0.000137       0.000375       0.000000
     -0.000124       0.000346       0.000000
     -0.000137       0.000122       0.000000
     -0.000072       0.000121       0.000000
     -0.000137       0.000122       0.000000
     -0.000109       0.000099       0.000000
     -0.000028       0.000090       0.000000
     -0.000137       0.000122       0.000000
     -0.000124       0.000346       0.000000
     -0.000096       0.000261       0.000000
     -0.000109       0.000099       0.000000
     -0.000137       0.000375       0.000000
      0.000010       0.000756       0.000000
      0.000038       0.000644       0.000000