# vtk DataFile Version 2.0
time_10.vtk
ASCII
DATASET UNSTRUCTURED_GRID
POINTS   576 float
      0.458579       0.641421       0.000000
      0.497369       0.671659       0.000000
      0.438243       0.730363       0.000000
      0.382149       0.701184       0.000000
      0.497369       0.671659       0.000000
      0.545805       0.692517       0.000000
      0.506084       0.750000       0.000000
      0.438243       0.730363       0.000000
      0.382149       0.701184       0.000000
      0.438243       0.730363       0.000000
      0.380813       0.787383       0.000000
      0.305719       0.760948       0.000000
      0.438243       0.730363       0.000000
      0.506084       0.750000       0.000000
      0.468251       0.804752       0.000000
      0.380813       0.787383       0.000000
      0.545805       0.692517       0.000000
      0.600000       0.700000       0.000000
      0.581017       0.756950       0.000000
      0.506084       0.750000       0.000000
      0.600000       0.700000       0.000000
      0.654195       0.692517       0.000000
      0.656527       0.750000       0.000000
      0.581017       0.756950       0.000000
      0.506084       0.750000       0.000000
      0.581017       0.756950       0.000000
      0.563060       0.810819       0.000000
      0.468251       0.804752       0.000000
      0.581017       0.756950       0.000000
      0.656527       0.750000       0.000000
      0.658747       0.804752       0.000000
      0.563060       0.810819       0.000000
      0.654195       0.692517       0.000000
      0.702631       0.671659       0.000000
      0.725999       0.730363       0.000000
      0.656527       0.750000       0.000000
      0.702631       0.671659       0.000000
      0.741421       0.641421       0.000000
      0.784518       0.701184       0.000000
      0.725999       0.730363       0.000000
      0.656527       0.750000       0.000000
      0.725999       0.730363       0.000000
      0.748697       0.787383       0.000000
      0.658747       0.804752       0.000000
      0.725999       0.730363       0.000000
      0.784518       0.701184       0.000000
      0.827614       0.760948       0.000000
      0.748697       0.787383       0.000000
      0.305719       0.760948       0.000000
      0.380813       0.787383       0.000000
      0.325006       0.842791       0.000000
      0.229289       0.820711       0.000000
      0.380813       0.787383       0.000000
      0.468251       0.804752       0.000000
      0.432173       0.856962       0.000000
      0.325006       0.842791       0.000000
      0.229289       0.820711       0.000000
      0.325006       0.842791       0.000000
      0.270755       0.896655       0.000000
      0.152860       0.880474       0.000000
      0.325006       0.842791       0.000000
      0.432173       0.856962       0.000000
      0.397732       0.906804       0.000000
      0.270755       0.896655       0.000000
      0.468251       0.804752       0.000000
      0.563060       0.810819       0.000000
      0.546050       0.861851       0.000000
      0.432173       0.856962       0.000000
      0.563060       0.810819       0.000000
      0.658747       0.804752       0.000000
      0.660865       0.856962       0.000000
      0.546050       0.861851       0.000000
      0.432173       0.856962       0.000000
      0.546050       0.861851       0.000000
      0.529912       0.910264       0.000000
      0.397732       0.906804       0.000000
      0.546050       0.861851       0.000000
      0.660865       0.856962       0.000000
      0.662887       0.906804       0.000000
      0.529912       0.910264       0.000000
      0.658747       0.804752       0.000000
      0.748697       0.787383       0.000000
      0.770753       0.842791       0.000000
      0.660865       0.856962       0.000000
      0.748697       0.787383       0.000000
      0.827614       0.760948       0.000000
      0.870711       0.820711       0.000000
      0.770753       0.842791       0.000000
      0.660865       0.856962       0.000000
      0.770753       0.842791       0.000000
      0.792195       0.896655       0.000000
      0.662887       0.906804       0.000000
      0.770753       0.842791       0.000000
      0.870711       0.820711       0.000000
      0.913807       0.880474       0.000000
      0.792195       0.896655       0.000000
      0.152860       0.880474       0.000000
      0.270755       0.896655       0.000000
      0.217995       0.949038       0.000000
      0.076430       0.940237       0.000000
      0.270755       0.896655       0.000000
      0.397732       0.906804       0.000000
      0.364819       0.954435       0.000000
      0.217995       0.949038       0.000000
      0.076430       0.940237       0.000000
      0.217995       0.949038       0.000000
      0.166667       1.000000       0.000000
      0.000000       1.000000       0.000000
      0.217995       0.949038       0.000000
      0.364819       0.954435       0.000000
      0.333333       1.000000       0.000000
      0.166667       1.000000       0.000000
      0.397732       0.906804       0.000000
      0.529912       0.910264       0.000000
      0.514582       0.956255       0.000000
      0.364819       0.954435       0.000000
      0.529912       0.910264       0.000000
      0.662887       0.906804       0.000000
      0.664819       0.954435       0.000000
      0.514582       0.956255       0.000000
      0.364819       0.954435       0.000000
      0.514582       0.956255       0.000000
      0.500000       1.000000       0.000000
      0.333333       1.000000       0.000000
      0.514582       0.956255       0.000000
      0.664819       0.954435       0.000000
      0.666667       1.000000       0.000000
      0.500000       1.000000       0.000000
      0.662887       0.906804       0.000000
      0.792195       0.896655       0.000000
      0.813047       0.949038       0.000000
      0.664819       0.954435       0.000000
      0.792195       0.896655       0.000000
      0.913807       0.880474       0.000000
      0.956904       0.940237       0.000000
      0.813047       0.949038       0.000000
      0.664819       0.954435       0.000000
      0.813047       0.949038       0.000000
      0.833333       1.000000       0.000000
      0.666667       1.000000       0.000000
      0.813047       0.949038       0.000000
      0.956904       0.940237       0.000000
      1.000000       1.000000       0.000000
      0.833333       1.000000       0.000000
      0.458579       0.358579       0.000000
      0.428341       0.397369       0.000000
      0.351758       0.356122       0.000000
      0.382149       0.298816       0.000000
      0.428341       0.397369       0.000000
      0.407483       0.445805       0.000000
      0.331305       0.424779       0.000000
      0.351758       0.356122       0.000000
      0.382149       0.298816       0.000000
      0.351758       0.356122       0.000000
      0.277372       0.316058       0.000000
      0.305719       0.239052       0.000000
      0.351758       0.356122       0.000000
      0.331305       0.424779       0.000000
      0.258747       0.404752       0.000000
      0.277372       0.316058       0.000000
      0.407483       0.445805       0.000000
      0.400000       0.500000       0.000000
      0.324066       0.500000       0.000000
      0.331305       0.424779       0.000000
      0.400000       0.500000       0.000000
      0.407483       0.554195       0.000000
      0.331305       0.575221       0.000000
      0.324066       0.500000       0.000000
      0.331305       0.424779       0.000000
      0.324066       0.500000       0.000000
      0.252241       0.500000       0.000000
      0.258747       0.404752       0.000000
      0.324066       0.500000       0.000000
      0.331305       0.575221       0.000000
      0.258747       0.595248       0.000000
      0.252241       0.500000       0.000000
      0.407483       0.554195       0.000000
      0.428341       0.602631       0.000000
      0.351758       0.643878       0.000000
      0.331305       0.575221       0.000000
      0.428341       0.602631       0.000000
      0.458579       0.641421       0.000000
      0.382149       0.701184       0.000000
      0.351758       0.643878       0.000000
      0.331305       0.575221       0.000000
      0.351758       0.643878       0.000000
      0.277372       0.683942       0.000000
      0.258747       0.595248       0.000000
      0.351758       0.643878       0.000000
      0.382149       0.701184       0.000000
      0.305719       0.760948       0.000000
      0.277372       0.683942       0.000000
      0.305719       0.239052       0.000000
      0.277372       0.316058       0.000000
      0.205089       0.277126       0.000000
      0.229289       0.179289       0.000000
      0.277372       0.316058       0.000000
      0.258747       0.404752       0.000000
      0.189557       0.385654       0.000000
      0.205089       0.277126       0.000000
      0.229289       0.179289       0.000000
      0.205089       0.277126       0.000000
      0.134820       0.239280       0.000000
      0.152860       0.119526       0.000000
      0.205089       0.277126       0.000000
      0.189557       0.385654       0.000000
      0.123505       0.367423       0.000000
      0.134820       0.239280       0.000000
      0.258747       0.404752       0.000000
      0.252241       0.500000       0.000000
      0.184198       0.500000       0.000000
      0.189557       0.385654       0.000000
      0.252241       0.500000       0.000000
      0.258747       0.595248       0.000000
      0.189557       0.614346       0.000000
      0.184198       0.500000       0.000000
      0.189557       0.385654       0.000000
      0.184198       0.500000       0.000000
      0.119648       0.500000       0.000000
      0.123505       0.367423       0.000000
[...]
POINT_DATA   576
VECTORS U float 
      0.000406       0.005274       0.000000
      0.000209       0.005644       0.000000
      0.000035       0.005364       0.000000
      0.000266       0.004892       0.000000
      0.000209       0.005644       0.000000
      0.000003       0.005890       0.000000
     -0.000116       0.005783       0.000000
      0.000035       0.005364       0.000000
      0.000266       0.004892       0.000000
      0.000035       0.005364       0.000000
      0.000059       0.005335       0.000000
      0.000334       0.004935       0.000000
      0.000035       0.005364       0.000000
     -0.000116       0.005783       0.000000
     -0.000131       0.005737       0.000000
      0.000059       0.005335       0.000000
      0.000003       0.005890       0.000000
     -0.000209       0.005991       0.000000
     -0.000197       0.006017       0.000000
     -0.000116       0.005783       0.000000
     -0.000209       0.005991       0.000000
     -0.000441       0.005940       0.000000
     -0.000274       0.005977       0.000000
     -0.000197       0.006017       0.000000
     -0.000116       0.005783       0.000000
     -0.000197       0.006017       0.000000
     -0.000195       0.006013       0.000000
     -0.000131       0.005737       0.000000
     -0.000197       0.006017       0.000000
     -0.000274       0.005977       0.000000
     -0.000206       0.006003       0.000000
     -0.000195       0.006013       0.000000
     -0.000441       0.005940       0.000000
     -0.000704       0.005736       0.000000
     -0.000415       0.005667       0.000000
     -0.000274       0.005977       0.000000
     -0.000704       0.005736       0.000000
     -0.000993       0.005396       0.000000
     -0.000664       0.005188       0.000000
     -0.000415       0.005667       0.000000
     -0.000274       0.005977       0.000000
     -0.000415       0.005667       0.000000
     -0.000297       0.005689       0.000000
     -0.000206       0.006003       0.000000
     -0.000415       0.005667       0.000000
     -0.000664       0.005188       0.000000
     -0.000530       0.005214       0.000000
     -0.000297       0.005689       0.000000
      0.000334       0.004935       0.000000
      0.000059       0.005335       0.000000
      0.000122       0.005446       0.000000
      0.000435       0.005141       0.000000
      0.000059       0.005335       0.000000
     -0.000131       0.005737       0.000000
     -0.000112       0.005772       0.000000
      0.000122       0.005446       0.000000
      0.000435       0.005141       0.000000
      0.000122       0.005446       0.000000
      0.000201       0.005640       0.000000
      0.000555       0.005427       0.000000
      0.000122       0.005446       0.000000
     -0.000112       0.005772       0.000000
     -0.000081       0.005866       0.000000
      0.000201       0.005640       0.000000
     -0.000131       0.005737       0.000000
     -0.000195       0.006013       0.000000
     -0.000190       0.006028       0.000000
     -0.000112       0.005772       0.000000
     -0.000195       0.006013       0.000000
     -0.000206       0.006003       0.000000
     -0.000171       0.006038       0.000000
     -0.000190       0.006028       0.000000
     -0.000112       0.005772       0.000000
     -0.000190       0.006028       0.000000
     -0.000184       0.006063       0.000000
     -0.000081       0.005866       0.000000
     -0.000190       0.006028       0.000000
     -0.000171       0.006038       0.000000
     -0.000149       0.006082       0.000000
     -0.000184       0.006063       0.000000
     -0.000206       0.006003       0.000000
     -0.000297       0.005689       0.000000
     -0.000235       0.005760       0.000000
     -0.000171       0.006038       0.000000
     -0.000297       0.005689       0.000000
     -0.000530       0.005214       0.000000
     -0.000456       0.005333       0.000000
     -0.000235       0.005760       0.000000
     -0.000171       0.006038       0.000000
     -0.000235       0.005760       0.000000
     -0.000201       0.005867       0.000000
     -0.000149       0.006082       0.000000
     -0.000235       0.005760       0.000000
     -0.000456       0.005333       0.000000
     -0.000436       0.005529       0.000000
     -0.000201       0.005867       0.000000
      0.000555       0.005427       0.000000
      0.000201       0.005640       0.000000
      0.000298       0.005890       0.000000
      0.000711       0.005768       0.000000
      0.000201       0.005640       0.000000
     -0.000081       0.005866       0.000000
     -0.000042       0.006005       0.000000
      0.000298       0.005890       0.000000
      0.000711       0.005768       0.000000
      0.000298       0.005890       0.000000
      0.000424       0.006182       0.000000
      0.000929       0.006182       0.000000
      0.000298       0.005890       0.000000
     -0.000042       0.006005       0.000000
      0.000011       0.006182       0.000000
      0.000424       0.006182       0.000000
     -0.000081       0.005866       0.000000
     -0.000184       0.006063       0.000000
     -0.000179       0.006116       0.000000
     -0.000042       0.006005       0.000000
     -0.000184       0.006063       0.000000
     -0.000149       0.006082       0.000000
     -0.000138       0.006131       0.000000
     -0.000179       0.006116       0.000000
     -0.000042       0.006005       0.000000
     -0.000179       0.006116       0.000000
     -0.000176       0.006182       0.000000
      0.000011       0.006182       0.000000
     -0.000179       0.006116       0.000000
     -0.000138       0.006131       0.000000
     -0.000134       0.006182       0.000000
     -0.000176       0.006182       0.000000
     -0.000149       0.006082       0.000000
     -0.000201       0.005867       0.000000
     -0.000191       0.006008       0.000000
     -0.000138       0.006131       0.000000
     -0.000201       0.005867       0.000000
     -0.000436       0.005529       0.000000
     -0.000474       0.005813       0.000000
     -0.000191       0.006008       0.000000
     -0.000138       0.006131       0.000000
     -0.000191       0.006008       0.000000
     -0.000205       0.006182       0.000000
     -0.000134       0.006182       0.000000
     -0.000191       0.006008       0.000000
     -0.000474       0.005813       0.000000
     -0.000571       0.006182       0.000000
     -0.000205       0.006182       0.000000
      0.000355       0.000783       0.000000
      0.000542       0.001268       0.000000
      0.000524       0.001679       0.000000
      0.000214       0.001148       0.000000
      0.000542       0.001268       0.000000
      0.000688       0.001971       0.000000
      0.000874       0.002318       0.000000
      0.000524       0.001679       0.000000
      0.000214       0.001148       0.000000
      0.000524       0.001679       0.000000
      0.000597       0.001690       0.000000
      0.000254       0.001102       0.000000
      0.000524       0.001679       0.000000
      0.000874       0.002318       0.000000
      0.000987       0.002367       0.000000
      0.000597       0.001690       0.000000
      0.000688       0.001971       0.000000
      0.000724       0.003005       0.000000
      0.001066       0.003019       0.000000
      0.000874       0.002318       0.000000
      0.000724       0.003005       0.000000
      0.000716       0.004051       0.000000
      0.000910       0.003718       0.000000
      0.001066       0.003019       0.000000
      0.000874       0.002318       0.000000
      0.001066       0.003019       0.000000
      0.001192       0.003029       0.000000
      0.000987       0.002367       0.000000
      0.001066       0.003019       0.000000
      0.000910       0.003718       0.000000
      0.001024       0.003684       0.000000
      0.001192       0.003029       0.000000
      0.000716       0.004051       0.000000
      0.000590       0.004768       0.000000
      0.000578       0.004353       0.000000
      0.000910       0.003718       0.000000
      0.000590       0.004768       0.000000
      0.000406       0.005274       0.000000
      0.000266       0.004892       0.000000
      0.000578       0.004353       0.000000
      0.000910       0.003718       0.000000
      0.000578       0.004353       0.000000
      0.000663       0.004348       0.000000
      0.001024       0.003684       0.000000
      0.000578       0.004353       0.000000
      0.000266       0.004892       0.000000
      0.000334       0.004935       0.000000
      0.000663       0.004348       0.000000
      0.000254       0.001102       0.000000
      0.000597       0.001690       0.000000
      0.000682       0.001581       0.000000
      0.000298       0.000902       0.000000
      0.000597       0.001690       0.000000
      0.000987       0.002367       0.000000
      0.001099       0.002331       0.000000
      0.000682       0.001581       0.000000
      0.000298       0.000902       0.000000
      0.000682       0.001581       0.000000
      0.000758       0.001453       0.000000
      0.000307       0.000643       0.000000
      0.000682       0.001581       0.000000
      0.001099       0.002331       0.000000
      0.001211       0.002288       0.000000
      0.000758       0.001453       0.000000
      0.000987       0.002367       0.000000
      0.001192       0.003029       0.000000
      0.001308       0.003040       0.000000
      0.001099       0.002331       0.000000
      0.001192       0.003029       0.000000
      0.001024       0.003684       0.000000
      0.001138       0.003741       0.000000
      0.001308       0.003040       0.000000
      0.001099       0.002331       0.000000
      0.001308       0.003040       0.000000
      0.001433       0.003053       0.000000
      0.001211       0.002288       0.000000
      0.001308       0.003040       0.000000
      0.001138       0.003741       0.000000
      0.001254       0.003813       0.000000
      0.001433       0.003053       0.000000
      0.001024       0.003684       0.000000
      0.000663       0.004348       0.000000
      0.000766       0.004472       0.000000
      0.001138       0.003741       0.000000
      0.000663       0.004348       0.000000
      0.000334       0.004935       0.000000
      0.000435       0.005141       0.000000
      0.000766       0.004472       0.000000
      0.001138       0.003741       0.000000
      0.000766       0.004472       0.000000
      0.000869       0.004632       0.000000
      0.001254       0.003813       0.000000
      0.000766       0.004472       0.000000
      0.000435       0.005141       0.000000
      0.000555       0.005427       0.000000
      0.000869       0.004632       0.000000
      0.000307       0.000643       0.000000
      0.000758       0.001453       0.000000
      0.000824       0.001359       0.000000
      0.000248       0.000354       0.000000
      0.000758       0.001453       0.000000
      0.001211       0.002288       0.000000
      0.001318       0.002274       0.000000
      0.000824       0.001359       0.000000
      0.000248       0.000354       0.000000
      0.000824       0.001359       0.000000
      0.000882       0.001315       0.000000
      0.000000       0.000000       0.000000
      0.000824       0.001359       0.000000
      0.001318       0.002274       0.000000
      0.001412       0.002312       0.000000
      0.000882       0.001315       0.000000
      0.001211       0.002288       0.000000
      0.001433       0.003053       0.000000
      0.001560       0.003066       0.000000
      0.001318       0.002274       0.000000
      0.001433       0.003053       0.000000
      0.001254       0.003813       0.000000
      0.001368       0.003863       0.000000
      0.001560       0.003066       0.000000
      0.001318       0.002274       0.000000
      0.001560       0.003066       0.000000
      0.001676       0.003077       0.000000
      0.001412       0.002312       0.000000
      0.001560       0.003066       0.000000
      0.001368       0.003863       0.000000
      0.001474       0.003858       0.000000
      0.001676       0.003077       0.000000
      0.001254       0.003813       0.000000
      0.000869       0.004632       0.000000
      0.000974       0.004785       0.000000
      0.001368       0.003863       0.000000
      0.000869       0.004632       0.000000
      0.000555       0.005427       0.000000
      0.000711       0.005768       0.000000
      0.000974       0.004785       0.000000
      0.001368       0.003863       0.000000
      0.000974       0.004785       0.000000
      0.001095       0.004921       0.000000
      0.001474       0.003858       0.000000
      0.000974       0.004785       0.000000
      0.000711       0.005768       0.000000
      0.000929       0.006182       0.000000
      0.001095       0.004921       0.000000
     -0.000932       0.000730       0.000000
     -0.000639       0.000392       0.000000
     -0.000341       0.000466       0.000000
     -0.000589       0.000946       0.000000
     -0.000639       0.000392       0.000000
     -0.000386       0.000191       0.000000
     -0.000214       0.000162       0.000000
     -0.000341       0.000466       0.000000
     -0.000589       0.000946       0.000000
     -0.000341       0.000466       0.000000
     -0.000198       0.000452       0.000000
     -0.000429       0.000929       0.000000
     -0.000341       0.000466       0.000000
     -0.000214       0.000162       0.000000
     -0.000128       0.000146       0.000000
     -0.000198       0.000452       0.000000
     -0.000386       0.000191       0.000000
     -0.000182       0.000136       0.000000
     -0.000162       0.000117       0.000000
     -0.000214       0.000162       0.000000
     -0.000182       0.000136       0.000000
     -0.000006       0.000220       0.000000
     -0.000114       0.000320       0.000000
     -0.000162       0.000117       0.000000
     -0.000214       0.000162       0.000000
     -0.000162       0.000117       0.000000
     -0.000149       0.000126       0.000000
     -0.000128       0.000146       0.000000
     -0.000162       0.000117       0.000000
     -0.000114       0.000320       0.000000
     -0.000131       0.000364       0.000000
     -0.000149       0.000126       0.000000
     -0.000006       0.000220       0.000000
      0.000171       0.000440       0.000000
      0.000005       0.000701       0.000000
     -0.000114       0.000320       0.000000
      0.000171       0.000440       0.000000
      0.000355       0.000783       0.000000
      0.000214       0.001148       0.000000
      0.000005       0.000701       0.000000
     -0.000114       0.000320       0.000000
      0.000005       0.000701       0.000000
      0.000010       0.000725       0.000000
     -0.000131       0.000364       0.000000
      0.000005       0.000701       0.000000
      0.000214       0.001148       0.000000
      0.000254       0.001102       0.000000
      0.000010       0.000725       0.000000
     -0.000429       0.000929       0.000000
     -0.000198       0.000452       0.000000
     -0.000104       0.000386       0.000000
     -0.000321       0.000815       0.000000
     -0.000198       0.000452       0.000000
     -0.000128       0.000146       0.000000
     -0.000070       0.000123       0.000000
     -0.000104       0.000386       0.000000
     -0.000321       0.000815       0.000000
     -0.000104       0.000386       0.000000
     -0.000038       0.000282       0.000000
     -0.000252       0.000624       0.000000
     -0.000104       0.000386       0.000000
     -0.000070       0.000123       0.000000
     -0.000028       0.000091       0.000000
     -0.000038       0.000282       0.000000
     -0.000128       0.000146       0.000000
     -0.000149       0.000126       0.000000
     -0.000130       0.000122       0.000000
     -0.000070       0.000123       0.000000
     -0.000149       0.000126       0.000000
     -0.000131       0.000364       0.000000
     -0.000117       0.000334       0.000000
     -0.000130       0.000122       0.000000
     -0.000070       0.000123       0.000000
     -0.000130       0.000122       0.000000
     -0.000103       0.000098       0.000000
     -0.000028       0.000091       0.000000
     -0.000130       0.000122       0.000000
     -0.000117       0.000334       0.000000
     -0.000089       0.000251       0.000000
     -0.000103       0.000098       0.000000
     -0.000131       0.000364       0.000000
      0.000010       0.000725       0.000000
      0.000038       0.000614       0.000000
     -0.000117       0.000334       0.000000
      0.000010       0.000725       0.000000
      0.000254       0.001102       0.000000
      0.000298       0.000902       0.000000
      0.000038       0.000614       0.000000
     -0.000117       0.000334       0.000000
      0.000038       0.000614       0.000000
      0.000056       0.000433       0.000000
     -0.000089       0.000251       0.000000
      0.000038       0.000614       0.000000
      0.000298       0.000902       0.000000
      0.000307       0.000643       0.000000
      0.000056       0.000433       0.000000
     -0.000252       0.000624       0.000000
     -0.000038       0.000282       0.000000
     -0.000000       0.000150       0.000000
     -0.000195       0.000350       0.000000
     -0.000038       0.000282       0.000000
     -0.000028       0.000091       0.000000
     -0.000003       0.000051       0.000000
     -0.000000       0.000150       0.000000
     -0.000195       0.000350       0.000000
     -0.000000       0.000150       0.000000
      0.000000       0.000000       0.000000
      0.000000       0.000000       0.000000
     -0.000000       0.000150       0.000000
     -0.000003       0.000051       0.000000
      0.000000       0.000000       0.000000
      0.000000       0.000000       0.000000
     -0.000028       0.000091       0.000000
     -0.000103       0.000098       0.000000
     -0.000063       0.000057       0.000000
     -0.000003       0.000051       0.000000
     -0.000103       0.000098       0.000000
     -0.000089       0.000251       0.000000
     -0.000050       0.000133       0.000000
     -0.000063       0.000057       0.000000
     -0.000003       0.000051       0.000000
     -0.000063       0.000057       0.000000
      0.000000       0.000000       0.000000
      0.000000       0.000000       0.000000
     -0.000063       0.000057       0.000000
     -0.000050       0.000133       0.000000
      0.000000       0.000000       0.000000
      0.000000       0.000000       0.000000
     -0.000089       0.000251       0.000000
      0.000056       0.000433       0.000000
      0.000049       0.000219       0.000000
     -0.000050       0.000133       0.000000
      0.000056       0.000433       0.000000
      0.000307       0.000643       0.000000
      0.000248       0.000354       0.000000
      0.000049       0.000219       0.000000
     -0.000050       0.000133       0.000000
      0.000049       0.000219       0.000000
      0.000000       0.000000       0.000000
      0.000000       0.000000       0.000000
      0.000049       0.000219       0.000000
      0.000248       0.000354       0.000000
      0.000000       0.000000       0.000000
      0.000000       0.000000       0.000000
     -0.000932       0.000730       0.000000
     -0.001256       0.001223       0.000000
     -0.001031       0.001471       0.000000
     -0.000589       0.000946       0.000000
     -0.001256       0.001223       0.000000
     -0.001543       0.001944       0.000000
     -0.001578       0.002146       0.000000
     -0.001031       0.001471       0.000000
     -0.000589       0.000946       0.000000
     -0.001031       0.001471       0.000000
     -0.000895       0.001505       0.000000