# vtk DataFile Version 2.0
time_10.vtk
ASCII
DATASET UNSTRUCTURED_GRID
POINTS   576 float
      0.458579       0.641421       0.000000
      0.497369       0.671659       0.000000
      0.438243       0.730363       0.000000
      0.382149       0.701184       0.000000
      0.497369       0.671659       0.000000
      0.545805       0.692517       0.000000
      0.506084       0.750000       0.000000
      0.438243       0.730363       0.000000
      0.382149       0.701184       0.000000
      0.438243       0.730363       0.000000
      0.380813       0.787383       0.000000
      0.305719       0.760948       0.000000
      0.438243       0.730363       0.000000
      0.506084       0.750000       0.000000
      0.468251       0.804752       0.000000
      0.380813       0.787383       0.000000
      0.545805       0.692517       0.000000
      0.600000       0.700000       0.000000
      0.581017       0.756950       0.000000
      0.506084       0.750000       0.000000
      0.600000       0.700000       0.000000
      0.654195       0.692517       0.000000
      0.656527       0.750000       0.000000
      0.581017       0.756950       0.000000
      0.506084       0.750000       0.000000
      0.581017       0.756950       0.000000
      0.563060       0.810819       0.000000
      0.468251       0.804752       0.000000
      0.581017       0.756950       0.000000
      0.656527       0.750000       0.000000
      0.658747       0.804752       0.000000
      0.563060       0.810819       0.000000
      0.654195       0.692517       0.000000
      0.702631       0.671659       0.000000
      0.725999       0.730363       0.000000
      0.656527       0.750000       0.000000
      0.702631       0.671659       0.000000
      0.741421       0.641421       0.000000
      0.784518       0.701184       0.000000
      0.725999       0.730363       0.000000
      0.656527       0.750000       0.000000
      0.725999       0.730363       0.000000
      0.748697       0.787383       0.000000
      0.658747       0.804752       0.000000
      0.725999       0.730363       0.000000
      0.784518       0.701184       0.000000
      0.827614       0.760948       0.000000
      0.748697       0.787383       0.000000
      0.305719       0.760948       0.000000
      0.380813       0.787383       0.000000
      0.325006       0.842791       0.000000
      0.229289       0.820711       0.000000
      0.380813       0.787383       0.000000
      0.468251       0.804752       0.000000
      0.432173       0.856962       0.000000
      0.325006       0.842791       0.000000
      0.229289       0.820711       0.000000
      0.325006       0.842791       0.000000
      0.270755       0.896655       0.000000
      0.152860       0.880474       0.000000
      0.325006       0.842791       0.000000
      0.432173       0.856962       0.000000
      0.397732       0.906804       0.000000
      0.270755       0.896655       0.000000
      0.468251       0.804752       0.000000
      0.563060       0.810819       0.000000
      0.546050       0.861851       0.000000
      0.432173       0.856962       0.000000
      0.563060       0.810819       0.000000
      0.658747       0.804752       0.000000
      0.660865       0.856962       0.000000
      0.546050       0.861851       0.000000
      0.432173       0.856962       0.000000
      0.546050       0.861851       0.000000
      0.529912       0.910264       0.000000
      0.397732       0.906804       0.000000
      0.546050       0.861851       0.000000
      0.660865       0.856962       0.000000
      0.662887       0.906804       0.000000
      0.529912       0.910264       0.000000
      0.658747       0.804752       0.000000
      0.748697       0.787383       0.000000
      0.770753       0.842791       0.000000
      0.660865       0.856962       0.000000
      0.748697       0.787383       0.000000
      0.827614       0.760948       0.000000
      0.870711       0.820711       0.000000
      0.770753       0.842791       0.000000
      0.660865       0.856962       0.000000
      0.770753       0.842791       0.000000
      0.792195       0.896655       0.000000
      0.662887       0.906804       0.000000
      0.770753       0.842791       0.000000
      0.870711       0.820711       0.000000
      0.913807       0.880474       0.000000
      0.792195       0.896655       0.000000
      0.152860       0.880474       0.000000
      0.270755       0.896655       0.000000
      0.217995       0.949038       0.000000
      0.076430       0.940237       0.000000
      0.270755       0.896655       0.000000
      0.397732       0.906804       0.000000
      0.364819       0.954435       0.000000
      0.217995       0.949038       0.000000
      0.076430       0.940237       0.000000
      0.217995       0.949038       0.000000
      0.166667       1.000000       0.000000
      0.000000       1.000000       0.000000
      0.217995       0.949038       0.000000
      0.364819       0.954435       0.000000
      0.333333       1.000000       0.000000
      0.166667       1.000000       0.000000
      0.397732       0.906804       0.000000
      0.529912       0.910264       0.000000
      0.514582       0.956255       0.000000
      0.364819       0.954435       0.000000
      0.529912       0.910264       0.000000
      0.662887       0.906804       0.000000
      0.664819       0.954435       0.000000
      0.514582       0.956255       0.000000
      0.364819       0.954435       0.000000
      0.514582       0.956255       0.000000
      0.500000       1.000000       0.000000
      0.333333       1.000000       0.000000
      0.514582       0.956255       0.000000
      0.664819       0.954435       0.000000
      0.666667       1.000000       0.000000
      0.500000       1.000000       0.000000
      0.662887       0.906804       0.000000
      0.792195       0.896655       0.000000
      0.813047       0.949038       0.000000
      0.664819       0.954435       0.000000
      0.792195       0.896655       0.000000
      0.913807       0.880474       0.000000
      0.956904       0.940237       0.000000
      0.813047       0.949038       0.000000
      0.664819       0.954435       0.000000
      0.813047       0.949038       0.000000
      0.833333       1.000000       0.000000
      0.666667       1.000000       0.000000
      0.813047       0.949038       0.000000
      0.956904       0.940237       0.000000
      1.000000       1.000000       0.000000
      0.833333       1.000000       0.000000
      0.458579       0.358579       0.000000
      0.428341       0.397369       0.000000
      0.351758       0.356122       0.000000
      0.382149       0.298816       0.000000
      0.428341       0.397369       0.000000
      0.407483       0.445805       0.000000
      0.331305       0.424779       0.000000
      0.351758       0.356122       0.000000
      0.382149       0.298816       0.000000
      0.351758       0.356122       0.000000
      0.277372       0.316058       0.000000
      0.305719       0.239052       0.000000
      0.351758       0.356122       0.000000
      0.331305       0.424779       0.000000
      0.258747       0.404752       0.000000
      0.277372       0.316058       0.000000
      0.407483       0.445805       0.000000
      0.400000       0.500000       0.000000
      0.324066       0.500000       0.000000
      0.331305       0.424779       0.000000
      0.400000       0.500000       0.000000
      0.407483       0.554195       0.000000
      0.331305       0.575221       0.000000
      0.324066       0.500000       0.000000
      0.331305       0.424779       0.000000
      0.324066       0.500000       0.000000
      0.252241       0.500000       0.000000
      0.258747       0.404752       0.000000
      0.324066       0.500000       0.000000
      0.331305       0.575221       0.000000
      0.258747       0.595248       0.000000
      0.252241       0.500000       0.000000
      0.407483       0.554195       0.000000
      0.428341       0.602631       0.000000
      0.351758       0.643878       0.000000
      0.331305       0.575221       0.000000
      0.428341       0.602631       0.000000
      0.458579       0.641421       0.000000
      0.382149       0.701184       0.000000
      0.351758       0.643878       0.000000
      0.331305       0.575221       0.000000
      0.351758       0.643878       0.000000
      0.277372       0.683942       0.000000
      0.258747       0.595248       0.000000
      0.351758       0.643878       0.000000
      0.382149       0.701184       0.000000
      0.305719       0.760948       0.000000
      0.277372       0.683942       0.000000
      0.305719       0.239052       0.000000
      0.277372       0.316058       0.000000
      0.205089       0.277126       0.000000
      0.229289       0.179289       0.000000
      0.277372       0.316058       0.000000
      0.258747       0.404752       0.000000
      0.189557       0.385654       0.000000
      0.205089       0.277126       0.000000
      0.229289       0.179289       0.000000
      0.205089       0.277126       0.000000
      0.134820       0.239280       0.000000
      0.152860       0.119526       0.000000
      0.205089       0.277126       0.000000
      0.189557       0.385654       0.000000
      0.123505       0.367423       0.000000
      0.134820       0.239280       0.000000
      0.258747       0.404752       0.000000
      0.252241       0.500000       0.000000
      0.184198       0.500000       0.000000
      0.189557       0.385654       0.000000
      0.252241       0.500000       0.000000
      0.258747       0.595248       0.000000
      0.189557       0.614346       0.000000
      0.184198       0.500000       0.000000
      0.189557       0.385654       0.000000
      0.184198       0.500000       0.000000
      0.119648       0.500000       0.000000
      0.123505       0.367423       0.000000
[...]
POINT_DATA   576
VECTORS U float 
      0.000386       0.005009       0.000000
      0.000199       0.005367       0.000000
      0.000033       0.005098       0.000000
      0.000255       0.004645       0.000000
      0.000199       0.005367       0.000000
      0.000002       0.005605       0.000000
     -0.000113       0.005501       0.000000
      0.000033       0.005098       0.000000
      0.000255       0.004645       0.000000
      0.000033       0.005098       0.000000
      0.000058       0.005073       0.000000
      0.000322       0.004693       0.000000
      0.000033       0.005098       0.000000
     -0.000113       0.005501       0.000000
     -0.000126       0.005459       0.000000
      0.000058       0.005073       0.000000
      0.000002       0.005605       0.000000
     -0.000202       0.005703       0.000000
     -0.000190       0.005728       0.000000
     -0.000113       0.005501       0.000000
     -0.000202       0.005703       0.000000
     -0.000424       0.005652       0.000000
     -0.000263       0.005689       0.000000
     -0.000190       0.005728       0.000000
     -0.000113       0.005501       0.000000
     -0.000190       0.005728       0.000000
     -0.000188       0.005725       0.000000
     -0.000126       0.005459       0.000000
     -0.000190       0.005728       0.000000
     -0.000263       0.005689       0.000000
     -0.000199       0.005715       0.000000
     -0.000188       0.005725       0.000000
     -0.000424       0.005652       0.000000
     -0.000675       0.005454       0.000000
     -0.000399       0.005389       0.000000
     -0.000263       0.005689       0.000000
     -0.000675       0.005454       0.000000
     -0.000949       0.005124       0.000000
     -0.000638       0.004927       0.000000
     -0.000399       0.005389       0.000000
     -0.000263       0.005689       0.000000
     -0.000399       0.005389       0.000000
     -0.000288       0.005412       0.000000
     -0.000199       0.005715       0.000000
     -0.000399       0.005389       0.000000
     -0.000638       0.004927       0.000000
     -0.000513       0.004957       0.000000
     -0.000288       0.005412       0.000000
      0.000322       0.004693       0.000000
      0.000058       0.005073       0.000000
      0.000121       0.005183       0.000000
      0.000421       0.004895       0.000000
      0.000058       0.005073       0.000000
     -0.000126       0.005459       0.000000
     -0.000106       0.005494       0.000000
      0.000121       0.005183       0.000000
      0.000421       0.004895       0.000000
      0.000121       0.005183       0.000000
      0.000198       0.005371       0.000000
      0.000537       0.005171       0.000000
      0.000121       0.005183       0.000000
     -0.000106       0.005494       0.000000
     -0.000075       0.005586       0.000000
      0.000198       0.005371       0.000000
     -0.000126       0.005459       0.000000
     -0.000188       0.005725       0.000000
     -0.000182       0.005740       0.000000
     -0.000106       0.005494       0.000000
     -0.000188       0.005725       0.000000
     -0.000199       0.005715       0.000000
     -0.000165       0.005749       0.000000
     -0.000182       0.005740       0.000000
     -0.000106       0.005494       0.000000
     -0.000182       0.005740       0.000000
     -0.000176       0.005775       0.000000
     -0.000075       0.005586       0.000000
     -0.000182       0.005740       0.000000
     -0.000165       0.005749       0.000000
     -0.000145       0.005793       0.000000
     -0.000176       0.005775       0.000000
     -0.000199       0.005715       0.000000
     -0.000288       0.005412       0.000000
     -0.000229       0.005482       0.000000
     -0.000165       0.005749       0.000000
     -0.000288       0.005412       0.000000
     -0.000513       0.004957       0.000000
     -0.000444       0.005074       0.000000
     -0.000229       0.005482       0.000000
     -0.000165       0.005749       0.000000
     -0.000229       0.005482       0.000000
     -0.000197       0.005587       0.000000
     -0.000145       0.005793       0.000000
     -0.000229       0.005482       0.000000
     -0.000444       0.005074       0.000000
     -0.000425       0.005265       0.000000
     -0.000197       0.005587       0.000000
      0.000537       0.005171       0.000000
      0.000198       0.005371       0.000000
      0.000292       0.005612       0.000000
      0.000687       0.005498       0.000000
      0.000198       0.005371       0.000000
     -0.000075       0.005586       0.000000
     -0.000036       0.005721       0.000000
      0.000292       0.005612       0.000000
      0.000687       0.005498       0.000000
      0.000292       0.005612       0.000000
      0.000413       0.005892       0.000000
      0.000894       0.005892       0.000000
      0.000292       0.005612       0.000000
     -0.000036       0.005721       0.000000
      0.000015       0.005892       0.000000
      0.000413       0.005892       0.000000
     -0.000075       0.005586       0.000000
     -0.000176       0.005775       0.000000
     -0.000171       0.005827       0.000000
     -0.000036       0.005721       0.000000
     -0.000176       0.005775       0.000000
     -0.000145       0.005793       0.000000
     -0.000134       0.005842       0.000000
     -0.000171       0.005827       0.000000
     -0.000036       0.005721       0.000000
     -0.000171       0.005827       0.000000
     -0.000167       0.005892       0.000000
      0.000015       0.005892       0.000000
     -0.000171       0.005827       0.000000
     -0.000134       0.005842       0.000000
     -0.000130       0.005892       0.000000
     -0.000167       0.005892       0.000000
     -0.000145       0.005793       0.000000
     -0.000197       0.005587       0.000000
     -0.000188       0.005724       0.000000
     -0.000134       0.005842       0.000000
     -0.000197       0.005587       0.000000
     -0.000425       0.005265       0.000000
     -0.000462       0.005537       0.000000
     -0.000188       0.005724       0.000000
     -0.000134       0.005842       0.000000
     -0.000188       0.005724       0.000000
     -0.000202       0.005892       0.000000
     -0.000130       0.005892       0.000000
     -0.000188       0.005724       0.000000
     -0.000462       0.005537       0.000000
     -0.000555       0.005892       0.000000
     -0.000202       0.005892       0.000000
      0.000336       0.000762       0.000000
      0.000512       0.001232       0.000000
      0.000499       0.001618       0.000000
      0.000204       0.001110       0.000000
      0.000512       0.001232       0.000000
      0.000649       0.001909       0.000000
      0.000828       0.002223       0.000000
      0.000499       0.001618       0.000000
      0.000204       0.001110       0.000000
      0.000499       0.001618       0.000000
      0.000569       0.001620       0.000000
      0.000243       0.001061       0.000000
      0.000499       0.001618       0.000000
      0.000828       0.002223       0.000000
      0.000934       0.002261       0.000000
      0.000569       0.001620       0.000000
      0.000649       0.001909       0.000000
      0.000690       0.002864       0.000000
      0.001002       0.002877       0.000000
      0.000828       0.002223       0.000000
      0.000690       0.002864       0.000000
      0.000676       0.003828       0.000000
      0.000862       0.003528       0.000000
      0.001002       0.002877       0.000000
      0.000828       0.002223       0.000000
      0.001002       0.002877       0.000000
      0.001124       0.002887       0.000000
      0.000934       0.002261       0.000000
      0.001002       0.002877       0.000000
      0.000862       0.003528       0.000000
      0.000970       0.003506       0.000000
      0.001124       0.002887       0.000000
      0.000676       0.003828       0.000000
      0.000558       0.004519       0.000000
      0.000551       0.004129       0.000000
      0.000862       0.003528       0.000000
      0.000558       0.004519       0.000000
      0.000386       0.005009       0.000000
      0.000255       0.004645       0.000000
      0.000551       0.004129       0.000000
      0.000862       0.003528       0.000000
      0.000551       0.004129       0.000000
      0.000633       0.004134       0.000000
      0.000970       0.003506       0.000000
      0.000551       0.004129       0.000000
      0.000255       0.004645       0.000000
      0.000322       0.004693       0.000000
      0.000633       0.004134       0.000000
      0.000243       0.001061       0.000000
      0.000569       0.001620       0.000000
      0.000649       0.001511       0.000000
      0.000286       0.000866       0.000000
      0.000569       0.001620       0.000000
      0.000934       0.002261       0.000000
      0.001040       0.002223       0.000000
      0.000649       0.001511       0.000000
      0.000286       0.000866       0.000000
      0.000649       0.001511       0.000000
      0.000722       0.001387       0.000000
      0.000295       0.000615       0.000000
      0.000649       0.001511       0.000000
      0.001040       0.002223       0.000000
      0.001148       0.002181       0.000000
      0.000722       0.001387       0.000000
      0.000934       0.002261       0.000000
      0.001124       0.002887       0.000000
      0.001235       0.002898       0.000000
      0.001040       0.002223       0.000000
      0.001124       0.002887       0.000000
      0.000970       0.003506       0.000000
      0.001079       0.003565       0.000000
      0.001235       0.002898       0.000000
      0.001040       0.002223       0.000000
      0.001235       0.002898       0.000000
      0.001356       0.002911       0.000000
      0.001148       0.002181       0.000000
      0.001235       0.002898       0.000000
      0.001079       0.003565       0.000000
      0.001190       0.003636       0.000000
      0.001356       0.002911       0.000000
      0.000970       0.003506       0.000000
      0.000633       0.004134       0.000000
      0.000732       0.004258       0.000000
      0.001079       0.003565       0.000000
      0.000633       0.004134       0.000000
      0.000322       0.004693       0.000000
      0.000421       0.004895       0.000000
      0.000732       0.004258       0.000000
      0.001079       0.003565       0.000000
      0.000732       0.004258       0.000000
      0.000832       0.004414       0.000000
      0.001190       0.003636       0.000000
      0.000732       0.004258       0.000000
      0.000421       0.004895       0.000000
      0.000537       0.005171       0.000000
      0.000832       0.004414       0.000000
      0.000295       0.000615       0.000000
      0.000722       0.001387       0.000000
      0.000786       0.001294       0.000000
      0.000239       0.000338       0.000000
      0.000722       0.001387       0.000000
      0.001148       0.002181       0.000000
      0.001250       0.002166       0.000000
      0.000786       0.001294       0.000000
      0.000239       0.000338       0.000000
      0.000786       0.001294       0.000000
      0.000842       0.001250       0.000000
      0.000000       0.000000       0.000000
      0.000786       0.001294       0.000000
      0.001250       0.002166       0.000000
      0.001341       0.002200       0.000000
      0.000842       0.001250       0.000000
      0.001148       0.002181       0.000000
      0.001356       0.002911       0.000000
      0.001478       0.002924       0.000000
      0.001250       0.002166       0.000000
      0.001356       0.002911       0.000000
      0.001190       0.003636       0.000000
      0.001300       0.003686       0.000000
      0.001478       0.002924       0.000000
      0.001250       0.002166       0.000000
      0.001478       0.002924       0.000000
      0.001589       0.002934       0.000000
      0.001341       0.002200       0.000000
      0.001478       0.002924       0.000000
      0.001300       0.003686       0.000000
      0.001402       0.003684       0.000000
      0.001589       0.002934       0.000000
      0.001190       0.003636       0.000000
      0.000832       0.004414       0.000000
      0.000933       0.004564       0.000000
      0.001300       0.003686       0.000000
      0.000832       0.004414       0.000000
      0.000537       0.005171       0.000000
      0.000687       0.005498       0.000000
      0.000933       0.004564       0.000000
      0.001300       0.003686       0.000000
      0.000933       0.004564       0.000000
      0.001049       0.004696       0.000000
      0.001402       0.003684       0.000000
      0.000933       0.004564       0.000000
      0.000687       0.005498       0.000000
      0.000894       0.005892       0.000000
      0.001049       0.004696       0.000000
     -0.000892       0.000713       0.000000
     -0.000613       0.000384       0.000000
     -0.000327       0.000455       0.000000
     -0.000566       0.000919       0.000000
     -0.000613       0.000384       0.000000
     -0.000371       0.000189       0.000000
     -0.000206       0.000161       0.000000
     -0.000327       0.000455       0.000000
     -0.000566       0.000919       0.000000
     -0.000327       0.000455       0.000000
     -0.000192       0.000440       0.000000
     -0.000415       0.000898       0.000000
     -0.000327       0.000455       0.000000
     -0.000206       0.000161       0.000000
     -0.000123       0.000145       0.000000
     -0.000192       0.000440       0.000000
     -0.000371       0.000189       0.000000
     -0.000176       0.000135       0.000000
     -0.000157       0.000116       0.000000
     -0.000206       0.000161       0.000000
     -0.000176       0.000135       0.000000
     -0.000007       0.000216       0.000000
     -0.000111       0.000313       0.000000
     -0.000157       0.000116       0.000000
     -0.000206       0.000161       0.000000
     -0.000157       0.000116       0.000000
     -0.000144       0.000125       0.000000
     -0.000123       0.000145       0.000000
     -0.000157       0.000116       0.000000
     -0.000111       0.000313       0.000000
     -0.000127       0.000355       0.000000
     -0.000144       0.000125       0.000000
     -0.000007       0.000216       0.000000
      0.000162       0.000429       0.000000
      0.000003       0.000680       0.000000
     -0.000111       0.000313       0.000000
      0.000162       0.000429       0.000000
      0.000336       0.000762       0.000000
      0.000204       0.001110       0.000000
      0.000003       0.000680       0.000000
     -0.000111       0.000313       0.000000
      0.000003       0.000680       0.000000
      0.000009       0.000701       0.000000
     -0.000127       0.000355       0.000000
      0.000003       0.000680       0.000000
      0.000204       0.001110       0.000000
      0.000243       0.001061       0.000000
      0.000009       0.000701       0.000000
     -0.000415       0.000898       0.000000
     -0.000192       0.000440       0.000000
     -0.000102       0.000374       0.000000
     -0.000312       0.000785       0.000000
     -0.000192       0.000440       0.000000
     -0.000123       0.000145       0.000000
     -0.000068       0.000121       0.000000
     -0.000102       0.000374       0.000000
     -0.000312       0.000785       0.000000
     -0.000102       0.000374       0.000000
     -0.000038       0.000273       0.000000
     -0.000245       0.000600       0.000000
     -0.000102       0.000374       0.000000
     -0.000068       0.000121       0.000000
     -0.000028       0.000089       0.000000
     -0.000038       0.000273       0.000000
     -0.000123       0.000145       0.000000
     -0.000144       0.000125       0.000000
     -0.000126       0.000120       0.000000
     -0.000068       0.000121       0.000000
     -0.000144       0.000125       0.000000
     -0.000127       0.000355       0.000000
     -0.000113       0.000325       0.000000
     -0.000126       0.000120       0.000000
     -0.000068       0.000121       0.000000
     -0.000126       0.000120       0.000000
     -0.000100       0.000096       0.000000
     -0.000028       0.000089       0.000000
     -0.000126       0.000120       0.000000
     -0.000113       0.000325       0.000000
     -0.000086       0.000243       0.000000
     -0.000100       0.000096       0.000000
     -0.000127       0.000355       0.000000
      0.000009       0.000701       0.000000
      0.000037       0.000593       0.000000
     -0.000113       0.000325       0.000000
      0.000009       0.000701       0.000000
      0.000243       0.001061       0.000000
      0.000286       0.000866       0.000000
      0.000037       0.000593       0.000000
     -0.000113       0.000325       0.000000
      0.000037       0.000593       0.000000
      0.000055       0.000417       0.000000
     -0.000086       0.000243       0.000000
      0.000037       0.000593       0.000000
      0.000286       0.000866       0.000000
      0.000295       0.000615       0.000000
      0.000055       0.000417       0.000000
     -0.000245       0.000600       0.000000
     -0.000038       0.000273       0.000000
     -0.000001       0.000145       0.000000
     -0.000189       0.000337       0.000000
     -0.000038       0.000273       0.000000
     -0.000028       0.000089       0.000000
     -0.000004       0.000050       0.000000
     -0.000001       0.000145       0.000000
     -0.000189       0.000337       0.000000
     -0.000001       0.000145       0.000000
      0.000000       0.000000       0.000000
      0.000000       0.000000       0.000000
     -0.000001       0.000145       0.000000
     -0.000004       0.000050       0.000000
      0.000000       0.000000       0.000000
      0.000000       0.000000       0.000000
     -0.000028       0.000089       0.000000
     -0.000100       0.000096       0.000000
     -0.000061       0.000056       0.000000
     -0.000004       0.000050       0.000000
     -0.000100       0.000096       0.000000
     -0.000086       0.000243       0.000000
     -0.000048       0.000129       0.000000
     -0.000061       0.000056       0.000000
     -0.000004       0.000050       0.000000
     -0.000061       0.000056       0.000000
      0.000000       0.000000       0.000000
      0.000000       0.000000       0.000000
     -0.000061       0.000056       0.000000
     -0.000048       0.000129       0.000000
      0.000000       0.000000       0.000000
      0.000000       0.000000       0.000000
     -0.000086       0.000243       0.000000
      0.000055       0.000417       0.000000
      0.000048       0.000210       0.000000
     -0.000048       0.000129       0.000000
      0.000055       0.000417       0.000000
      0.000295       0.000615       0.000000
      0.000239       0.000338       0.000000
      0.000048       0.000210       0.000000
     -0.000048       0.000129       0.000000
      0.000048       0.000210       0.000000
      0.000000       0.000000       0.000000
      0.000000       0.000000       0.000000
      0.000048       0.000210       0.000000
      0.000239       0.000338       0.000000
      0.000000       0.000000       0.000000
      0.000000       0.000000       0.000000
     -0.000892       0.000713       0.000000
     -0.001197       0.001192       0.000000
     -0.000987       0.001424       0.000000
     -0.000566       0.000919       0.000000
     -0.001197       0.001192       0.000000
     -0.001465       0.001891       0.000000
     -0.001502       0.002072       0.000000
     -0.000987       0.001424       0.000000
     -0.000566       0.000919       0.000000
     -0.000987       0.001424       0.000000
     -0.000860       0.001451       0.000000