# vtk DataFile Version 2.0
time_10.vtk
ASCII
DATASET UNSTRUCTURED_GRID
POINTS   576 float
      0.458579       0.641421       0.000000
      0.497369       0.671659       0.000000
      0.438243       0.730363       0.000000
      0.382149       0.701184       0.000000
      0.497369       0.671659       0.000000
      0.545805       0.692517       0.000000
      0.506084       0.750000       0.000000
      0.438243       0.730363       0.000000
      0.382149       0.701184       0.000000
      0.438243       0.730363       0.000000
      0.380813       0.787383       0.000000
      0.305719       0.760948       0.000000
      0.438243       0.730363       0.000000
      0.506084       0.750000       0.000000
      0.468251       0.804752       0.000000
      0.380813       0.787383       0.000000
      0.545805       0.692517       0.000000
      0.600000       0.700000       0.000000
      0.581017       0.756950       0.000000
      0.506084       0.750000       0.000000
      0.600000       0.700000       0.000000
      0.654195       0.692517       0.000000
      0.656527       0.750000       0.000000
      0.581017       0.756950       0.000000
      0.506084       0.750000       0.000000
      0.581017       0.756950       0.000000
      0.563060       0.810819       0.000000
      0.468251       0.804752       0.000000
      0.581017       0.756950       0.000000
      0.656527       0.750000       0.000000
      0.658747       0.804752       0.000000
      0.563060       0.810819       0.000000
      0.654195       0.692517       0.000000
      0.702631       0.671659       0.000000
      0.725999       0.730363       0.000000
      0.656527       0.750000       0.000000
      0.702631       0.671659       0.000000
      0.741421       0.641421       0.000000
      0.784518       0.701184       0.000000
      0.725999       0.730363       0.000000
      0.656527       0.750000       0.000000
      0.725999       0.730363       0.000000
      0.748697       0.787383       0.000000
      0.658747       0.804752       0.000000
      0.725999       0.730363       0.000000
      0.784518       0.701184       0.000000
      0.827614       0.760948       0.000000
      0.748697       0.787383       0.000000
      0.305719       0.760948       0.000000
      0.380813       0.787383       0.000000
      0.325006       0.842791       0.000000
      0.229289       0.820711       0.000000
      0.380813       0.787383       0.000000
      0.468251       0.804752       0.000000
      0.432173       0.856962       0.000000
      0.325006       0.842791       0.000000
      0.229289       0.820711       0.000000
      0.325006       0.842791       0.000000
      0.270755       0.896655       0.000000
      0.152860       0.880474       0.000000
      0.325006       0.842791       0.000000
      0.432173       0.856962       0.000000
      0.397732       0.906804       0.000000
      0.270755       0.896655       0.000000
      0.468251       0.804752       0.000000
      0.563060       0.810819       0.000000
      0.546050       0.861851       0.000000
      0.432173       0.856962       0.000000
      0.563060       0.810819       0.000000
      0.658747       0.804752       0.000000
      0.660865       0.856962       0.000000
      0.546050       0.861851       0.000000
      0.432173       0.856962       0.000000
      0.546050       0.861851       0.000000
      0.529912       0.910264       0.000000
      0.397732       0.906804       0.000000
      0.546050       0.861851       0.000000
      0.660865       0.856962       0.000000
      0.662887       0.906804       0.000000
      0.529912       0.910264       0.000000
      0.658747       0.804752       0.000000
      0.748697       0.787383       0.000000
      0.770753       0.842791       0.000000
      0.660865       0.856962       0.000000
      0.748697       0.787383       0.000000
      0.827614       0.760948       0.000000
      0.870711       0.820711       0.000000
      0.770753       0.842791       0.000000
      0.660865       0.856962       0.000000
      0.770753       0.842791       0.000000
      0.792195       0.896655       0.000000
      0.662887       0.906804       0.000000
      0.770753       0.842791       0.000000
      0.870711       0.820711       0.000000
      0.913807       0.880474       0.000000
      0.792195       0.896655       0.000000
      0.152860       0.880474       0.000000
      0.270755       0.896655       0.000000
      0.217995       0.949038       0.000000
      0.076430       0.940237       0.000000
      0.270755       0.896655       0.000000
      0.397732       0.906804       0.000000
      0.364819       0.954435       0.000000
      0.217995       0.949038       0.000000
      0.076430       0.940237       0.000000
      0.217995       0.949038       0.000000
      0.166667       1.000000       0.000000
      0.000000       1.000000       0.000000
      0.217995       0.949038       0.000000
      0.364819       0.954435       0.000000
      0.333333       1.000000       0.000000
      0.166667       1.000000       0.000000
      0.397732       0.906804       0.000000
      0.529912       0.910264       0.000000
      0.514582       0.956255       0.000000
      0.364819       0.954435       0.000000
      0.529912       0.910264       0.000000
      0.662887       0.906804       0.000000
      0.664819       0.954435       0.000000
      0.514582       0.956255       0.000000
      0.364819       0.954435       0.000000
      0.514582       0.956255       0.000000
      0.500000       1.000000       0.000000
      0.333333       1.000000       0.000000
      0.514582       0.956255       0.000000
      0.664819       0.954435       0.000000
      0.666667       1.000000       0.000000
      0.500000       1.000000       0.000000
      0.662887       0.906804       0.000000
      0.792195       0.896655       0.000000
      0.813047       0.949038       0.000000
      0.664819       0.954435       0.000000
      0.792195       0.896655       0.000000
      0.913807       0.880474       0.000000
      0.956904       0.940237       0.000000
      0.813047       0.949038       0.000000
      0.664819       0.954435       0.000000
      0.813047       0.949038       0.000000
      0.833333       1.000000       0.000000
      0.666667       1.000000       0.000000
      0.813047       0.949038       0.000000
      0.956904       0.940237       0.000000
      1.000000       1.000000       0.000000
      0.833333       1.000000       0.000000
      0.458579       0.358579       0.000000
      0.428341       0.397369       0.000000
      0.351758       0.356122       0.000000
      0.382149       0.298816       0.000000
      0.428341       0.397369       0.000000
      0.407483       0.445805       0.000000
      0.331305       0.424779       0.000000
      0.351758       0.356122       0.000000
      0.382149       0.298816       0.000000
      0.351758       0.356122       0.000000
      0.277372       0.316058       0.000000
      0.305719       0.239052       0.000000
      0.351758       0.356122       0.000000
      0.331305       0.424779       0.000000
      0.258747       0.404752       0.000000
      0.277372       0.316058       0.000000
      0.407483       0.445805       0.000000
      0.400000       0.500000       0.000000
      0.324066       0.500000       0.000000
      0.331305       0.424779       0.000000
      0.400000       0.500000       0.000000
      0.407483       0.554195       0.000000
      0.331305       0.575221       0.000000
      0.324066       0.500000       0.000000
      0.331305       0.424779       0.000000
      0.324066       0.500000       0.000000
      0.252241       0.500000       0.000000
      0.258747       0.404752       0.000000
      0.324066       0.500000       0.000000
      0.331305       0.575221       0.000000
      0.258747       0.595248       0.000000
      0.252241       0.500000       0.000000
      0.407483       0.554195       0.000000
      0.428341       0.602631       0.000000
      0.351758       0.643878       0.000000
      0.331305       0.575221       0.000000
      0.428341       0.602631       0.000000
      0.458579       0.641421       0.000000
      0.382149       0.701184       0.000000
      0.351758       0.643878       0.000000
      0.331305       0.575221       0.000000
      0.351758       0.643878       0.000000
      0.277372       0.683942       0.000000
      0.258747       0.595248       0.000000
      0.351758       0.643878       0.000000
      0.382149       0.701184       0.000000
      0.305719       0.760948       0.000000
      0.277372       0.683942       0.000000
      0.305719       0.239052       0.000000
      0.277372       0.316058       0.000000
      0.205089       0.277126       0.000000
      0.229289       0.179289       0.000000
      0.277372       0.316058       0.000000
      0.258747       0.404752       0.000000
      0.189557       0.385654       0.000000
      0.205089       0.277126       0.000000
      0.229289       0.179289       0.000000
      0.205089       0.277126       0.000000
      0.134820       0.239280       0.000000
      0.152860       0.119526       0.000000
      0.205089       0.277126       0.000000
      0.189557       0.385654       0.000000
      0.123505       0.367423       0.000000
      0.134820       0.239280       0.000000
      0.258747       0.404752       0.000000
      0.252241       0.500000       0.000000
      0.184198       0.500000       0.000000
      0.189557       0.385654       0.000000
      0.252241       0.500000       0.000000
      0.258747       0.595248       0.000000
      0.189557       0.614346       0.000000
      0.184198       0.500000       0.000000
      0.189557       0.385654       0.000000
      0.184198       0.500000       0.000000
      0.119648       0.500000       0.000000
      0.123505       0.367423       0.000000
[...]
POINT_DATA   576
VECTORS U float 
      0.000367       0.004774       0.000000
      0.000190       0.005120       0.000000
      0.000031       0.004862       0.000000
      0.000244       0.004427       0.000000
      0.000190       0.005120       0.000000
      0.000001       0.005351       0.000000
     -0.000109       0.005251       0.000000
      0.000031       0.004862       0.000000
      0.000244       0.004427       0.000000
      0.000031       0.004862       0.000000
      0.000057       0.004840       0.000000
      0.000310       0.004477       0.000000
      0.000031       0.004862       0.000000
     -0.000109       0.005251       0.000000
     -0.000121       0.005211       0.000000
      0.000057       0.004840       0.000000
      0.000001       0.005351       0.000000
     -0.000194       0.005446       0.000000
     -0.000183       0.005469       0.000000
     -0.000109       0.005251       0.000000
     -0.000194       0.005446       0.000000
     -0.000408       0.005397       0.000000
     -0.000254       0.005432       0.000000
     -0.000183       0.005469       0.000000
     -0.000109       0.005251       0.000000
     -0.000183       0.005469       0.000000
     -0.000181       0.005467       0.000000
     -0.000121       0.005211       0.000000
     -0.000183       0.005469       0.000000
     -0.000254       0.005432       0.000000
     -0.000193       0.005457       0.000000
     -0.000181       0.005467       0.000000
     -0.000408       0.005397       0.000000
     -0.000649       0.005204       0.000000
     -0.000384       0.005141       0.000000
     -0.000254       0.005432       0.000000
     -0.000649       0.005204       0.000000
     -0.000910       0.004884       0.000000
     -0.000614       0.004697       0.000000
     -0.000384       0.005141       0.000000
     -0.000254       0.005432       0.000000
     -0.000384       0.005141       0.000000
     -0.000279       0.005165       0.000000
     -0.000193       0.005457       0.000000
     -0.000384       0.005141       0.000000
     -0.000614       0.004697       0.000000
     -0.000495       0.004728       0.000000
     -0.000279       0.005165       0.000000
      0.000310       0.004477       0.000000
      0.000057       0.004840       0.000000
      0.000119       0.004948       0.000000
      0.000406       0.004675       0.000000
      0.000057       0.004840       0.000000
     -0.000121       0.005211       0.000000
     -0.000100       0.005246       0.000000
      0.000119       0.004948       0.000000
      0.000406       0.004675       0.000000
      0.000119       0.004948       0.000000
      0.000194       0.005131       0.000000
      0.000519       0.004942       0.000000
      0.000119       0.004948       0.000000
     -0.000100       0.005246       0.000000
     -0.000070       0.005335       0.000000
      0.000194       0.005131       0.000000
     -0.000121       0.005211       0.000000
     -0.000181       0.005467       0.000000
     -0.000175       0.005483       0.000000
     -0.000100       0.005246       0.000000
     -0.000181       0.005467       0.000000
     -0.000193       0.005457       0.000000
     -0.000160       0.005492       0.000000
     -0.000175       0.005483       0.000000
     -0.000100       0.005246       0.000000
     -0.000175       0.005483       0.000000
     -0.000169       0.005518       0.000000
     -0.000070       0.005335       0.000000
     -0.000175       0.005483       0.000000
     -0.000160       0.005492       0.000000
     -0.000141       0.005535       0.000000
     -0.000169       0.005518       0.000000
     -0.000193       0.005457       0.000000
     -0.000279       0.005165       0.000000
     -0.000223       0.005234       0.000000
     -0.000160       0.005492       0.000000
     -0.000279       0.005165       0.000000
     -0.000495       0.004728       0.000000
     -0.000431       0.004844       0.000000
     -0.000223       0.005234       0.000000
     -0.000160       0.005492       0.000000
     -0.000223       0.005234       0.000000
     -0.000193       0.005337       0.000000
     -0.000141       0.005535       0.000000
     -0.000223       0.005234       0.000000
     -0.000431       0.004844       0.000000
     -0.000413       0.005029       0.000000
     -0.000193       0.005337       0.000000
      0.000519       0.004942       0.000000
      0.000194       0.005131       0.000000
      0.000285       0.005363       0.000000
      0.000663       0.005256       0.000000
      0.000194       0.005131       0.000000
     -0.000070       0.005335       0.000000
     -0.000031       0.005467       0.000000
      0.000285       0.005363       0.000000
      0.000663       0.005256       0.000000
      0.000285       0.005363       0.000000
      0.000402       0.005632       0.000000
      0.000861       0.005632       0.000000
      0.000285       0.005363       0.000000
     -0.000031       0.005467       0.000000
      0.000018       0.005632       0.000000
      0.000402       0.005632       0.000000
     -0.000070       0.005335       0.000000
     -0.000169       0.005518       0.000000
     -0.000164       0.005568       0.000000
     -0.000031       0.005467       0.000000
     -0.000169       0.005518       0.000000
     -0.000141       0.005535       0.000000
     -0.000131       0.005582       0.000000
     -0.000164       0.005568       0.000000
     -0.000031       0.005467       0.000000
     -0.000164       0.005568       0.000000
     -0.000160       0.005632       0.000000
      0.000018       0.005632       0.000000
     -0.000164       0.005568       0.000000
     -0.000131       0.005582       0.000000
     -0.000127       0.005632       0.000000
     -0.000160       0.005632       0.000000
     -0.000141       0.005535       0.000000
     -0.000193       0.005337       0.000000
     -0.000185       0.005469       0.000000
     -0.000131       0.005582       0.000000
     -0.000193       0.005337       0.000000
     -0.000413       0.005029       0.000000
     -0.000448       0.005291       0.000000
     -0.000185       0.005469       0.000000
     -0.000131       0.005582       0.000000
     -0.000185       0.005469       0.000000
     -0.000198       0.005632       0.000000
     -0.000127       0.005632       0.000000
     -0.000185       0.005469       0.000000
     -0.000448       0.005291       0.000000
     -0.000538       0.005632       0.000000
     -0.000198       0.005632       0.000000
      0.000319       0.000740       0.000000
      0.000486       0.001195       0.000000
      0.000476       0.001560       0.000000
      0.000194       0.001073       0.000000
      0.000486       0.001195       0.000000
      0.000616       0.001847       0.000000
      0.000787       0.002135       0.000000
      0.000476       0.001560       0.000000
      0.000194       0.001073       0.000000
      0.000476       0.001560       0.000000
      0.000543       0.001556       0.000000
      0.000233       0.001022       0.000000
      0.000476       0.001560       0.000000
      0.000787       0.002135       0.000000
      0.000888       0.002164       0.000000
      0.000543       0.001556       0.000000
      0.000616       0.001847       0.000000
      0.000659       0.002738       0.000000
      0.000948       0.002750       0.000000
      0.000787       0.002135       0.000000
      0.000659       0.002738       0.000000
      0.000641       0.003636       0.000000
      0.000819       0.003362       0.000000
      0.000948       0.002750       0.000000
      0.000787       0.002135       0.000000
      0.000948       0.002750       0.000000
      0.001065       0.002759       0.000000
      0.000888       0.002164       0.000000
      0.000948       0.002750       0.000000
      0.000819       0.003362       0.000000
      0.000923       0.003348       0.000000
      0.001065       0.002759       0.000000
      0.000641       0.003636       0.000000
      0.000530       0.004301       0.000000
      0.000526       0.003933       0.000000
      0.000819       0.003362       0.000000
      0.000530       0.004301       0.000000
      0.000367       0.004774       0.000000
      0.000244       0.004427       0.000000
      0.000526       0.003933       0.000000
      0.000819       0.003362       0.000000
      0.000526       0.003933       0.000000
      0.000605       0.003944       0.000000
      0.000923       0.003348       0.000000
      0.000526       0.003933       0.000000
      0.000244       0.004427       0.000000
      0.000310       0.004477       0.000000
      0.000605       0.003944       0.000000
      0.000233       0.001022       0.000000
      0.000543       0.001556       0.000000
      0.000620       0.001448       0.000000
      0.000275       0.000832       0.000000
      0.000543       0.001556       0.000000
      0.000888       0.002164       0.000000
      0.000989       0.002126       0.000000
      0.000620       0.001448       0.000000
      0.000275       0.000832       0.000000
      0.000620       0.001448       0.000000
      0.000690       0.001327       0.000000
      0.000284       0.000590       0.000000
      0.000620       0.001448       0.000000
      0.000989       0.002126       0.000000
      0.001092       0.002084       0.000000
      0.000690       0.001327       0.000000
      0.000888       0.002164       0.000000
      0.001065       0.002759       0.000000
      0.001173       0.002770       0.000000
      0.000989       0.002126       0.000000
      0.001065       0.002759       0.000000
      0.000923       0.003348       0.000000
      0.001027       0.003407       0.000000
      0.001173       0.002770       0.000000
      0.000989       0.002126       0.000000
      0.001173       0.002770       0.000000
      0.001288       0.002783       0.000000
      0.001092       0.002084       0.000000
      0.001173       0.002770       0.000000
      0.001027       0.003407       0.000000
      0.001134       0.003477       0.000000
      0.001288       0.002783       0.000000
      0.000923       0.003348       0.000000
      0.000605       0.003944       0.000000
      0.000700       0.004067       0.000000
      0.001027       0.003407       0.000000
      0.000605       0.003944       0.000000
      0.000310       0.004477       0.000000
      0.000406       0.004675       0.000000
      0.000700       0.004067       0.000000
      0.001027       0.003407       0.000000
      0.000700       0.004067       0.000000
      0.000797       0.004220       0.000000
      0.001134       0.003477       0.000000
      0.000700       0.004067       0.000000
      0.000406       0.004675       0.000000
      0.000519       0.004942       0.000000
      0.000797       0.004220       0.000000
      0.000284       0.000590       0.000000
      0.000690       0.001327       0.000000
      0.000752       0.001235       0.000000
      0.000230       0.000324       0.000000
      0.000690       0.001327       0.000000
      0.001092       0.002084       0.000000
      0.001191       0.002069       0.000000
      0.000752       0.001235       0.000000
      0.000230       0.000324       0.000000
      0.000752       0.001235       0.000000
      0.000805       0.001193       0.000000
      0.000000       0.000000       0.000000
      0.000752       0.001235       0.000000
      0.001191       0.002069       0.000000
      0.001278       0.002099       0.000000
      0.000805       0.001193       0.000000
      0.001092       0.002084       0.000000
      0.001288       0.002783       0.000000
      0.001406       0.002796       0.000000
      0.001191       0.002069       0.000000
      0.001288       0.002783       0.000000
      0.001134       0.003477       0.000000
      0.001239       0.003527       0.000000
      0.001406       0.002796       0.000000
      0.001191       0.002069       0.000000
      0.001406       0.002796       0.000000
      0.001512       0.002806       0.000000
      0.001278       0.002099       0.000000
      0.001406       0.002796       0.000000
      0.001239       0.003527       0.000000
      0.001337       0.003527       0.000000
      0.001512       0.002806       0.000000
      0.001134       0.003477       0.000000
      0.000797       0.004220       0.000000
      0.000895       0.004366       0.000000
      0.001239       0.003527       0.000000
      0.000797       0.004220       0.000000
      0.000519       0.004942       0.000000
      0.000663       0.005256       0.000000
      0.000895       0.004366       0.000000
      0.001239       0.003527       0.000000
      0.000895       0.004366       0.000000
      0.001006       0.004493       0.000000
      0.001337       0.003527       0.000000
      0.000895       0.004366       0.000000
      0.000663       0.005256       0.000000
      0.000861       0.005632       0.000000
      0.001006       0.004493       0.000000
     -0.000854       0.000694       0.000000
     -0.000589       0.000375       0.000000
     -0.000315       0.000443       0.000000
     -0.000544       0.000890       0.000000
     -0.000589       0.000375       0.000000
     -0.000357       0.000185       0.000000
     -0.000199       0.000158       0.000000
     -0.000315       0.000443       0.000000
     -0.000544       0.000890       0.000000
     -0.000315       0.000443       0.000000
     -0.000186       0.000427       0.000000
     -0.000401       0.000867       0.000000
     -0.000315       0.000443       0.000000
     -0.000199       0.000158       0.000000
     -0.000119       0.000142       0.000000
     -0.000186       0.000427       0.000000
     -0.000357       0.000185       0.000000
     -0.000170       0.000133       0.000000
     -0.000152       0.000115       0.000000
     -0.000199       0.000158       0.000000
     -0.000170       0.000133       0.000000
     -0.000008       0.000212       0.000000
     -0.000108       0.000305       0.000000
     -0.000152       0.000115       0.000000
     -0.000199       0.000158       0.000000
     -0.000152       0.000115       0.000000
     -0.000140       0.000123       0.000000
     -0.000119       0.000142       0.000000
     -0.000152       0.000115       0.000000
     -0.000108       0.000305       0.000000
     -0.000123       0.000345       0.000000
     -0.000140       0.000123       0.000000
     -0.000008       0.000212       0.000000
      0.000153       0.000418       0.000000
      0.000001       0.000660       0.000000
     -0.000108       0.000305       0.000000
      0.000153       0.000418       0.000000
      0.000319       0.000740       0.000000
      0.000194       0.001073       0.000000
      0.000001       0.000660       0.000000
     -0.000108       0.000305       0.000000
      0.000001       0.000660       0.000000
      0.000008       0.000678       0.000000
     -0.000123       0.000345       0.000000
      0.000001       0.000660       0.000000
      0.000194       0.001073       0.000000
      0.000233       0.001022       0.000000
      0.000008       0.000678       0.000000
     -0.000401       0.000867       0.000000
     -0.000186       0.000427       0.000000
     -0.000100       0.000363       0.000000
     -0.000303       0.000757       0.000000
     -0.000186       0.000427       0.000000
     -0.000119       0.000142       0.000000
     -0.000066       0.000119       0.000000
     -0.000100       0.000363       0.000000
     -0.000303       0.000757       0.000000
     -0.000100       0.000363       0.000000
     -0.000038       0.000264       0.000000
     -0.000238       0.000578       0.000000
     -0.000100       0.000363       0.000000
     -0.000066       0.000119       0.000000
     -0.000027       0.000087       0.000000
     -0.000038       0.000264       0.000000
     -0.000119       0.000142       0.000000
     -0.000140       0.000123       0.000000
     -0.000122       0.000118       0.000000
     -0.000066       0.000119       0.000000
     -0.000140       0.000123       0.000000
     -0.000123       0.000345       0.000000
     -0.000108       0.000315       0.000000
     -0.000122       0.000118       0.000000
     -0.000066       0.000119       0.000000
     -0.000122       0.000118       0.000000
     -0.000096       0.000094       0.000000
     -0.000027       0.000087       0.000000
     -0.000122       0.000118       0.000000
     -0.000108       0.000315       0.000000
     -0.000082       0.000235       0.000000
     -0.000096       0.000094       0.000000
     -0.000123       0.000345       0.000000
      0.000008       0.000678       0.000000
      0.000036       0.000572       0.000000
     -0.000108       0.000315       0.000000
      0.000008       0.000678       0.000000
      0.000233       0.001022       0.000000
      0.000275       0.000832       0.000000
      0.000036       0.000572       0.000000
     -0.000108       0.000315       0.000000
      0.000036       0.000572       0.000000
      0.000054       0.000402       0.000000
     -0.000082       0.000235       0.000000
      0.000036       0.000572       0.000000
      0.000275       0.000832       0.000000
      0.000284       0.000590       0.000000
      0.000054       0.000402       0.000000
     -0.000238       0.000578       0.000000
     -0.000038       0.000264       0.000000
     -0.000002       0.000140       0.000000
     -0.000183       0.000325       0.000000
     -0.000038       0.000264       0.000000
     -0.000027       0.000087       0.000000
     -0.000004       0.000048       0.000000
     -0.000002       0.000140       0.000000
     -0.000183       0.000325       0.000000
     -0.000002       0.000140       0.000000
      0.000000       0.000000       0.000000
      0.000000       0.000000       0.000000
     -0.000002       0.000140       0.000000
     -0.000004       0.000048       0.000000
      0.000000       0.000000       0.000000
      0.000000       0.000000       0.000000
     -0.000027       0.000087       0.000000
     -0.000096       0.000094       0.000000
     -0.000059       0.000054       0.000000
     -0.000004       0.000048       0.000000
     -0.000096       0.000094       0.000000
     -0.000082       0.000235       0.000000
     -0.000046       0.000125       0.000000
     -0.000059       0.000054       0.000000
     -0.000004       0.000048       0.000000
     -0.000059       0.000054       0.000000
      0.000000       0.000000       0.000000
      0.000000       0.000000       0.000000
     -0.000059       0.000054       0.000000
     -0.000046       0.000125       0.000000
      0.000000       0.000000       0.000000
      0.000000       0.000000       0.000000
     -0.000082       0.000235       0.000000
      0.000054       0.000402       0.000000
      0.000047       0.000203       0.000000
     -0.000046       0.000125       0.000000
      0.000054       0.000402       0.000000
      0.000284       0.000590       0.000000
      0.000230       0.000324       0.000000
      0.000047       0.000203       0.000000
     -0.000046       0.000125       0.000000
      0.000047       0.000203       0.000000
      0.000000       0.000000       0.000000
      0.000000       0.000000       0.000000
      0.000047       0.000203       0.000000
      0.000230       0.000324       0.000000
      0.000000       0.000000       0.000000
      0.000000       0.000000       0.000000
     -0.000854       0.000694       0.000000
     -0.001143       0.001159       0.000000
     -0.000946       0.001378       0.000000
     -0.000544       0.000890       0.000000
     -0.001143       0.001159       0.000000
     -0.001396       0.001833       0.000000
     -0.001434       0.002000       0.000000
     -0.000946       0.001378       0.000000
     -0.000544       0.000890       0.000000
     -0.000946       0.001378       0.000000
     -0.000827       0.001399       0.000000