# vtk DataFile Version 2.0
time_10.vtk
ASCII
DATASET UNSTRUCTURED_GRID
POINTS   576 float
      0.458579       0.641421       0.000000
      0.497369       0.671659       0.000000
      0.438243       0.730363       0.000000
      0.382149       0.701184       0.000000
      0.497369       0.671659       0.000000
      0.545805       0.692517       0.000000
      0.506084       0.750000       0.000000
      0.438243       0.730363       0.000000
      0.382149       0.701184       0.000000
      0.438243       0.730363       0.000000
      0.380813       0.787383       0.000000
      0.305719       0.760948       0.000000
      0.438243       0.730363       0.000000
      0.506084       0.750000       0.000000
      0.468251       0.804752       0.000000
      0.380813       0.787383       0.000000
      0.545805       0.692517       0.000000
      0.600000       0.700000       0.000000
      0.581017       0.756950       0.000000
      0.506084       0.750000       0.000000
      0.600000       0.700000       0.000000
      0.654195       0.692517       0.000000
      0.656527       0.750000       0.000000
      0.581017       0.756950       0.000000
      0.506084       0.750000       0.000000
      0.581017       0.756950       0.000000
      0.563060       0.810819       0.000000
      0.468251       0.804752       0.000000
      0.581017       0.756950       0.000000
      0.656527       0.750000       0.000000
      0.658747       0.804752       0.000000
      0.563060       0.810819       0.000000
      0.654195       0.692517       0.000000
      0.702631       0.671659       0.000000
      0.725999       0.730363       0.000000
      0.656527       0.750000       0.000000
      0.702631       0.671659       0.000000
      0.741421       0.641421       0.000000
      0.784518       0.701184       0.000000
      0.725999       0.730363       0.000000
      0.656527       0.750000       0.000000
      0.725999       0.730363       0.000000
      0.748697       0.787383       0.000000
      0.658747       0.804752       0.000000
      0.725999       0.730363       0.000000
      0.784518       0.701184       0.000000
      0.827614       0.760948       0.000000
      0.748697       0.787383       0.000000
      0.305719       0.760948       0.000000
      0.380813       0.787383       0.000000
      0.325006       0.842791       0.000000
      0.229289       0.820711       0.000000
      0.380813       0.787383       0.000000
      0.468251       0.804752       0.000000
      0.432173       0.856962       0.000000
      0.325006       0.842791       0.000000
      0.229289       0.820711       0.000000
      0.325006       0.842791       0.000000
      0.270755       0.896655       0.000000
      0.152860       0.880474       0.000000
      0.325006       0.842791       0.000000
      0.432173       0.856962       0.000000
      0.397732       0.906804       0.000000
      0.270755       0.896655       0.000000
      0.468251       0.804752       0.000000
      0.563060       0.810819       0.000000
      0.546050       0.861851       0.000000
      0.432173       0.856962       0.000000
      0.563060       0.810819       0.000000
      0.658747       0.804752       0.000000
      0.660865       0.856962       0.000000
      0.546050       0.861851       0.000000
      0.432173       0.856962       0.000000
      0.546050       0.861851       0.000000
      0.529912       0.910264       0.000000
      0.397732       0.906804       0.000000
      0.546050       0.861851       0.000000
      0.660865       0.856962       0.000000
      0.662887       0.906804       0.000000
      0.529912       0.910264       0.000000
      0.658747       0.804752       0.000000
      0.748697       0.787383       0.000000
      0.770753       0.842791       0.000000
      0.660865       0.856962       0.000000
      0.748697       0.787383       0.000000
      0.827614       0.760948       0.000000
      0.870711       0.820711       0.000000
      0.770753       0.842791       0.000000
      0.660865       0.856962       0.000000
      0.770753       0.842791       0.000000
      0.792195       0.896655       0.000000
      0.662887       0.906804       0.000000
      0.770753       0.842791       0.000000
      0.870711       0.820711       0.000000
      0.913807       0.880474       0.000000
      0.792195       0.896655       0.000000
      0.152860       0.880474       0.000000
      0.270755       0.896655       0.000000
      0.217995       0.949038       0.000000
      0.076430       0.940237       0.000000
      0.270755       0.896655       0.000000
      0.397732       0.906804       0.000000
      0.364819       0.954435       0.000000
      0.217995       0.949038       0.000000
      0.076430       0.940237       0.000000
      0.217995       0.949038       0.000000
      0.166667       1.000000       0.000000
      0.000000       1.000000       0.000000
      0.217995       0.949038       0.000000
      0.364819       0.954435       0.000000
      0.333333       1.000000       0.000000
      0.166667       1.000000       0.000000
      0.397732       0.906804       0.000000
      0.529912       0.910264       0.000000
      0.514582       0.956255       0.000000
      0.364819       0.954435       0.000000
      0.529912       0.910264       0.000000
      0.662887       0.906804       0.000000
      0.664819       0.954435       0.000000
      0.514582       0.956255       0.000000
      0.364819       0.954435       0.000000
      0.514582       0.956255       0.000000
      0.500000       1.000000       0.000000
      0.333333       1.000000       0.000000
      0.514582       0.956255       0.000000
      0.664819       0.954435       0.000000
      0.666667       1.000000       0.000000
      0.500000       1.000000       0.000000
      0.662887       0.906804       0.000000
      0.792195       0.896655       0.000000
      0.813047       0.949038       0.000000
      0.664819       0.954435       0.000000
      0.792195       0.896655       0.000000
      0.913807       0.880474       0.000000
      0.956904       0.940237       0.000000
      0.813047       0.949038       0.000000
      0.664819       0.954435       0.000000
      0.813047       0.949038       0.000000
      0.833333       1.000000       0.000000
      0.666667       1.000000       0.000000
      0.813047       0.949038       0.000000
      0.956904       0.940237       0.000000
      1.000000       1.000000       0.000000
      0.833333       1.000000       0.000000
      0.458579       0.358579       0.000000
      0.428341       0.397369       0.000000
      0.351758       0.356122       0.000000
      0.382149       0.298816       0.000000
      0.428341       0.397369       0.000000
      0.407483       0.445805       0.000000
      0.331305       0.424779       0.000000
      0.351758       0.356122       0.000000
      0.382149       0.298816       0.000000
      0.351758       0.356122       0.000000
      0.277372       0.316058       0.000000
      0.305719       0.239052       0.000000
      0.351758       0.356122       0.000000
      0.331305       0.424779       0.000000
      0.258747       0.404752       0.000000
      0.277372       0.316058       0.000000
      0.407483       0.445805       0.000000
      0.400000       0.500000       0.000000
      0.324066       0.500000       0.000000
      0.331305       0.424779       0.000000
      0.400000       0.500000       0.000000
      0.407483       0.554195       0.000000
      0.331305       0.575221       0.000000
      0.324066       0.500000       0.000000
      0.331305       0.424779       0.000000
      0.324066       0.500000       0.000000
      0.252241       0.500000       0.000000
      0.258747       0.404752       0.000000
      0.324066       0.500000       0.000000
      0.331305       0.575221       0.000000
      0.258747       0.595248       0.000000
      0.252241       0.500000       0.000000
      0.407483       0.554195       0.000000
      0.428341       0.602631       0.000000
      0.351758       0.643878       0.000000
      0.331305       0.575221       0.000000
      0.428341       0.602631       0.000000
      0.458579       0.641421       0.000000
      0.382149       0.701184       0.000000
      0.351758       0.643878       0.000000
      0.331305       0.575221       0.000000
      0.351758       0.643878       0.000000
      0.277372       0.683942       0.000000
      0.258747       0.595248       0.000000
      0.351758       0.643878       0.000000
      0.382149       0.701184       0.000000
      0.305719       0.760948       0.000000
      0.277372       0.683942       0.000000
      0.305719       0.239052       0.000000
      0.277372       0.316058       0.000000
      0.205089       0.277126       0.000000
      0.229289       0.179289       0.000000
      0.277372       0.316058       0.000000
      0.258747       0.404752       0.000000
      0.189557       0.385654       0.000000
      0.205089       0.277126       0.000000
      0.229289       0.179289       0.000000
      0.205089       0.277126       0.000000
      0.134820       0.239280       0.000000
      0.152860       0.119526       0.000000
      0.205089       0.277126       0.000000
      0.189557       0.385654       0.000000
      0.123505       0.367423       0.000000
      0.134820       0.239280       0.000000
      0.258747       0.404752       0.000000
      0.252241       0.500000       0.000000
      0.184198       0.500000       0.000000
      0.189557       0.385654       0.000000
      0.252241       0.500000       0.000000
      0.258747       0.595248       0.000000
      0.189557       0.614346       0.000000
      0.184198       0.500000       0.000000
      0.189557       0.385654       0.000000
      0.184198       0.500000       0.000000
      0.119648       0.500000       0.000000
      0.123505       0.367423       0.000000
[...]
POINT_DATA   576
VECTORS U float 
      0.000396       0.005136       0.000000
      0.000204       0.005500       0.000000
      0.000034       0.005226       0.000000
      0.000260       0.004764       0.000000
      0.000204       0.005500       0.000000
      0.000003       0.005743       0.000000
     -0.000115       0.005637       0.000000
      0.000034       0.005226       0.000000
      0.000260       0.004764       0.000000
      0.000034       0.005226       0.000000
      0.000059       0.005199       0.000000
      0.000328       0.004810       0.000000
      0.000034       0.005226       0.000000
     -0.000115       0.005637       0.000000
     -0.000128       0.005593       0.000000
      0.000059       0.005199       0.000000
      0.000003       0.005743       0.000000
     -0.000205       0.005842       0.000000
     -0.000193       0.005867       0.000000
     -0.000115       0.005637       0.000000
     -0.000205       0.005842       0.000000
     -0.000432       0.005791       0.000000
     -0.000268       0.005828       0.000000
     -0.000193       0.005867       0.000000
     -0.000115       0.005637       0.000000
     -0.000193       0.005867       0.000000
     -0.000192       0.005864       0.000000
     -0.000128       0.005593       0.000000
     -0.000193       0.005867       0.000000
     -0.000268       0.005828       0.000000
     -0.000203       0.005854       0.000000
     -0.000192       0.005864       0.000000
     -0.000432       0.005791       0.000000
     -0.000689       0.005590       0.000000
     -0.000407       0.005523       0.000000
     -0.000268       0.005828       0.000000
     -0.000689       0.005590       0.000000
     -0.000970       0.005255       0.000000
     -0.000651       0.005053       0.000000
     -0.000407       0.005523       0.000000
     -0.000268       0.005828       0.000000
     -0.000407       0.005523       0.000000
     -0.000293       0.005545       0.000000
     -0.000203       0.005854       0.000000
     -0.000407       0.005523       0.000000
     -0.000651       0.005053       0.000000
     -0.000521       0.005081       0.000000
     -0.000293       0.005545       0.000000
      0.000328       0.004810       0.000000
      0.000059       0.005199       0.000000
      0.000122       0.005310       0.000000
      0.000428       0.005014       0.000000
      0.000059       0.005199       0.000000
     -0.000128       0.005593       0.000000
     -0.000109       0.005628       0.000000
      0.000122       0.005310       0.000000
      0.000428       0.005014       0.000000
      0.000122       0.005310       0.000000
      0.000199       0.005501       0.000000
      0.000546       0.005294       0.000000
      0.000122       0.005310       0.000000
     -0.000109       0.005628       0.000000
     -0.000078       0.005721       0.000000
      0.000199       0.005501       0.000000
     -0.000128       0.005593       0.000000
     -0.000192       0.005864       0.000000
     -0.000186       0.005879       0.000000
     -0.000109       0.005628       0.000000
     -0.000192       0.005864       0.000000
     -0.000203       0.005854       0.000000
     -0.000168       0.005889       0.000000
     -0.000186       0.005879       0.000000
     -0.000109       0.005628       0.000000
     -0.000186       0.005879       0.000000
     -0.000180       0.005914       0.000000
     -0.000078       0.005721       0.000000
     -0.000186       0.005879       0.000000
     -0.000168       0.005889       0.000000
     -0.000147       0.005932       0.000000
     -0.000180       0.005914       0.000000
     -0.000203       0.005854       0.000000
     -0.000293       0.005545       0.000000
     -0.000232       0.005616       0.000000
     -0.000168       0.005889       0.000000
     -0.000293       0.005545       0.000000
     -0.000521       0.005081       0.000000
     -0.000450       0.005199       0.000000
     -0.000232       0.005616       0.000000
     -0.000168       0.005889       0.000000
     -0.000232       0.005616       0.000000
     -0.000199       0.005722       0.000000
     -0.000147       0.005932       0.000000
     -0.000232       0.005616       0.000000
     -0.000450       0.005199       0.000000
     -0.000430       0.005392       0.000000
     -0.000199       0.005722       0.000000
      0.000546       0.005294       0.000000
      0.000199       0.005501       0.000000
      0.000295       0.005746       0.000000
      0.000699       0.005628       0.000000
      0.000199       0.005501       0.000000
     -0.000078       0.005721       0.000000
     -0.000039       0.005858       0.000000
      0.000295       0.005746       0.000000
      0.000699       0.005628       0.000000
      0.000295       0.005746       0.000000
      0.000419       0.006032       0.000000
      0.000911       0.006032       0.000000
      0.000295       0.005746       0.000000
     -0.000039       0.005858       0.000000
      0.000013       0.006032       0.000000
      0.000419       0.006032       0.000000
     -0.000078       0.005721       0.000000
     -0.000180       0.005914       0.000000
     -0.000175       0.005966       0.000000
     -0.000039       0.005858       0.000000
     -0.000180       0.005914       0.000000
     -0.000147       0.005932       0.000000
     -0.000136       0.005981       0.000000
     -0.000175       0.005966       0.000000
     -0.000039       0.005858       0.000000
     -0.000175       0.005966       0.000000
     -0.000171       0.006032       0.000000
      0.000013       0.006032       0.000000
     -0.000175       0.005966       0.000000
     -0.000136       0.005981       0.000000
     -0.000132       0.006032       0.000000
     -0.000171       0.006032       0.000000
     -0.000147       0.005932       0.000000
     -0.000199       0.005722       0.000000
     -0.000190       0.005861       0.000000
     -0.000136       0.005981       0.000000
     -0.000199       0.005722       0.000000
     -0.000430       0.005392       0.000000
     -0.000468       0.005670       0.000000
     -0.000190       0.005861       0.000000
     -0.000136       0.005981       0.000000
     -0.000190       0.005861       0.000000
     -0.000203       0.006032       0.000000
     -0.000132       0.006032       0.000000
     -0.000190       0.005861       0.000000
     -0.000468       0.005670       0.000000
     -0.000563       0.006032       0.000000
     -0.000203       0.006032       0.000000
      0.000345       0.000773       0.000000
      0.000527       0.001250       0.000000
      0.000511       0.001648       0.000000
      0.000209       0.001129       0.000000
      0.000527       0.001250       0.000000
      0.000668       0.001940       0.000000
      0.000850       0.002269       0.000000
      0.000511       0.001648       0.000000
      0.000209       0.001129       0.000000
      0.000511       0.001648       0.000000
      0.000583       0.001654       0.000000
      0.000249       0.001081       0.000000
      0.000511       0.001648       0.000000
      0.000850       0.002269       0.000000
      0.000960       0.002312       0.000000
      0.000583       0.001654       0.000000
      0.000668       0.001940       0.000000
      0.000707       0.002932       0.000000
      0.001032       0.002946       0.000000
      0.000850       0.002269       0.000000
      0.000707       0.002932       0.000000
      0.000695       0.003934       0.000000
      0.000885       0.003619       0.000000
      0.001032       0.002946       0.000000
      0.000850       0.002269       0.000000
      0.001032       0.002946       0.000000
      0.001156       0.002955       0.000000
      0.000960       0.002312       0.000000
      0.001032       0.002946       0.000000
      0.000885       0.003619       0.000000
      0.000996       0.003591       0.000000
      0.001156       0.002955       0.000000
      0.000695       0.003934       0.000000
      0.000573       0.004639       0.000000
      0.000564       0.004237       0.000000
      0.000885       0.003619       0.000000
      0.000573       0.004639       0.000000
      0.000396       0.005136       0.000000
      0.000260       0.004764       0.000000
      0.000564       0.004237       0.000000
      0.000885       0.003619       0.000000
      0.000564       0.004237       0.000000
      0.000647       0.004237       0.000000
      0.000996       0.003591       0.000000
      0.000564       0.004237       0.000000
      0.000260       0.004764       0.000000
      0.000328       0.004810       0.000000
      0.000647       0.004237       0.000000
      0.000249       0.001081       0.000000
      0.000583       0.001654       0.000000
      0.000665       0.001545       0.000000
      0.000292       0.000884       0.000000
      0.000583       0.001654       0.000000
      0.000960       0.002312       0.000000
      0.001068       0.002275       0.000000
      0.000665       0.001545       0.000000
      0.000292       0.000884       0.000000
      0.000665       0.001545       0.000000
      0.000740       0.001419       0.000000
      0.000301       0.000629       0.000000
      0.000665       0.001545       0.000000
      0.001068       0.002275       0.000000
      0.001178       0.002233       0.000000
      0.000740       0.001419       0.000000
      0.000960       0.002312       0.000000
      0.001156       0.002955       0.000000
      0.001270       0.002967       0.000000
      0.001068       0.002275       0.000000
      0.001156       0.002955       0.000000
      0.000996       0.003591       0.000000
      0.001107       0.003650       0.000000
      0.001270       0.002967       0.000000
      0.001068       0.002275       0.000000
      0.001270       0.002967       0.000000
      0.001393       0.002980       0.000000
      0.001178       0.002233       0.000000
      0.001270       0.002967       0.000000
      0.001107       0.003650       0.000000
      0.001221       0.003722       0.000000
      0.001393       0.002980       0.000000
      0.000996       0.003591       0.000000
      0.000647       0.004237       0.000000
      0.000748       0.004361       0.000000
      0.001107       0.003650       0.000000
      0.000647       0.004237       0.000000
      0.000328       0.004810       0.000000
      0.000428       0.005014       0.000000
      0.000748       0.004361       0.000000
      0.001107       0.003650       0.000000
      0.000748       0.004361       0.000000
      0.000850       0.004519       0.000000
      0.001221       0.003722       0.000000
      0.000748       0.004361       0.000000
      0.000428       0.005014       0.000000
      0.000546       0.005294       0.000000
      0.000850       0.004519       0.000000
      0.000301       0.000629       0.000000
      0.000740       0.001419       0.000000
      0.000805       0.001325       0.000000
      0.000243       0.000346       0.000000
      0.000740       0.001419       0.000000
      0.001178       0.002233       0.000000
      0.001283       0.002218       0.000000
      0.000805       0.001325       0.000000
      0.000243       0.000346       0.000000
      0.000805       0.001325       0.000000
      0.000861       0.001281       0.000000
      0.000000       0.000000       0.000000
      0.000805       0.001325       0.000000
      0.001283       0.002218       0.000000
      0.001375       0.002254       0.000000
      0.000861       0.001281       0.000000
      0.001178       0.002233       0.000000
      0.001393       0.002980       0.000000
      0.001517       0.002993       0.000000
      0.001283       0.002218       0.000000
      0.001393       0.002980       0.000000
      0.001221       0.003722       0.000000
      0.001332       0.003771       0.000000
      0.001517       0.002993       0.000000
      0.001283       0.002218       0.000000
      0.001517       0.002993       0.000000
      0.001630       0.003003       0.000000
      0.001375       0.002254       0.000000
      0.001517       0.002993       0.000000
      0.001332       0.003771       0.000000
      0.001436       0.003768       0.000000
      0.001630       0.003003       0.000000
      0.001221       0.003722       0.000000
      0.000850       0.004519       0.000000
      0.000953       0.004671       0.000000
      0.001332       0.003771       0.000000
      0.000850       0.004519       0.000000
      0.000546       0.005294       0.000000
      0.000699       0.005628       0.000000
      0.000953       0.004671       0.000000
      0.001332       0.003771       0.000000
      0.000953       0.004671       0.000000
      0.001071       0.004805       0.000000
      0.001436       0.003768       0.000000
      0.000953       0.004671       0.000000
      0.000699       0.005628       0.000000
      0.000911       0.006032       0.000000
      0.001071       0.004805       0.000000
     -0.000911       0.000722       0.000000
     -0.000625       0.000388       0.000000
     -0.000334       0.000461       0.000000
     -0.000577       0.000933       0.000000
     -0.000625       0.000388       0.000000
     -0.000379       0.000190       0.000000
     -0.000210       0.000162       0.000000
     -0.000334       0.000461       0.000000
     -0.000577       0.000933       0.000000
     -0.000334       0.000461       0.000000
     -0.000195       0.000446       0.000000
     -0.000422       0.000913       0.000000
     -0.000334       0.000461       0.000000
     -0.000210       0.000162       0.000000
     -0.000125       0.000145       0.000000
     -0.000195       0.000446       0.000000
     -0.000379       0.000190       0.000000
     -0.000179       0.000136       0.000000
     -0.000159       0.000117       0.000000
     -0.000210       0.000162       0.000000
     -0.000179       0.000136       0.000000
     -0.000006       0.000218       0.000000
     -0.000112       0.000316       0.000000
     -0.000159       0.000117       0.000000
     -0.000210       0.000162       0.000000
     -0.000159       0.000117       0.000000
     -0.000147       0.000126       0.000000
     -0.000125       0.000145       0.000000
     -0.000159       0.000117       0.000000
     -0.000112       0.000316       0.000000
     -0.000129       0.000360       0.000000
     -0.000147       0.000126       0.000000
     -0.000006       0.000218       0.000000
      0.000166       0.000435       0.000000
      0.000004       0.000691       0.000000
     -0.000112       0.000316       0.000000
      0.000166       0.000435       0.000000
      0.000345       0.000773       0.000000
      0.000209       0.001129       0.000000
      0.000004       0.000691       0.000000
     -0.000112       0.000316       0.000000
      0.000004       0.000691       0.000000
      0.000009       0.000713       0.000000
     -0.000129       0.000360       0.000000
      0.000004       0.000691       0.000000
      0.000209       0.001129       0.000000
      0.000249       0.001081       0.000000
      0.000009       0.000713       0.000000
     -0.000422       0.000913       0.000000
     -0.000195       0.000446       0.000000
     -0.000103       0.000380       0.000000
     -0.000317       0.000800       0.000000
     -0.000195       0.000446       0.000000
     -0.000125       0.000145       0.000000
     -0.000069       0.000122       0.000000
     -0.000103       0.000380       0.000000
     -0.000317       0.000800       0.000000
     -0.000103       0.000380       0.000000
     -0.000038       0.000278       0.000000
     -0.000249       0.000612       0.000000
     -0.000103       0.000380       0.000000
     -0.000069       0.000122       0.000000
     -0.000028       0.000090       0.000000
     -0.000038       0.000278       0.000000
     -0.000125       0.000145       0.000000
     -0.000147       0.000126       0.000000
     -0.000128       0.000121       0.000000
     -0.000069       0.000122       0.000000
     -0.000147       0.000126       0.000000
     -0.000129       0.000360       0.000000
     -0.000115       0.000329       0.000000
     -0.000128       0.000121       0.000000
     -0.000069       0.000122       0.000000
     -0.000128       0.000121       0.000000
     -0.000101       0.000097       0.000000
     -0.000028       0.000090       0.000000
     -0.000128       0.000121       0.000000
     -0.000115       0.000329       0.000000
     -0.000087       0.000247       0.000000
     -0.000101       0.000097       0.000000
     -0.000129       0.000360       0.000000
      0.000009       0.000713       0.000000
      0.000038       0.000603       0.000000
     -0.000115       0.000329       0.000000
      0.000009       0.000713       0.000000
      0.000249       0.001081       0.000000
      0.000292       0.000884       0.000000
      0.000038       0.000603       0.000000
     -0.000115       0.000329       0.000000
      0.000038       0.000603       0.000000
      0.000056       0.000425       0.000000
     -0.000087       0.000247       0.000000
      0.000038       0.000603       0.000000
      0.000292       0.000884       0.000000
      0.000301       0.000629       0.000000
      0.000056       0.000425       0.000000
     -0.000249       0.000612       0.000000
     -0.000038       0.000278       0.000000
     -0.000001       0.000147       0.000000
     -0.000192       0.000343       0.000000
     -0.000038       0.000278       0.000000
     -0.000028       0.000090       0.000000
     -0.000004       0.000050       0.000000
     -0.000001       0.000147       0.000000
     -0.000192       0.000343       0.000000
     -0.000001       0.000147       0.000000
      0.000000       0.000000       0.000000
      0.000000       0.000000       0.000000
     -0.000001       0.000147       0.000000
     -0.000004       0.000050       0.000000
      0.000000       0.000000       0.000000
      0.000000       0.000000       0.000000
     -0.000028       0.000090       0.000000
     -0.000101       0.000097       0.000000
     -0.000062       0.000057       0.000000
     -0.000004       0.000050       0.000000
     -0.000101       0.000097       0.000000
     -0.000087       0.000247       0.000000
     -0.000049       0.000131       0.000000
     -0.000062       0.000057       0.000000
     -0.000004       0.000050       0.000000
     -0.000062       0.000057       0.000000
      0.000000       0.000000       0.000000
      0.000000       0.000000       0.000000
     -0.000062       0.000057       0.000000
     -0.000049       0.000131       0.000000
      0.000000       0.000000       0.000000
      0.000000       0.000000       0.000000
     -0.000087       0.000247       0.000000
      0.000056       0.000425       0.000000
      0.000048       0.000214       0.000000
     -0.000049       0.000131       0.000000
      0.000056       0.000425       0.000000
      0.000301       0.000629       0.000000
      0.000243       0.000346       0.000000
      0.000048       0.000214       0.000000
     -0.000049       0.000131       0.000000
      0.000048       0.000214       0.000000
      0.000000       0.000000       0.000000
      0.000000       0.000000       0.000000
      0.000048       0.000214       0.000000
      0.000243       0.000346       0.000000
      0.000000       0.000000       0.000000
      0.000000       0.000000       0.000000
     -0.000911       0.000722       0.000000
     -0.001225       0.001208       0.000000
     -0.001008       0.001448       0.000000
     -0.000577       0.000933       0.000000
     -0.001225       0.001208       0.000000
     -0.001502       0.001919       0.000000
     -0.001539       0.002109       0.000000
     -0.001008       0.001448       0.000000
     -0.000577       0.000933       0.000000
     -0.001008       0.001448       0.000000
     -0.000877       0.001478       0.000000