# vtk DataFile Version 2.0
time_10.vtk
ASCII
DATASET UNSTRUCTURED_GRID
POINTS   576 float
      0.458579       0.641421       0.000000
      0.497369       0.671659       0.000000
      0.438243       0.730363       0.000000
      0.382149       0.701184       0.000000
      0.497369       0.671659       0.000000
      0.545805       0.692517       0.000000
      0.506084       0.750000       0.000000
      0.438243       0.730363       0.000000
      0.382149       0.701184       0.000000
      0.438243       0.730363       0.000000
      0.380813       0.787383       0.000000
      0.305719       0.760948       0.000000
      0.438243       0.730363       0.000000
      0.506084       0.750000       0.000000
      0.468251       0.804752       0.000000
      0.380813       0.787383       0.000000
      0.545805       0.692517       0.000000
      0.600000       0.700000       0.000000
      0.581017       0.756950       0.000000
      0.506084       0.750000       0.000000
      0.600000       0.700000       0.000000
      0.654195       0.692517       0.000000
      0.656527       0.750000       0.000000
      0.581017       0.756950       0.000000
      0.506084       0.750000       0.000000
      0.581017       0.756950       0.000000
      0.563060       0.810819       0.000000
      0.468251       0.804752       0.000000
      0.581017       0.756950       0.000000
      0.656527       0.750000       0.000000
      0.658747       0.804752       0.000000
      0.563060       0.810819       0.000000
      0.654195       0.692517       0.000000
      0.702631       0.671659       0.000000
      0.725999       0.730363       0.000000
      0.656527       0.750000       0.000000
      0.702631       0.671659       0.000000
      0.741421       0.641421       0.000000
      0.784518       0.701184       0.000000
      0.725999       0.730363       0.000000
      0.656527       0.750000       0.000000
      0.725999       0.730363       0.000000
      0.748697       0.787383       0.000000
      0.658747       0.804752       0.000000
      0.725999       0.730363       0.000000
      0.784518       0.701184       0.000000
      0.827614       0.760948       0.000000
      0.748697       0.787383       0.000000
      0.305719       0.760948       0.000000
      0.380813       0.787383       0.000000
      0.325006       0.842791       0.000000
      0.229289       0.820711       0.000000
      0.380813       0.787383       0.000000
      0.468251       0.804752       0.000000
      0.432173       0.856962       0.000000
      0.325006       0.842791       0.000000
      0.229289       0.820711       0.000000
      0.325006       0.842791       0.000000
      0.270755       0.896655       0.000000
      0.152860       0.880474       0.000000
      0.325006       0.842791       0.000000
      0.432173       0.856962       0.000000
      0.397732       0.906804       0.000000
      0.270755       0.896655       0.000000
      0.468251       0.804752       0.000000
      0.563060       0.810819       0.000000
      0.546050       0.861851       0.000000
      0.432173       0.856962       0.000000
      0.563060       0.810819       0.000000
      0.658747       0.804752       0.000000
      0.660865       0.856962       0.000000
      0.546050       0.861851       0.000000
      0.432173       0.856962       0.000000
      0.546050       0.861851       0.000000
      0.529912       0.910264       0.000000
      0.397732       0.906804       0.000000
      0.546050       0.861851       0.000000
      0.660865       0.856962       0.000000
      0.662887       0.906804       0.000000
      0.529912       0.910264       0.000000
      0.658747       0.804752       0.000000
      0.748697       0.787383       0.000000
      0.770753       0.842791       0.000000
      0.660865       0.856962       0.000000
      0.748697       0.787383       0.000000
      0.827614       0.760948       0.000000
      0.870711       0.820711       0.000000
      0.770753       0.842791       0.000000
      0.660865       0.856962       0.000000
      0.770753       0.842791       0.000000
      0.792195       0.896655       0.000000
      0.662887       0.906804       0.000000
      0.770753       0.842791       0.000000
      0.870711       0.820711       0.000000
      0.913807       0.880474       0.000000
      0.792195       0.896655       0.000000
      0.152860       0.880474       0.000000
      0.270755       0.896655       0.000000
      0.217995       0.949038       0.000000
      0.076430       0.940237       0.000000
      0.270755       0.896655       0.000000
      0.397732       0.906804       0.000000
      0.364819       0.954435       0.000000
      0.217995       0.949038       0.000000
      0.076430       0.940237       0.000000
      0.217995       0.949038       0.000000
      0.166667       1.000000       0.000000
      0.000000       1.000000       0.000000
      0.217995       0.949038       0.000000
      0.364819       0.954435       0.000000
      0.333333       1.000000       0.000000
      0.166667       1.000000       0.000000
      0.397732       0.906804       0.000000
      0.529912       0.910264       0.000000
      0.514582       0.956255       0.000000
      0.364819       0.954435       0.000000
      0.529912       0.910264       0.000000
      0.662887       0.906804       0.000000
      0.664819       0.954435       0.000000
      0.514582       0.956255       0.000000
      0.364819       0.954435       0.000000
      0.514582       0.956255       0.000000
      0.500000       1.000000       0.000000
      0.333333       1.000000       0.000000
      0.514582       0.956255       0.000000
      0.664819       0.954435       0.000000
      0.666667       1.000000       0.000000
      0.500000       1.000000       0.000000
      0.662887       0.906804       0.000000
      0.792195       0.896655       0.000000
      0.813047       0.949038       0.000000
      0.664819       0.954435       0.000000
      0.792195       0.896655       0.000000
      0.913807       0.880474       0.000000
      0.956904       0.940237       0.000000
      0.813047       0.949038       0.000000
      0.664819       0.954435       0.000000
      0.813047       0.949038       0.000000
      0.833333       1.000000       0.000000
      0.666667       1.000000       0.000000
      0.813047       0.949038       0.000000
      0.956904       0.940237       0.000000
      1.000000       1.000000       0.000000
      0.833333       1.000000       0.000000
      0.458579       0.358579       0.000000
      0.428341       0.397369       0.000000
      0.351758       0.356122       0.000000
      0.382149       0.298816       0.000000
      0.428341       0.397369       0.000000
      0.407483       0.445805       0.000000
      0.331305       0.424779       0.000000
      0.351758       0.356122       0.000000
      0.382149       0.298816       0.000000
      0.351758       0.356122       0.000000
      0.277372       0.316058       0.000000
      0.305719       0.239052       0.000000
      0.351758       0.356122       0.000000
      0.331305       0.424779       0.000000
      0.258747       0.404752       0.000000
      0.277372       0.316058       0.000000
      0.407483       0.445805       0.000000
      0.400000       0.500000       0.000000
      0.324066       0.500000       0.000000
      0.331305       0.424779       0.000000
      0.400000       0.500000       0.000000
      0.407483       0.554195       0.000000
      0.331305       0.575221       0.000000
      0.324066       0.500000       0.000000
      0.331305       0.424779       0.000000
      0.324066       0.500000       0.000000
      0.252241       0.500000       0.000000
      0.258747       0.404752       0.000000
      0.324066       0.500000       0.000000
      0.331305       0.575221       0.000000
      0.258747       0.595248       0.000000
      0.252241       0.500000       0.000000
      0.407483       0.554195       0.000000
      0.428341       0.602631       0.000000
      0.351758       0.643878       0.000000
      0.331305       0.575221       0.000000
      0.428341       0.602631       0.000000
      0.458579       0.641421       0.000000
      0.382149       0.701184       0.000000
      0.351758       0.643878       0.000000
      0.331305       0.575221       0.000000
      0.351758       0.643878       0.000000
      0.277372       0.683942       0.000000
      0.258747       0.595248       0.000000
      0.351758       0.643878       0.000000
      0.382149       0.701184       0.000000
      0.305719       0.760948       0.000000
      0.277372       0.683942       0.000000
      0.305719       0.239052       0.000000
      0.277372       0.316058       0.000000
      0.205089       0.277126       0.000000
      0.229289       0.179289       0.000000
      0.277372       0.316058       0.000000
      0.258747       0.404752       0.000000
      0.189557       0.385654       0.000000
      0.205089       0.277126       0.000000
      0.229289       0.179289       0.000000
      0.205089       0.277126       0.000000
      0.134820       0.239280       0.000000
      0.152860       0.119526       0.000000
      0.205089       0.277126       0.000000
      0.189557       0.385654       0.000000
      0.123505       0.367423       0.000000
      0.134820       0.239280       0.000000
      0.258747       0.404752       0.000000
      0.252241       0.500000       0.000000
      0.184198       0.500000       0.000000
      0.189557       0.385654       0.000000
      0.252241       0.500000       0.000000
      0.258747       0.595248       0.000000
      0.189557       0.614346       0.000000
      0.184198       0.500000       0.000000
      0.189557       0.385654       0.000000
      0.184198       0.500000       0.000000
      0.119648       0.500000       0.000000
      0.123505       0.367423       0.000000
[...]
POINT_DATA   576
VECTORS U float 
      0.000379       0.004927       0.000000
      0.000196       0.005281       0.000000
      0.000033       0.005016       0.000000
      0.000251       0.004569       0.000000
      0.000196       0.005281       0.000000
      0.000002       0.005517       0.000000
     -0.000111       0.005415       0.000000
      0.000033       0.005016       0.000000
      0.000251       0.004569       0.000000
      0.000033       0.005016       0.000000
      0.000058       0.004992       0.000000
      0.000318       0.004618       0.000000
      0.000033       0.005016       0.000000
     -0.000111       0.005415       0.000000
     -0.000124       0.005373       0.000000
      0.000058       0.004992       0.000000
      0.000002       0.005517       0.000000
     -0.000199       0.005614       0.000000
     -0.000187       0.005638       0.000000
     -0.000111       0.005415       0.000000
     -0.000199       0.005614       0.000000
     -0.000419       0.005564       0.000000
     -0.000260       0.005600       0.000000
     -0.000187       0.005638       0.000000
     -0.000111       0.005415       0.000000
     -0.000187       0.005638       0.000000
     -0.000186       0.005636       0.000000
     -0.000124       0.005373       0.000000
     -0.000187       0.005638       0.000000
     -0.000260       0.005600       0.000000
     -0.000197       0.005625       0.000000
     -0.000186       0.005636       0.000000
     -0.000419       0.005564       0.000000
     -0.000666       0.005368       0.000000
     -0.000394       0.005303       0.000000
     -0.000260       0.005600       0.000000
     -0.000666       0.005368       0.000000
     -0.000936       0.005041       0.000000
     -0.000630       0.004847       0.000000
     -0.000394       0.005303       0.000000
     -0.000260       0.005600       0.000000
     -0.000394       0.005303       0.000000
     -0.000285       0.005326       0.000000
     -0.000197       0.005625       0.000000
     -0.000394       0.005303       0.000000
     -0.000630       0.004847       0.000000
     -0.000507       0.004877       0.000000
     -0.000285       0.005326       0.000000
      0.000318       0.004618       0.000000
      0.000058       0.004992       0.000000
      0.000120       0.005101       0.000000
      0.000416       0.004819       0.000000
      0.000058       0.004992       0.000000
     -0.000124       0.005373       0.000000
     -0.000104       0.005408       0.000000
      0.000120       0.005101       0.000000
      0.000416       0.004819       0.000000
      0.000120       0.005101       0.000000
      0.000196       0.005288       0.000000
      0.000530       0.005091       0.000000
      0.000120       0.005101       0.000000
     -0.000104       0.005408       0.000000
     -0.000073       0.005499       0.000000
      0.000196       0.005288       0.000000
     -0.000124       0.005373       0.000000
     -0.000186       0.005636       0.000000
     -0.000180       0.005651       0.000000
     -0.000104       0.005408       0.000000
     -0.000186       0.005636       0.000000
     -0.000197       0.005625       0.000000
     -0.000164       0.005660       0.000000
     -0.000180       0.005651       0.000000
     -0.000104       0.005408       0.000000
     -0.000180       0.005651       0.000000
     -0.000173       0.005686       0.000000
     -0.000073       0.005499       0.000000
     -0.000180       0.005651       0.000000
     -0.000164       0.005660       0.000000
     -0.000144       0.005703       0.000000
     -0.000173       0.005686       0.000000
     -0.000197       0.005625       0.000000
     -0.000285       0.005326       0.000000
     -0.000227       0.005396       0.000000
     -0.000164       0.005660       0.000000
     -0.000285       0.005326       0.000000
     -0.000507       0.004877       0.000000
     -0.000440       0.004995       0.000000
     -0.000227       0.005396       0.000000
     -0.000164       0.005660       0.000000
     -0.000227       0.005396       0.000000
     -0.000196       0.005500       0.000000
     -0.000144       0.005703       0.000000
     -0.000227       0.005396       0.000000
     -0.000440       0.004995       0.000000
     -0.000421       0.005183       0.000000
     -0.000196       0.005500       0.000000
      0.000530       0.005091       0.000000
      0.000196       0.005288       0.000000
      0.000290       0.005526       0.000000
      0.000679       0.005414       0.000000
      0.000196       0.005288       0.000000
     -0.000073       0.005499       0.000000
     -0.000034       0.005633       0.000000
      0.000290       0.005526       0.000000
      0.000679       0.005414       0.000000
      0.000290       0.005526       0.000000
      0.000410       0.005802       0.000000
      0.000882       0.005802       0.000000
      0.000290       0.005526       0.000000
     -0.000034       0.005633       0.000000
      0.000016       0.005802       0.000000
      0.000410       0.005802       0.000000
     -0.000073       0.005499       0.000000
     -0.000173       0.005686       0.000000
     -0.000168       0.005737       0.000000
     -0.000034       0.005633       0.000000
     -0.000173       0.005686       0.000000
     -0.000144       0.005703       0.000000
     -0.000133       0.005752       0.000000
     -0.000168       0.005737       0.000000
     -0.000034       0.005633       0.000000
     -0.000168       0.005737       0.000000
     -0.000165       0.005802       0.000000
      0.000016       0.005802       0.000000
     -0.000168       0.005737       0.000000
     -0.000133       0.005752       0.000000
     -0.000129       0.005802       0.000000
     -0.000165       0.005802       0.000000
     -0.000144       0.005703       0.000000
     -0.000196       0.005500       0.000000
     -0.000187       0.005636       0.000000
     -0.000133       0.005752       0.000000
     -0.000196       0.005500       0.000000
     -0.000421       0.005183       0.000000
     -0.000457       0.005452       0.000000
     -0.000187       0.005636       0.000000
     -0.000133       0.005752       0.000000
     -0.000187       0.005636       0.000000
     -0.000201       0.005802       0.000000
     -0.000129       0.005802       0.000000
     -0.000187       0.005636       0.000000
     -0.000457       0.005452       0.000000
     -0.000549       0.005802       0.000000
     -0.000201       0.005802       0.000000
      0.000330       0.000755       0.000000
      0.000503       0.001220       0.000000
      0.000491       0.001599       0.000000
      0.000200       0.001098       0.000000
      0.000503       0.001220       0.000000
      0.000638       0.001888       0.000000
      0.000813       0.002193       0.000000
      0.000491       0.001599       0.000000
      0.000200       0.001098       0.000000
      0.000491       0.001599       0.000000
      0.000560       0.001598       0.000000
      0.000240       0.001048       0.000000
      0.000491       0.001599       0.000000
      0.000813       0.002193       0.000000
      0.000918       0.002227       0.000000
      0.000560       0.001598       0.000000
      0.000638       0.001888       0.000000
      0.000679       0.002820       0.000000
      0.000983       0.002833       0.000000
      0.000813       0.002193       0.000000
      0.000679       0.002820       0.000000
      0.000664       0.003761       0.000000
      0.000847       0.003470       0.000000
      0.000983       0.002833       0.000000
      0.000813       0.002193       0.000000
      0.000983       0.002833       0.000000
      0.001103       0.002843       0.000000
      0.000918       0.002227       0.000000
      0.000983       0.002833       0.000000
      0.000847       0.003470       0.000000
      0.000954       0.003451       0.000000
      0.001103       0.002843       0.000000
      0.000664       0.003761       0.000000
      0.000548       0.004443       0.000000
      0.000542       0.004061       0.000000
      0.000847       0.003470       0.000000
      0.000548       0.004443       0.000000
      0.000379       0.004927       0.000000
      0.000251       0.004569       0.000000
      0.000542       0.004061       0.000000
      0.000847       0.003470       0.000000
      0.000542       0.004061       0.000000
      0.000623       0.004068       0.000000
      0.000954       0.003451       0.000000
      0.000542       0.004061       0.000000
      0.000251       0.004569       0.000000
      0.000318       0.004618       0.000000
      0.000623       0.004068       0.000000
      0.000240       0.001048       0.000000
      0.000560       0.001598       0.000000
      0.000639       0.001490       0.000000
      0.000283       0.000854       0.000000
      0.000560       0.001598       0.000000
      0.000918       0.002227       0.000000
      0.001022       0.002190       0.000000
      0.000639       0.001490       0.000000
      0.000283       0.000854       0.000000
      0.000639       0.001490       0.000000
      0.000711       0.001366       0.000000
      0.000291       0.000607       0.000000
      0.000639       0.001490       0.000000
      0.001022       0.002190       0.000000
      0.001129       0.002147       0.000000
      0.000711       0.001366       0.000000
      0.000918       0.002227       0.000000
      0.001103       0.002843       0.000000
      0.001213       0.002854       0.000000
      0.001022       0.002190       0.000000
      0.001103       0.002843       0.000000
      0.000954       0.003451       0.000000
      0.001061       0.003510       0.000000
      0.001213       0.002854       0.000000
      0.001022       0.002190       0.000000
      0.001213       0.002854       0.000000
      0.001332       0.002867       0.000000
      0.001129       0.002147       0.000000
      0.001213       0.002854       0.000000
      0.001061       0.003510       0.000000
      0.001171       0.003581       0.000000
      0.001332       0.002867       0.000000
      0.000954       0.003451       0.000000
      0.000623       0.004068       0.000000
      0.000721       0.004192       0.000000
      0.001061       0.003510       0.000000
      0.000623       0.004068       0.000000
      0.000318       0.004618       0.000000
      0.000416       0.004819       0.000000
      0.000721       0.004192       0.000000
      0.001061       0.003510       0.000000
      0.000721       0.004192       0.000000
      0.000820       0.004347       0.000000
      0.001171       0.003581       0.000000
      0.000721       0.004192       0.000000
      0.000416       0.004819       0.000000
      0.000530       0.005091       0.000000
      0.000820       0.004347       0.000000
      0.000291       0.000607       0.000000
      0.000711       0.001366       0.000000
      0.000774       0.001273       0.000000
      0.000236       0.000333       0.000000
      0.000711       0.001366       0.000000
      0.001129       0.002147       0.000000
      0.001230       0.002132       0.000000
      0.000774       0.001273       0.000000
      0.000236       0.000333       0.000000
      0.000774       0.001273       0.000000
      0.000829       0.001230       0.000000
      0.000000       0.000000       0.000000
      0.000774       0.001273       0.000000
      0.001230       0.002132       0.000000
      0.001319       0.002165       0.000000
      0.000829       0.001230       0.000000
      0.001129       0.002147       0.000000
      0.001332       0.002867       0.000000
      0.001453       0.002879       0.000000
      0.001230       0.002132       0.000000
      0.001332       0.002867       0.000000
      0.001171       0.003581       0.000000
      0.001278       0.003631       0.000000
      0.001453       0.002879       0.000000
      0.001230       0.002132       0.000000
      0.001453       0.002879       0.000000
      0.001562       0.002890       0.000000
      0.001319       0.002165       0.000000
      0.001453       0.002879       0.000000
      0.001278       0.003631       0.000000
      0.001379       0.003630       0.000000
      0.001562       0.002890       0.000000
      0.001171       0.003581       0.000000
      0.000820       0.004347       0.000000
      0.000920       0.004495       0.000000
      0.001278       0.003631       0.000000
      0.000820       0.004347       0.000000
      0.000530       0.005091       0.000000
      0.000679       0.005414       0.000000
      0.000920       0.004495       0.000000
      0.001278       0.003631       0.000000
      0.000920       0.004495       0.000000
      0.001034       0.004626       0.000000
      0.001379       0.003630       0.000000
      0.000920       0.004495       0.000000
      0.000679       0.005414       0.000000
      0.000882       0.005802       0.000000
      0.001034       0.004626       0.000000
     -0.000879       0.000707       0.000000
     -0.000604       0.000381       0.000000
     -0.000323       0.000451       0.000000
     -0.000558       0.000909       0.000000
     -0.000604       0.000381       0.000000
     -0.000367       0.000188       0.000000
     -0.000203       0.000160       0.000000
     -0.000323       0.000451       0.000000
     -0.000558       0.000909       0.000000
     -0.000323       0.000451       0.000000
     -0.000190       0.000435       0.000000
     -0.000410       0.000887       0.000000
     -0.000323       0.000451       0.000000
     -0.000203       0.000160       0.000000
     -0.000122       0.000144       0.000000
     -0.000190       0.000435       0.000000
     -0.000367       0.000188       0.000000
     -0.000174       0.000134       0.000000
     -0.000155       0.000116       0.000000
     -0.000203       0.000160       0.000000
     -0.000174       0.000134       0.000000
     -0.000008       0.000215       0.000000
     -0.000110       0.000310       0.000000
     -0.000155       0.000116       0.000000
     -0.000203       0.000160       0.000000
     -0.000155       0.000116       0.000000
     -0.000143       0.000125       0.000000
     -0.000122       0.000144       0.000000
     -0.000155       0.000116       0.000000
     -0.000110       0.000310       0.000000
     -0.000126       0.000351       0.000000
     -0.000143       0.000125       0.000000
     -0.000008       0.000215       0.000000
      0.000159       0.000426       0.000000
      0.000002       0.000674       0.000000
     -0.000110       0.000310       0.000000
      0.000159       0.000426       0.000000
      0.000330       0.000755       0.000000
      0.000200       0.001098       0.000000
      0.000002       0.000674       0.000000
     -0.000110       0.000310       0.000000
      0.000002       0.000674       0.000000
      0.000009       0.000694       0.000000
     -0.000126       0.000351       0.000000
      0.000002       0.000674       0.000000
      0.000200       0.001098       0.000000
      0.000240       0.001048       0.000000
      0.000009       0.000694       0.000000
     -0.000410       0.000887       0.000000
     -0.000190       0.000435       0.000000
     -0.000101       0.000370       0.000000
     -0.000309       0.000776       0.000000
     -0.000190       0.000435       0.000000
     -0.000122       0.000144       0.000000
     -0.000067       0.000120       0.000000
     -0.000101       0.000370       0.000000
     -0.000309       0.000776       0.000000
     -0.000101       0.000370       0.000000
     -0.000038       0.000270       0.000000
     -0.000243       0.000592       0.000000
     -0.000101       0.000370       0.000000
     -0.000067       0.000120       0.000000
     -0.000028       0.000089       0.000000
     -0.000038       0.000270       0.000000
     -0.000122       0.000144       0.000000
     -0.000143       0.000125       0.000000
     -0.000124       0.000119       0.000000
     -0.000067       0.000120       0.000000
     -0.000143       0.000125       0.000000
     -0.000126       0.000351       0.000000
     -0.000111       0.000321       0.000000
     -0.000124       0.000119       0.000000
     -0.000067       0.000120       0.000000
     -0.000124       0.000119       0.000000
     -0.000098       0.000096       0.000000
     -0.000028       0.000089       0.000000
     -0.000124       0.000119       0.000000
     -0.000111       0.000321       0.000000
     -0.000084       0.000240       0.000000
     -0.000098       0.000096       0.000000
     -0.000126       0.000351       0.000000
      0.000009       0.000694       0.000000
      0.000037       0.000586       0.000000
     -0.000111       0.000321       0.000000
      0.000009       0.000694       0.000000
      0.000240       0.001048       0.000000
      0.000283       0.000854       0.000000
      0.000037       0.000586       0.000000
     -0.000111       0.000321       0.000000
      0.000037       0.000586       0.000000
      0.000055       0.000412       0.000000
     -0.000084       0.000240       0.000000
      0.000037       0.000586       0.000000
      0.000283       0.000854       0.000000
      0.000291       0.000607       0.000000
      0.000055       0.000412       0.000000
     -0.000243       0.000592       0.000000
     -0.000038       0.000270       0.000000
     -0.000002       0.000143       0.000000
     -0.000187       0.000333       0.000000
     -0.000038       0.000270       0.000000
     -0.000028       0.000089       0.000000
     -0.000004       0.000049       0.000000
     -0.000002       0.000143       0.000000
     -0.000187       0.000333       0.000000
     -0.000002       0.000143       0.000000
      0.000000       0.000000       0.000000
      0.000000       0.000000       0.000000
     -0.000002       0.000143       0.000000
     -0.000004       0.000049       0.000000
      0.000000       0.000000       0.000000
      0.000000       0.000000       0.000000
     -0.000028       0.000089       0.000000
     -0.000098       0.000096       0.000000
     -0.000060       0.000055       0.000000
     -0.000004       0.000049       0.000000
     -0.000098       0.000096       0.000000
     -0.000084       0.000240       0.000000
     -0.000047       0.000127       0.000000
     -0.000060       0.000055       0.000000
     -0.000004       0.000049       0.000000
     -0.000060       0.000055       0.000000
      0.000000       0.000000       0.000000
      0.000000       0.000000       0.000000
     -0.000060       0.000055       0.000000
     -0.000047       0.000127       0.000000
      0.000000       0.000000       0.000000
      0.000000       0.000000       0.000000
     -0.000084       0.000240       0.000000
      0.000055       0.000412       0.000000
      0.000048       0.000208       0.000000
     -0.000047       0.000127       0.000000
      0.000055       0.000412       0.000000
      0.000291       0.000607       0.000000
      0.000236       0.000333       0.000000
      0.000048       0.000208       0.000000
     -0.000047       0.000127       0.000000
      0.000048       0.000208       0.000000
      0.000000       0.000000       0.000000
      0.000000       0.000000       0.000000
      0.000048       0.000208       0.000000
      0.000236       0.000333       0.000000
      0.000000       0.000000       0.000000
      0.000000       0.000000       0.000000
     -0.000879       0.000707       0.000000
     -0.001178       0.001181       0.000000
     -0.000973       0.001409       0.000000
     -0.000558       0.000909       0.000000
     -0.001178       0.001181       0.000000
     -0.001441       0.001872       0.000000
     -0.001479       0.002048       0.000000
     -0.000973       0.001409       0.000000
     -0.000558       0.000909       0.000000
     -0.000973       0.001409       0.000000
     -0.000849       0.001433       0.000000