# vtk DataFile Version 2.0
time_10.vtk
ASCII
DATASET UNSTRUCTURED_GRID
POINTS   576 float
      0.458579       0.641421       0.000000
      0.497369       0.671659       0.000000
      0.438243       0.730363       0.000000
      0.382149       0.701184       0.000000
      0.497369       0.671659       0.000000
      0.545805       0.692517       0.000000
      0.506084       0.750000       0.000000
      0.438243       0.730363       0.000000
      0.382149       0.701184       0.000000
      0.438243       0.730363       0.000000
      0.380813       0.787383       0.000000
      0.305719       0.760948       0.000000
      0.438243       0.730363       0.000000
      0.506084       0.750000       0.000000
      0.468251       0.804752       0.000000
      0.380813       0.787383       0.000000
      0.545805       0.692517       0.000000
      0.600000       0.700000       0.000000
      0.581017       0.756950       0.000000
      0.506084       0.750000       0.000000
      0.600000       0.700000       0.000000
      0.654195       0.692517       0.000000
      0.656527       0.750000       0.000000
      0.581017       0.756950       0.000000
      0.506084       0.750000       0.000000
      0.581017       0.756950       0.000000
      0.563060       0.810819       0.000000
      0.468251       0.804752       0.000000
      0.581017       0.756950       0.000000
      0.656527       0.750000       0.000000
      0.658747       0.804752       0.000000
      0.563060       0.810819       0.000000
      0.654195       0.692517       0.000000
      0.702631       0.671659       0.000000
      0.725999       0.730363       0.000000
      0.656527       0.750000       0.000000
      0.702631       0.671659       0.000000
      0.741421       0.641421       0.000000
      0.784518       0.701184       0.000000
      0.725999       0.730363       0.000000
      0.656527       0.750000       0.000000
      0.725999       0.730363       0.000000
      0.748697       0.787383       0.000000
      0.658747       0.804752       0.000000
      0.725999       0.730363       0.000000
      0.784518       0.701184       0.000000
      0.827614       0.760948       0.000000
      0.748697       0.787383       0.000000
      0.305719       0.760948       0.000000
      0.380813       0.787383       0.000000
      0.325006       0.842791       0.000000
      0.229289       0.820711       0.000000
      0.380813       0.787383       0.000000
      0.468251       0.804752       0.000000
      0.432173       0.856962       0.000000
      0.325006       0.842791       0.000000
      0.229289       0.820711       0.000000
      0.325006       0.842791       0.000000
      0.270755       0.896655       0.000000
      0.152860       0.880474       0.000000
      0.325006       0.842791       0.000000
      0.432173       0.856962       0.000000
      0.397732       0.906804       0.000000
      0.270755       0.896655       0.000000
      0.468251       0.804752       0.000000
      0.563060       0.810819       0.000000
      0.546050       0.861851       0.000000
      0.432173       0.856962       0.000000
      0.563060       0.810819       0.000000
      0.658747       0.804752       0.000000
      0.660865       0.856962       0.000000
      0.546050       0.861851       0.000000
      0.432173       0.856962       0.000000
      0.546050       0.861851       0.000000
      0.529912       0.910264       0.000000
      0.397732       0.906804       0.000000
      0.546050       0.861851       0.000000
      0.660865       0.856962       0.000000
      0.662887       0.906804       0.000000
      0.529912       0.910264       0.000000
      0.658747       0.804752       0.000000
      0.748697       0.787383       0.000000
      0.770753       0.842791       0.000000
      0.660865       0.856962       0.000000
      0.748697       0.787383       0.000000
      0.827614       0.760948       0.000000
      0.870711       0.820711       0.000000
      0.770753       0.842791       0.000000
      0.660865       0.856962       0.000000
      0.770753       0.842791       0.000000
      0.792195       0.896655       0.000000
      0.662887       0.906804       0.000000
      0.770753       0.842791       0.000000
      0.870711       0.820711       0.000000
      0.913807       0.880474       0.000000
      0.792195       0.896655       0.000000
      0.152860       0.880474       0.000000
      0.270755       0.896655       0.000000
      0.217995       0.949038       0.000000
      0.076430       0.940237       0.000000
      0.270755       0.896655       0.000000
      0.397732       0.906804       0.000000
      0.364819       0.954435       0.000000
      0.217995       0.949038       0.000000
      0.076430       0.940237       0.000000
      0.217995       0.949038       0.000000
      0.166667       1.000000       0.000000
      0.000000       1.000000       0.000000
      0.217995       0.949038       0.000000
      0.364819       0.954435       0.000000
      0.333333       1.000000       0.000000
      0.166667       1.000000       0.000000
      0.397732       0.906804       0.000000
      0.529912       0.910264       0.000000
      0.514582       0.956255       0.000000
      0.364819       0.954435       0.000000
      0.529912       0.910264       0.000000
      0.662887       0.906804       0.000000
      0.664819       0.954435       0.000000
      0.514582       0.956255       0.000000
      0.364819       0.954435       0.000000
      0.514582       0.956255       0.000000
      0.500000       1.000000       0.000000
      0.333333       1.000000       0.000000
      0.514582       0.956255       0.000000
      0.664819       0.954435       0.000000
      0.666667       1.000000       0.000000
      0.500000       1.000000       0.000000
      0.662887       0.906804       0.000000
      0.792195       0.896655       0.000000
      0.813047       0.949038       0.000000
      0.664819       0.954435       0.000000
      0.792195       0.896655       0.000000
      0.913807       0.880474       0.000000
      0.956904       0.940237       0.000000
      0.813047       0.949038       0.000000
      0.664819       0.954435       0.000000
      0.813047       0.949038       0.000000
      0.833333       1.000000       0.000000
      0.666667       1.000000       0.000000
      0.813047       0.949038       0.000000
      0.956904       0.940237       0.000000
      1.000000       1.000000       0.000000
      0.833333       1.000000       0.000000
      0.458579       0.358579       0.000000
      0.428341       0.397369       0.000000
      0.351758       0.356122       0.000000
      0.382149       0.298816       0.000000
      0.428341       0.397369       0.000000
      0.407483       0.445805       0.000000
      0.331305       0.424779       0.000000
      0.351758       0.356122       0.000000
      0.382149       0.298816       0.000000
      0.351758       0.356122       0.000000
      0.277372       0.316058       0.000000
      0.305719       0.239052       0.000000
      0.351758       0.356122       0.000000
      0.331305       0.424779       0.000000
      0.258747       0.404752       0.000000
      0.277372       0.316058       0.000000
      0.407483       0.445805       0.000000
      0.400000       0.500000       0.000000
      0.324066       0.500000       0.000000
      0.331305       0.424779       0.000000
      0.400000       0.500000       0.000000
      0.407483       0.554195       0.000000
      0.331305       0.575221       0.000000
      0.324066       0.500000       0.000000
      0.331305       0.424779       0.000000
      0.324066       0.500000       0.000000
      0.252241       0.500000       0.000000
      0.258747       0.404752       0.000000
      0.324066       0.500000       0.000000
      0.331305       0.575221       0.000000
      0.258747       0.595248       0.000000
      0.252241       0.500000       0.000000
      0.407483       0.554195       0.000000
      0.428341       0.602631       0.000000
      0.351758       0.643878       0.000000
      0.331305       0.575221       0.000000
      0.428341       0.602631       0.000000
      0.458579       0.641421       0.000000
      0.382149       0.701184       0.000000
      0.351758       0.643878       0.000000
      0.331305       0.575221       0.000000
      0.351758       0.643878       0.000000
      0.277372       0.683942       0.000000
      0.258747       0.595248       0.000000
      0.351758       0.643878       0.000000
      0.382149       0.701184       0.000000
      0.305719       0.760948       0.000000
      0.277372       0.683942       0.000000
      0.305719       0.239052       0.000000
      0.277372       0.316058       0.000000
      0.205089       0.277126       0.000000
      0.229289       0.179289       0.000000
      0.277372       0.316058       0.000000
      0.258747       0.404752       0.000000
      0.189557       0.385654       0.000000
      0.205089       0.277126       0.000000
      0.229289       0.179289       0.000000
      0.205089       0.277126       0.000000
      0.134820       0.239280       0.000000
      0.152860       0.119526       0.000000
      0.205089       0.277126       0.000000
      0.189557       0.385654       0.000000
      0.123505       0.367423       0.000000
      0.134820       0.239280       0.000000
      0.258747       0.404752       0.000000
      0.252241       0.500000       0.000000
      0.184198       0.500000       0.000000
      0.189557       0.385654       0.000000
      0.252241       0.500000       0.000000
      0.258747       0.595248       0.000000
      0.189557       0.614346       0.000000
      0.184198       0.500000       0.000000
      0.189557       0.385654       0.000000
      0.184198       0.500000       0.000000
      0.119648       0.500000       0.000000
      0.123505       0.367423       0.000000
[...]
POINT_DATA   576
VECTORS U float 
      0.000401       0.005210       0.000000
      0.000207       0.005577       0.000000
      0.000035       0.005299       0.000000
      0.000263       0.004832       0.000000
      0.000207       0.005577       0.000000
      0.000003       0.005821       0.000000
     -0.000116       0.005715       0.000000
      0.000035       0.005299       0.000000
      0.000263       0.004832       0.000000
      0.000035       0.005299       0.000000
      0.000059       0.005272       0.000000
      0.000331       0.004877       0.000000
      0.000035       0.005299       0.000000
     -0.000116       0.005715       0.000000
     -0.000130       0.005670       0.000000
      0.000059       0.005272       0.000000
      0.000003       0.005821       0.000000
     -0.000207       0.005921       0.000000
     -0.000195       0.005947       0.000000
     -0.000116       0.005715       0.000000
     -0.000207       0.005921       0.000000
     -0.000437       0.005870       0.000000
     -0.000271       0.005907       0.000000
     -0.000195       0.005947       0.000000
     -0.000116       0.005715       0.000000
     -0.000195       0.005947       0.000000
     -0.000194       0.005944       0.000000
     -0.000130       0.005670       0.000000
     -0.000195       0.005947       0.000000
     -0.000271       0.005907       0.000000
     -0.000205       0.005933       0.000000
     -0.000194       0.005944       0.000000
     -0.000437       0.005870       0.000000
     -0.000697       0.005668       0.000000
     -0.000411       0.005600       0.000000
     -0.000271       0.005907       0.000000
     -0.000697       0.005668       0.000000
     -0.000982       0.005330       0.000000
     -0.000658       0.005125       0.000000
     -0.000411       0.005600       0.000000
     -0.000271       0.005907       0.000000
     -0.000411       0.005600       0.000000
     -0.000295       0.005622       0.000000
     -0.000205       0.005933       0.000000
     -0.000411       0.005600       0.000000
     -0.000658       0.005125       0.000000
     -0.000526       0.005152       0.000000
     -0.000295       0.005622       0.000000
      0.000331       0.004877       0.000000
      0.000059       0.005272       0.000000
      0.000122       0.005383       0.000000
      0.000432       0.005082       0.000000
      0.000059       0.005272       0.000000
     -0.000130       0.005670       0.000000
     -0.000110       0.005705       0.000000
      0.000122       0.005383       0.000000
      0.000432       0.005082       0.000000
      0.000122       0.005383       0.000000
      0.000200       0.005575       0.000000
      0.000551       0.005365       0.000000
      0.000122       0.005383       0.000000
     -0.000110       0.005705       0.000000
     -0.000080       0.005798       0.000000
      0.000200       0.005575       0.000000
     -0.000130       0.005670       0.000000
     -0.000194       0.005944       0.000000
     -0.000188       0.005958       0.000000
     -0.000110       0.005705       0.000000
     -0.000194       0.005944       0.000000
     -0.000205       0.005933       0.000000
     -0.000169       0.005968       0.000000
     -0.000188       0.005958       0.000000
     -0.000110       0.005705       0.000000
     -0.000188       0.005958       0.000000
     -0.000182       0.005994       0.000000
     -0.000080       0.005798       0.000000
     -0.000188       0.005958       0.000000
     -0.000169       0.005968       0.000000
     -0.000148       0.006012       0.000000
     -0.000182       0.005994       0.000000
     -0.000205       0.005933       0.000000
     -0.000295       0.005622       0.000000
     -0.000233       0.005693       0.000000
     -0.000169       0.005968       0.000000
     -0.000295       0.005622       0.000000
     -0.000526       0.005152       0.000000
     -0.000454       0.005270       0.000000
     -0.000233       0.005693       0.000000
     -0.000169       0.005968       0.000000
     -0.000233       0.005693       0.000000
     -0.000200       0.005800       0.000000
     -0.000148       0.006012       0.000000
     -0.000233       0.005693       0.000000
     -0.000454       0.005270       0.000000
     -0.000433       0.005465       0.000000
     -0.000200       0.005800       0.000000
      0.000551       0.005365       0.000000
      0.000200       0.005575       0.000000
      0.000297       0.005823       0.000000
      0.000705       0.005703       0.000000
      0.000200       0.005575       0.000000
     -0.000080       0.005798       0.000000
     -0.000040       0.005937       0.000000
      0.000297       0.005823       0.000000
      0.000705       0.005703       0.000000
      0.000297       0.005823       0.000000
      0.000422       0.006112       0.000000
      0.000920       0.006112       0.000000
      0.000297       0.005823       0.000000
     -0.000040       0.005937       0.000000
      0.000012       0.006112       0.000000
      0.000422       0.006112       0.000000
     -0.000080       0.005798       0.000000
     -0.000182       0.005994       0.000000
     -0.000177       0.006046       0.000000
     -0.000040       0.005937       0.000000
     -0.000182       0.005994       0.000000
     -0.000148       0.006012       0.000000
     -0.000137       0.006061       0.000000
     -0.000177       0.006046       0.000000
     -0.000040       0.005937       0.000000
     -0.000177       0.006046       0.000000
     -0.000174       0.006112       0.000000
      0.000012       0.006112       0.000000
     -0.000177       0.006046       0.000000
     -0.000137       0.006061       0.000000
     -0.000133       0.006112       0.000000
     -0.000174       0.006112       0.000000
     -0.000148       0.006012       0.000000
     -0.000200       0.005800       0.000000
     -0.000190       0.005939       0.000000
     -0.000137       0.006061       0.000000
     -0.000200       0.005800       0.000000
     -0.000433       0.005465       0.000000
     -0.000471       0.005746       0.000000
     -0.000190       0.005939       0.000000
     -0.000137       0.006061       0.000000
     -0.000190       0.005939       0.000000
     -0.000204       0.006112       0.000000
     -0.000133       0.006112       0.000000
     -0.000190       0.005939       0.000000
     -0.000471       0.005746       0.000000
     -0.000568       0.006112       0.000000
     -0.000204       0.006112       0.000000
      0.000350       0.000778       0.000000
      0.000535       0.001260       0.000000
      0.000518       0.001665       0.000000
      0.000211       0.001139       0.000000
      0.000535       0.001260       0.000000
      0.000679       0.001957       0.000000
      0.000863       0.002295       0.000000
      0.000518       0.001665       0.000000
      0.000211       0.001139       0.000000
      0.000518       0.001665       0.000000
      0.000591       0.001673       0.000000
      0.000251       0.001092       0.000000
      0.000518       0.001665       0.000000
      0.000863       0.002295       0.000000
      0.000974       0.002341       0.000000
      0.000591       0.001673       0.000000
      0.000679       0.001957       0.000000
      0.000716       0.002971       0.000000
      0.001050       0.002985       0.000000
      0.000863       0.002295       0.000000
      0.000716       0.002971       0.000000
      0.000706       0.003996       0.000000
      0.000898       0.003671       0.000000
      0.001050       0.002985       0.000000
      0.000863       0.002295       0.000000
      0.001050       0.002985       0.000000
      0.001175       0.002995       0.000000
      0.000974       0.002341       0.000000
      0.001050       0.002985       0.000000
      0.000898       0.003671       0.000000
      0.001011       0.003640       0.000000
      0.001175       0.002995       0.000000
      0.000706       0.003996       0.000000
      0.000582       0.004708       0.000000
      0.000571       0.004298       0.000000
      0.000898       0.003671       0.000000
      0.000582       0.004708       0.000000
      0.000401       0.005210       0.000000
      0.000263       0.004832       0.000000
      0.000571       0.004298       0.000000
      0.000898       0.003671       0.000000
      0.000571       0.004298       0.000000
      0.000655       0.004296       0.000000
      0.001011       0.003640       0.000000
      0.000571       0.004298       0.000000
      0.000263       0.004832       0.000000
      0.000331       0.004877       0.000000
      0.000655       0.004296       0.000000
      0.000251       0.001092       0.000000
      0.000591       0.001673       0.000000
      0.000674       0.001564       0.000000
      0.000295       0.000894       0.000000
      0.000591       0.001673       0.000000
      0.000974       0.002341       0.000000
      0.001084       0.002305       0.000000
      0.000674       0.001564       0.000000
      0.000295       0.000894       0.000000
      0.000674       0.001564       0.000000
      0.000749       0.001437       0.000000
      0.000304       0.000636       0.000000
      0.000674       0.001564       0.000000
      0.001084       0.002305       0.000000
      0.001196       0.002262       0.000000
      0.000749       0.001437       0.000000
      0.000974       0.002341       0.000000
      0.001175       0.002995       0.000000
      0.001290       0.003006       0.000000
      0.001084       0.002305       0.000000
      0.001175       0.002995       0.000000
      0.001011       0.003640       0.000000
      0.001124       0.003699       0.000000
      0.001290       0.003006       0.000000
      0.001084       0.002305       0.000000
      0.001290       0.003006       0.000000
      0.001414       0.003019       0.000000
      0.001196       0.002262       0.000000
      0.001290       0.003006       0.000000
      0.001124       0.003699       0.000000
      0.001239       0.003771       0.000000
      0.001414       0.003019       0.000000
      0.001011       0.003640       0.000000
      0.000655       0.004296       0.000000
      0.000758       0.004421       0.000000
      0.001124       0.003699       0.000000
      0.000655       0.004296       0.000000
      0.000331       0.004877       0.000000
      0.000432       0.005082       0.000000
      0.000758       0.004421       0.000000
      0.001124       0.003699       0.000000
      0.000758       0.004421       0.000000
      0.000860       0.004579       0.000000
      0.001239       0.003771       0.000000
      0.000758       0.004421       0.000000
      0.000432       0.005082       0.000000
      0.000551       0.005365       0.000000
      0.000860       0.004579       0.000000
      0.000304       0.000636       0.000000
      0.000749       0.001437       0.000000
      0.000815       0.001343       0.000000
      0.000246       0.000350       0.000000
      0.000749       0.001437       0.000000
      0.001196       0.002262       0.000000
      0.001301       0.002248       0.000000
      0.000815       0.001343       0.000000
      0.000246       0.000350       0.000000
      0.000815       0.001343       0.000000
      0.000872       0.001299       0.000000
      0.000000       0.000000       0.000000
      0.000815       0.001343       0.000000
      0.001301       0.002248       0.000000
      0.001395       0.002285       0.000000
      0.000872       0.001299       0.000000
      0.001196       0.002262       0.000000
      0.001414       0.003019       0.000000
      0.001540       0.003032       0.000000
      0.001301       0.002248       0.000000
      0.001414       0.003019       0.000000
      0.001239       0.003771       0.000000
      0.001351       0.003820       0.000000
      0.001540       0.003032       0.000000
      0.001301       0.002248       0.000000
      0.001540       0.003032       0.000000
      0.001655       0.003042       0.000000
      0.001395       0.002285       0.000000
      0.001540       0.003032       0.000000
      0.001351       0.003820       0.000000
      0.001456       0.003816       0.000000
      0.001655       0.003042       0.000000
      0.001239       0.003771       0.000000
      0.000860       0.004579       0.000000
      0.000965       0.004732       0.000000
      0.001351       0.003820       0.000000
      0.000860       0.004579       0.000000
      0.000551       0.005365       0.000000
      0.000705       0.005703       0.000000
      0.000965       0.004732       0.000000
      0.001351       0.003820       0.000000
      0.000965       0.004732       0.000000
      0.001084       0.004867       0.000000
      0.001456       0.003816       0.000000
      0.000965       0.004732       0.000000
      0.000705       0.005703       0.000000
      0.000920       0.006112       0.000000
      0.001084       0.004867       0.000000
     -0.000923       0.000727       0.000000
     -0.000633       0.000390       0.000000
     -0.000338       0.000464       0.000000
     -0.000583       0.000940       0.000000
     -0.000633       0.000390       0.000000
     -0.000383       0.000191       0.000000
     -0.000212       0.000162       0.000000
     -0.000338       0.000464       0.000000
     -0.000583       0.000940       0.000000
     -0.000338       0.000464       0.000000
     -0.000197       0.000449       0.000000
     -0.000426       0.000922       0.000000
     -0.000338       0.000464       0.000000
     -0.000212       0.000162       0.000000
     -0.000127       0.000146       0.000000
     -0.000197       0.000449       0.000000
     -0.000383       0.000191       0.000000
     -0.000181       0.000136       0.000000
     -0.000161       0.000117       0.000000
     -0.000212       0.000162       0.000000
     -0.000181       0.000136       0.000000
     -0.000006       0.000220       0.000000
     -0.000113       0.000318       0.000000
     -0.000161       0.000117       0.000000
     -0.000212       0.000162       0.000000
     -0.000161       0.000117       0.000000
     -0.000148       0.000126       0.000000
     -0.000127       0.000146       0.000000
     -0.000161       0.000117       0.000000
     -0.000113       0.000318       0.000000
     -0.000130       0.000362       0.000000
     -0.000148       0.000126       0.000000
     -0.000006       0.000220       0.000000
      0.000169       0.000438       0.000000
      0.000004       0.000696       0.000000
     -0.000113       0.000318       0.000000
      0.000169       0.000438       0.000000
      0.000350       0.000778       0.000000
      0.000211       0.001139       0.000000
      0.000004       0.000696       0.000000
     -0.000113       0.000318       0.000000
      0.000004       0.000696       0.000000
      0.000009       0.000719       0.000000
     -0.000130       0.000362       0.000000
      0.000004       0.000696       0.000000
      0.000211       0.001139       0.000000
      0.000251       0.001092       0.000000
      0.000009       0.000719       0.000000
     -0.000426       0.000922       0.000000
     -0.000197       0.000449       0.000000
     -0.000104       0.000383       0.000000
     -0.000319       0.000808       0.000000
     -0.000197       0.000449       0.000000
     -0.000127       0.000146       0.000000
     -0.000069       0.000123       0.000000
     -0.000104       0.000383       0.000000
     -0.000319       0.000808       0.000000
     -0.000104       0.000383       0.000000
     -0.000038       0.000280       0.000000
     -0.000251       0.000618       0.000000
     -0.000104       0.000383       0.000000
     -0.000069       0.000123       0.000000
     -0.000028       0.000091       0.000000
     -0.000038       0.000280       0.000000
     -0.000127       0.000146       0.000000
     -0.000148       0.000126       0.000000
     -0.000129       0.000122       0.000000
     -0.000069       0.000123       0.000000
     -0.000148       0.000126       0.000000
     -0.000130       0.000362       0.000000
     -0.000116       0.000332       0.000000
     -0.000129       0.000122       0.000000
     -0.000069       0.000123       0.000000
     -0.000129       0.000122       0.000000
     -0.000102       0.000098       0.000000
     -0.000028       0.000091       0.000000
     -0.000129       0.000122       0.000000
     -0.000116       0.000332       0.000000
     -0.000089       0.000249       0.000000
     -0.000102       0.000098       0.000000
     -0.000130       0.000362       0.000000
      0.000009       0.000719       0.000000
      0.000038       0.000609       0.000000
     -0.000116       0.000332       0.000000
      0.000009       0.000719       0.000000
      0.000251       0.001092       0.000000
      0.000295       0.000894       0.000000
      0.000038       0.000609       0.000000
     -0.000116       0.000332       0.000000
      0.000038       0.000609       0.000000
      0.000056       0.000429       0.000000
     -0.000089       0.000249       0.000000
      0.000038       0.000609       0.000000
      0.000295       0.000894       0.000000
      0.000304       0.000636       0.000000
      0.000056       0.000429       0.000000
     -0.000251       0.000618       0.000000
     -0.000038       0.000280       0.000000
     -0.000000       0.000148       0.000000
     -0.000193       0.000347       0.000000
     -0.000038       0.000280       0.000000
     -0.000028       0.000091       0.000000
     -0.000003       0.000051       0.000000
     -0.000000       0.000148       0.000000
     -0.000193       0.000347       0.000000
     -0.000000       0.000148       0.000000
      0.000000       0.000000       0.000000
      0.000000       0.000000       0.000000
     -0.000000       0.000148       0.000000
     -0.000003       0.000051       0.000000
      0.000000       0.000000       0.000000
      0.000000       0.000000       0.000000
     -0.000028       0.000091       0.000000
     -0.000102       0.000098       0.000000
     -0.000063       0.000057       0.000000
     -0.000003       0.000051       0.000000
     -0.000102       0.000098       0.000000
     -0.000089       0.000249       0.000000
     -0.000049       0.000132       0.000000
     -0.000063       0.000057       0.000000
     -0.000003       0.000051       0.000000
     -0.000063       0.000057       0.000000
      0.000000       0.000000       0.000000
      0.000000       0.000000       0.000000
     -0.000063       0.000057       0.000000
     -0.000049       0.000132       0.000000
      0.000000       0.000000       0.000000
      0.000000       0.000000       0.000000
     -0.000089       0.000249       0.000000
      0.000056       0.000429       0.000000
      0.000049       0.000217       0.000000
     -0.000049       0.000132       0.000000
      0.000056       0.000429       0.000000
      0.000304       0.000636       0.000000
      0.000246       0.000350       0.000000
      0.000049       0.000217       0.000000
     -0.000049       0.000132       0.000000
      0.000049       0.000217       0.000000
      0.000000       0.000000       0.000000
      0.000000       0.000000       0.000000
      0.000049       0.000217       0.000000
      0.000246       0.000350       0.000000
      0.000000       0.000000       0.000000
      0.000000       0.000000       0.000000
     -0.000923       0.000727       0.000000
     -0.001242       0.001216       0.000000
     -0.001020       0.001460       0.000000
     -0.000583       0.000940       0.000000
     -0.001242       0.001216       0.000000
     -0.001524       0.001933       0.000000
     -0.001559       0.002129       0.000000
     -0.001020       0.001460       0.000000
     -0.000583       0.000940       0.000000
     -0.001020       0.001460       0.000000
     -0.000887       0.001493       0.000000