# vtk DataFile Version 2.0
time_10.vtk
ASCII
DATASET UNSTRUCTURED_GRID
POINTS  3648 float
      0.458579       0.641421       0.000000
      0.497369       0.671659       0.000000
      0.438243       0.730363       0.000000
      0.382149       0.701184       0.000000
      0.497369       0.671659       0.000000
      0.545805       0.692517       0.000000
      0.506084       0.750000       0.000000
      0.438243       0.730363       0.000000
      0.382149       0.701184       0.000000
      0.438243       0.730363       0.000000
      0.380813       0.787383       0.000000
      0.305719       0.760948       0.000000
      0.438243       0.730363       0.000000
      0.506084       0.750000       0.000000
      0.468251       0.804752       0.000000
      0.380813       0.787383       0.000000
      0.545805       0.692517       0.000000
      0.600000       0.700000       0.000000
      0.581017       0.756950       0.000000
      0.506084       0.750000       0.000000
      0.600000       0.700000       0.000000
      0.654195       0.692517       0.000000
      0.656527       0.750000       0.000000
      0.581017       0.756950       0.000000
      0.506084       0.750000       0.000000
      0.581017       0.756950       0.000000
      0.563060       0.810819       0.000000
      0.468251       0.804752       0.000000
      0.581017       0.756950       0.000000
      0.656527       0.750000       0.000000
      0.658747       0.804752       0.000000
      0.563060       0.810819       0.000000
      0.654195       0.692517       0.000000
      0.702631       0.671659       0.000000
      0.725999       0.730363       0.000000
      0.656527       0.750000       0.000000
      0.702631       0.671659       0.000000
      0.741421       0.641421       0.000000
      0.784518       0.701184       0.000000
      0.725999       0.730363       0.000000
      0.656527       0.750000       0.000000
      0.725999       0.730363       0.000000
      0.748697       0.787383       0.000000
      0.658747       0.804752       0.000000
      0.725999       0.730363       0.000000
      0.784518       0.701184       0.000000
      0.827614       0.760948       0.000000
      0.748697       0.787383       0.000000
      0.305719       0.760948       0.000000
      0.380813       0.787383       0.000000
      0.325006       0.842791       0.000000
      0.229289       0.820711       0.000000
      0.380813       0.787383       0.000000
      0.468251       0.804752       0.000000
      0.432173       0.856962       0.000000
      0.325006       0.842791       0.000000
      0.229289       0.820711       0.000000
      0.325006       0.842791       0.000000
      0.270755       0.896655       0.000000
      0.152860       0.880474       0.000000
      0.325006       0.842791       0.000000
      0.432173       0.856962       0.000000
      0.397732       0.906804       0.000000
      0.270755       0.896655       0.000000
      0.468251       0.804752       0.000000
      0.563060       0.810819       0.000000
      0.546050       0.861851       0.000000
      0.432173       0.856962       0.000000
      0.563060       0.810819       0.000000
      0.658747       0.804752       0.000000
      0.660865       0.856962       0.000000
      0.546050       0.861851       0.000000
      0.432173       0.856962       0.000000
      0.546050       0.861851       0.000000
      0.529912       0.910264       0.000000
      0.397732       0.906804       0.000000
      0.546050       0.861851       0.000000
      0.660865       0.856962       0.000000
      0.662887       0.906804       0.000000
      0.529912       0.910264       0.000000
      0.658747       0.804752       0.000000
      0.748697       0.787383       0.000000
      0.770753       0.842791       0.000000
      0.660865       0.856962       0.000000
      0.748697       0.787383       0.000000
      0.827614       0.760948       0.000000
      0.870711       0.820711       0.000000
      0.770753       0.842791       0.000000
      0.660865       0.856962       0.000000
      0.770753       0.842791       0.000000
      0.792195       0.896655       0.000000
      0.662887       0.906804       0.000000
      0.770753       0.842791       0.000000
      0.870711       0.820711       0.000000
      0.913807       0.880474       0.000000
      0.792195       0.896655       0.000000
      0.152860       0.880474       0.000000
      0.270755       0.896655       0.000000
      0.217995       0.949038       0.000000
      0.076430       0.940237       0.000000
      0.270755       0.896655       0.000000
      0.397732       0.906804       0.000000
      0.364819       0.954435       0.000000
      0.217995       0.949038       0.000000
      0.076430       0.940237       0.000000
      0.217995       0.949038       0.000000
      0.166667       1.000000       0.000000
      0.000000       1.000000       0.000000
      0.217995       0.949038       0.000000
      0.364819       0.954435       0.000000
      0.333333       1.000000       0.000000
      0.166667       1.000000       0.000000
      0.397732       0.906804       0.000000
      0.529912       0.910264       0.000000
      0.514582       0.956255       0.000000
      0.364819       0.954435       0.000000
      0.529912       0.910264       0.000000
      0.662887       0.906804       0.000000
      0.664819       0.954435       0.000000
      0.514582       0.956255       0.000000
      0.364819       0.954435       0.000000
      0.514582       0.956255       0.000000
      0.500000       1.000000       0.000000
      0.333333       1.000000       0.000000
      0.514582       0.956255       0.000000
      0.664819       0.954435       0.000000
      0.666667       1.000000       0.000000
      0.500000       1.000000       0.000000
      0.662887       0.906804       0.000000
      0.792195       0.896655       0.000000
      0.813047       0.949038       0.000000
      0.664819       0.954435       0.000000
      0.792195       0.896655       0.000000
      0.913807       0.880474       0.000000
      0.956904       0.940237       0.000000
      0.813047       0.949038       0.000000
      0.664819       0.954435       0.000000
      0.813047       0.949038       0.000000
      0.833333       1.000000       0.000000
      0.666667       1.000000       0.000000
      0.813047       0.949038       0.000000
      0.956904       0.940237       0.000000
      1.000000       1.000000       0.000000
      0.833333       1.000000       0.000000
      0.458579       0.358579       0.000000
      0.428341       0.397369       0.000000
      0.351758       0.356122       0.000000
      0.382149       0.298816       0.000000
      0.382149       0.298816       0.000000
      0.351758       0.356122       0.000000
      0.277372       0.316058       0.000000
      0.305719       0.239052       0.000000
      0.428341       0.602631       0.000000
      0.458579       0.641421       0.000000
      0.382149       0.701184       0.000000
      0.351758       0.643878       0.000000
      0.351758       0.643878       0.000000
      0.382149       0.701184       0.000000
      0.305719       0.760948       0.000000
      0.277372       0.683942       0.000000
      0.305719       0.239052       0.000000
      0.277372       0.316058       0.000000
      0.205089       0.277126       0.000000
      0.229289       0.179289       0.000000
      0.229289       0.179289       0.000000
      0.205089       0.277126       0.000000
      0.134820       0.239280       0.000000
      0.152860       0.119526       0.000000
      0.205089       0.277126       0.000000
      0.189557       0.385654       0.000000
      0.123505       0.367423       0.000000
      0.134820       0.239280       0.000000
      0.277372       0.683942       0.000000
      0.305719       0.760948       0.000000
      0.229289       0.820711       0.000000
      0.205089       0.722874       0.000000
      0.189557       0.614346       0.000000
      0.205089       0.722874       0.000000
      0.134820       0.760720       0.000000
      0.123505       0.632577       0.000000
      0.205089       0.722874       0.000000
      0.229289       0.820711       0.000000
      0.152860       0.880474       0.000000
      0.134820       0.760720       0.000000
      0.152860       0.119526       0.000000
      0.134820       0.239280       0.000000
      0.066483       0.202474       0.000000
      0.076430       0.059763       0.000000
      0.134820       0.239280       0.000000
      0.123505       0.367423       0.000000
      0.060383       0.350000       0.000000
      0.066483       0.202474       0.000000
      0.076430       0.059763       0.000000
      0.066483       0.202474       0.000000
      0.000000       0.166667       0.000000
      0.000000       0.000000       0.000000
      0.123505       0.632577       0.000000
      0.134820       0.760720       0.000000
      0.066483       0.797526       0.000000
      0.060383       0.650000       0.000000
      0.134820       0.760720       0.000000
      0.152860       0.880474       0.000000
      0.076430       0.940237       0.000000
      0.066483       0.797526       0.000000
      0.066483       0.797526       0.000000
      0.076430       0.940237       0.000000
      0.000000       1.000000       0.000000
      0.000000       0.833333       0.000000
      0.400000       0.500000       0.000000
      0.400119       0.506902       0.000000
      0.390391       0.507240       0.000000
      0.390272       0.500000       0.000000
      0.400119       0.506902       0.000000
      0.400476       0.513791       0.000000
      0.390747       0.514468       0.000000
      0.390391       0.507240       0.000000
      0.390272       0.500000       0.000000
      0.390391       0.507240       0.000000
      0.380731       0.507577       0.000000
      0.380612       0.500000       0.000000
[...]
POINT_DATA  3648
VECTORS U float 
      0.000256       0.006920       0.000000
      0.000243       0.006928       0.000000
      0.000234       0.006919       0.000000
      0.000244       0.006903       0.000000
      0.000243       0.006928       0.000000
      0.000232       0.006934       0.000000
      0.000228       0.006932       0.000000
      0.000234       0.006919       0.000000
      0.000244       0.006903       0.000000
      0.000234       0.006919       0.000000
      0.000229       0.006913       0.000000
      0.000238       0.006894       0.000000
      0.000234       0.006919       0.000000
      0.000228       0.006932       0.000000
      0.000224       0.006928       0.000000
      0.000229       0.006913       0.000000
      0.000232       0.006934       0.000000
      0.000221       0.006935       0.000000
      0.000223       0.006937       0.000000
      0.000228       0.006932       0.000000
      0.000221       0.006935       0.000000
      0.000208       0.006933       0.000000
      0.000218       0.006934       0.000000
      0.000223       0.006937       0.000000
      0.000228       0.006932       0.000000
      0.000223       0.006937       0.000000
      0.000224       0.006936       0.000000
      0.000224       0.006928       0.000000
      0.000223       0.006937       0.000000
      0.000218       0.006934       0.000000
      0.000224       0.006934       0.000000
      0.000224       0.006936       0.000000
      0.000208       0.006933       0.000000
      0.000193       0.006926       0.000000
      0.000210       0.006922       0.000000
      0.000218       0.006934       0.000000
      0.000193       0.006926       0.000000
      0.000173       0.006915       0.000000
      0.000197       0.006900       0.000000
      0.000210       0.006922       0.000000
      0.000218       0.006934       0.000000
      0.000210       0.006922       0.000000
      0.000221       0.006919       0.000000
      0.000224       0.006934       0.000000
      0.000210       0.006922       0.000000
      0.000197       0.006900       0.000000
      0.000211       0.006893       0.000000
      0.000221       0.006919       0.000000
      0.000238       0.006894       0.000000
      0.000229       0.006913       0.000000
      0.000226       0.006911       0.000000
      0.000236       0.006892       0.000000
      0.000229       0.006913       0.000000
      0.000224       0.006928       0.000000
      0.000222       0.006926       0.000000
      0.000226       0.006911       0.000000
      0.000236       0.006892       0.000000
      0.000226       0.006911       0.000000
      0.000226       0.006913       0.000000
      0.000238       0.006897       0.000000
      0.000226       0.006911       0.000000
      0.000222       0.006926       0.000000
      0.000220       0.006926       0.000000
      0.000226       0.006913       0.000000
      0.000224       0.006928       0.000000
      0.000224       0.006936       0.000000
      0.000223       0.006935       0.000000
      0.000222       0.006926       0.000000
      0.000224       0.006936       0.000000
      0.000224       0.006934       0.000000
      0.000227       0.006933       0.000000
      0.000223       0.006935       0.000000
      0.000222       0.006926       0.000000
      0.000223       0.006935       0.000000
      0.000223       0.006933       0.000000
      0.000220       0.006926       0.000000
      0.000223       0.006935       0.000000
      0.000227       0.006933       0.000000
      0.000229       0.006933       0.000000
      0.000223       0.006933       0.000000
      0.000224       0.006934       0.000000
      0.000221       0.006919       0.000000
      0.000227       0.006918       0.000000
      0.000227       0.006933       0.000000
      0.000221       0.006919       0.000000
      0.000211       0.006893       0.000000
      0.000219       0.006893       0.000000
      0.000227       0.006918       0.000000
      0.000227       0.006933       0.000000
      0.000227       0.006918       0.000000
      0.000231       0.006920       0.000000
      0.000229       0.006933       0.000000
      0.000227       0.006918       0.000000
      0.000219       0.006893       0.000000
      0.000221       0.006899       0.000000
      0.000231       0.006920       0.000000
      0.000238       0.006897       0.000000
      0.000226       0.006913       0.000000
      0.000227       0.006920       0.000000
      0.000245       0.006910       0.000000
      0.000226       0.006913       0.000000
      0.000220       0.006926       0.000000
      0.000219       0.006928       0.000000
      0.000227       0.006920       0.000000
      0.000245       0.006910       0.000000
      0.000227       0.006920       0.000000
      0.000231       0.006932       0.000000
      0.000256       0.006932       0.000000
      0.000227       0.006920       0.000000
      0.000219       0.006928       0.000000
      0.000219       0.006932       0.000000
      0.000231       0.006932       0.000000
      0.000220       0.006926       0.000000
      0.000223       0.006933       0.000000
      0.000222       0.006932       0.000000
      0.000219       0.006928       0.000000
      0.000223       0.006933       0.000000
      0.000229       0.006933       0.000000
      0.000231       0.006932       0.000000
      0.000222       0.006932       0.000000
      0.000219       0.006928       0.000000
      0.000222       0.006932       0.000000
      0.000221       0.006932       0.000000
      0.000219       0.006932       0.000000
      0.000222       0.006932       0.000000
      0.000231       0.006932       0.000000
      0.000231       0.006932       0.000000
      0.000221       0.006932       0.000000
      0.000229       0.006933       0.000000
      0.000231       0.006920       0.000000
      0.000233       0.006925       0.000000
      0.000231       0.006932       0.000000
      0.000231       0.006920       0.000000
      0.000221       0.006899       0.000000
      0.000220       0.006913       0.000000
      0.000233       0.006925       0.000000
      0.000231       0.006932       0.000000
      0.000233       0.006925       0.000000
      0.000233       0.006932       0.000000
      0.000231       0.006932       0.000000
      0.000233       0.006925       0.000000
      0.000220       0.006913       0.000000
      0.000215       0.006932       0.000000
      0.000233       0.006932       0.000000
      0.000025       0.000012       0.000000
      0.000039       0.000023       0.000000
      0.000030       0.000043       0.000000
      0.000014       0.000028       0.000000
      0.000014       0.000028       0.000000
      0.000030       0.000043       0.000000
      0.000027       0.000057       0.000000
      0.000009       0.000036       0.000000
      0.000271       0.006909       0.000000
      0.000256       0.006920       0.000000
      0.000244       0.006903       0.000000
      0.000262       0.006887       0.000000
      0.000262       0.006887       0.000000
      0.000244       0.006903       0.000000
      0.000238       0.006894       0.000000
      0.000258       0.006873       0.000000
      0.000009       0.000036       0.000000
      0.000027       0.000057       0.000000
      0.000026       0.000066       0.000000
      0.000007       0.000037       0.000000
      0.000007       0.000037       0.000000
      0.000026       0.000066       0.000000
      0.000027       0.000071       0.000000
      0.000007       0.000031       0.000000
      0.000026       0.000066       0.000000
      0.000057       0.000101       0.000000
      0.000062       0.000117       0.000000
      0.000027       0.000071       0.000000
      0.000258       0.006873       0.000000
      0.000238       0.006894       0.000000
      0.000236       0.006892       0.000000
      0.000257       0.006863       0.000000
      0.000290       0.006829       0.000000
      0.000257       0.006863       0.000000
      0.000257       0.006858       0.000000
      0.000294       0.006813       0.000000
      0.000257       0.006863       0.000000
      0.000236       0.006892       0.000000
      0.000238       0.006897       0.000000
      0.000257       0.006858       0.000000
      0.000007       0.000031       0.000000
      0.000027       0.000071       0.000000
      0.000031       0.000072       0.000000
      0.000008       0.000019       0.000000
      0.000027       0.000071       0.000000
      0.000062       0.000117       0.000000
      0.000067       0.000130       0.000000
      0.000031       0.000072       0.000000
      0.000008       0.000019       0.000000
      0.000031       0.000072       0.000000
      0.000036       0.000070       0.000000
      0.000000       0.000000       0.000000
      0.000294       0.006813       0.000000
      0.000257       0.006858       0.000000
      0.000261       0.006856       0.000000
      0.000298       0.006798       0.000000
      0.000257       0.006858       0.000000
      0.000238       0.006897       0.000000
      0.000245       0.006910       0.000000
      0.000261       0.006856       0.000000
      0.000261       0.006856       0.000000
      0.000245       0.006910       0.000000
      0.000256       0.006932       0.000000
      0.000267       0.006860       0.000000
     -0.000382       0.003462       0.000000
      0.000289       0.006830       0.000000
      0.000293       0.006849       0.000000
      0.000151       0.003538       0.000000
      0.000289       0.006830       0.000000
      0.000296       0.006874       0.000000
      0.000298       0.006878       0.000000
      0.000293       0.006849       0.000000
      0.000151       0.003538       0.000000
      0.000293       0.006849       0.000000
      0.000299       0.006855       0.000000
      0.000327       0.005105       0.000000
      0.000293       0.006849       0.000000
      0.000298       0.006878       0.000000
      0.000300       0.006875       0.000000
      0.000299       0.006855       0.000000
      0.000058       0.000060       0.000000
      0.000049       0.000107       0.000000
      0.000058       0.000084       0.000000
      0.000060       0.000055       0.000000
      0.000049       0.000107       0.000000
     -0.000382       0.003462       0.000000
      0.000151       0.003538       0.000000
      0.000058       0.000084       0.000000
      0.000060       0.000055       0.000000
      0.000058       0.000084       0.000000
      0.000054       0.000044       0.000000
      0.000062       0.000055       0.000000
      0.000058       0.000084       0.000000
      0.000151       0.003538       0.000000
      0.000327       0.005105       0.000000
      0.000054       0.000044       0.000000
      0.000288       0.006895       0.000000
      0.000279       0.006902       0.000000
      0.000276       0.006889       0.000000
      0.000287       0.006882       0.000000
      0.000279       0.006902       0.000000
      0.000271       0.006909       0.000000
      0.000265       0.006896       0.000000
      0.000276       0.006889       0.000000
      0.000287       0.006882       0.000000
      0.000276       0.006889       0.000000
      0.000273       0.006878       0.000000
      0.000286       0.006869       0.000000
      0.000276       0.006889       0.000000
      0.000265       0.006896       0.000000
      0.000262       0.006887       0.000000
      0.000273       0.006878       0.000000
      0.000296       0.006886       0.000000
      0.000292       0.006891       0.000000
      0.000292       0.006885       0.000000
      0.000297       0.006881       0.000000
      0.000292       0.006891       0.000000
      0.000288       0.006895       0.000000
      0.000287       0.006888       0.000000
      0.000292       0.006885       0.000000
      0.000297       0.006881       0.000000
      0.000292       0.006885       0.000000
      0.000292       0.006878       0.000000
      0.000298       0.006875       0.000000
      0.000292       0.006885       0.000000
      0.000287       0.006888       0.000000
      0.000287       0.006882       0.000000
      0.000292       0.006878       0.000000
      0.000296       0.006874       0.000000
      0.000296       0.006883       0.000000
      0.000298       0.006882       0.000000
      0.000298       0.006878       0.000000
      0.000296       0.006883       0.000000
      0.000296       0.006886       0.000000
      0.000296       0.006884       0.000000
      0.000298       0.006882       0.000000
      0.000298       0.006878       0.000000
      0.000298       0.006882       0.000000
      0.000299       0.006879       0.000000
      0.000300       0.006875       0.000000
      0.000298       0.006882       0.000000
      0.000296       0.006884       0.000000
      0.000297       0.006881       0.000000
      0.000299       0.006879       0.000000
      0.000039       0.000023       0.000000
      0.000047       0.000029       0.000000
      0.000043       0.000042       0.000000
      0.000033       0.000035       0.000000
      0.000047       0.000029       0.000000
      0.000055       0.000037       0.000000
      0.000054       0.000049       0.000000
      0.000043       0.000042       0.000000
      0.000033       0.000035       0.000000
      0.000043       0.000042       0.000000
      0.000041       0.000052       0.000000
      0.000030       0.000043       0.000000
      0.000043       0.000042       0.000000
      0.000054       0.000049       0.000000
      0.000053       0.000060       0.000000
      0.000041       0.000052       0.000000
      0.000055       0.000037       0.000000
      0.000058       0.000041       0.000000
      0.000059       0.000046       0.000000
      0.000054       0.000043       0.000000
      0.000058       0.000041       0.000000
      0.000060       0.000046       0.000000
      0.000062       0.000050       0.000000
      0.000059       0.000046       0.000000
      0.000054       0.000043       0.000000
      0.000059       0.000046       0.000000
      0.000059       0.000052       0.000000
      0.000054       0.000049       0.000000
      0.000059       0.000046       0.000000
      0.000062       0.000050       0.000000
      0.000063       0.000056       0.000000
      0.000059       0.000052       0.000000
      0.000060       0.000046       0.000000
      0.000060       0.000051       0.000000
      0.000062       0.000050       0.000000
      0.000061       0.000047       0.000000
      0.000060       0.000051       0.000000
      0.000058       0.000060       0.000000
      0.000060       0.000055       0.000000
      0.000062       0.000050       0.000000
      0.000061       0.000047       0.000000
      0.000062       0.000050       0.000000
      0.000063       0.000052       0.000000
      0.000062       0.000050       0.000000
      0.000062       0.000050       0.000000
      0.000060       0.000055       0.000000
      0.000062       0.000055       0.000000
      0.000063       0.000052       0.000000
      0.000327       0.005105       0.000000
      0.000299       0.006855       0.000000
      0.000304       0.006870       0.000000
      0.000299       0.006884       0.000000
      0.000299       0.006855       0.000000
      0.000300       0.006875       0.000000
      0.000302       0.006873       0.000000
      0.000304       0.006870       0.000000
      0.000299       0.006884       0.000000
      0.000304       0.006870       0.000000
      0.000305       0.006868       0.000000
      0.000306       0.006900       0.000000
      0.000304       0.006870       0.000000
      0.000302       0.006873       0.000000
      0.000303       0.006870       0.000000
      0.000305       0.006868       0.000000
      0.000062       0.000055       0.000000
      0.000054       0.000044       0.000000
      0.000061       0.000021       0.000000
      0.000066       0.000057       0.000000
      0.000054       0.000044       0.000000
      0.000327       0.005105       0.000000
      0.000299       0.006884       0.000000
      0.000061       0.000021       0.000000
      0.000066       0.000057       0.000000
      0.000061       0.000021       0.000000
      0.000067       0.000023       0.000000
      0.000068       0.000060       0.000000
      0.000061       0.000021       0.000000
      0.000299       0.006884       0.000000
      0.000306       0.006900       0.000000
      0.000067       0.000023       0.000000
      0.000300       0.006875       0.000000
      0.000299       0.006879       0.000000
      0.000300       0.006876       0.000000
      0.000302       0.006873       0.000000
      0.000299       0.006879       0.000000
      0.000297       0.006881       0.000000
      0.000297       0.006878       0.000000
      0.000300       0.006876       0.000000
      0.000302       0.006873       0.000000
      0.000300       0.006876       0.000000
      0.000300       0.006872       0.000000
      0.000303       0.006870       0.000000
      0.000300       0.006876       0.000000
      0.000297       0.006878       0.000000
      0.000298       0.006875       0.000000
      0.000300       0.006872       0.000000
      0.000062       0.000050       0.000000
      0.000063       0.000052       0.000000
      0.000064       0.000055       0.000000
      0.000063       0.000052       0.000000
      0.000063       0.000052       0.000000
      0.000062       0.000055       0.000000
      0.000066       0.000057       0.000000
      0.000064       0.000055       0.000000
      0.000063       0.000052       0.000000
      0.000064       0.000055       0.000000
      0.000066       0.000058       0.000000
      0.000063       0.000056       0.000000
      0.000064       0.000055       0.000000
      0.000066       0.000057       0.000000
      0.000068       0.000060       0.000000
      0.000066       0.000058       0.000000
      0.000306       0.006900       0.000000
      0.000305       0.006868       0.000000
      0.000307       0.006864       0.000000
      0.000309       0.006900       0.000000
      0.000305       0.006868       0.000000
      0.000303       0.006870       0.000000
      0.000304       0.006866       0.000000
      0.000307       0.006864       0.000000
      0.000309       0.006900       0.000000
      0.000307       0.006864       0.000000
      0.000308       0.006860       0.000000
      0.000311       0.006898       0.000000
      0.000307       0.006864       0.000000
      0.000304       0.006866       0.000000
      0.000305       0.006863       0.000000
      0.000308       0.006860       0.000000
      0.000068       0.000060       0.000000
      0.000067       0.000023       0.000000
      0.000070       0.000026       0.000000
      0.000069       0.000064       0.000000
      0.000067       0.000023       0.000000
      0.000306       0.006900       0.000000
      0.000309       0.006900       0.000000
      0.000070       0.000026       0.000000
      0.000069       0.000064       0.000000
      0.000070       0.000026       0.000000
      0.000071       0.000030       0.000000
      0.000070       0.000068       0.000000
      0.000070       0.000026       0.000000
      0.000309       0.006900       0.000000
      0.000311       0.006898       0.000000
      0.000071       0.000030       0.000000
      0.000298       0.006875       0.000000
      0.000292       0.006878       0.000000
      0.000292       0.006872       0.000000
      0.000298       0.006868       0.000000
      0.000292       0.006878       0.000000
      0.000287       0.006882       0.000000
      0.000286       0.006875       0.000000
      0.000292       0.006872       0.000000
      0.000298       0.006868       0.000000
      0.000292       0.006872       0.000000
      0.000292       0.006865       0.000000