# vtk DataFile Version 2.0
time_10.vtk
ASCII
DATASET UNSTRUCTURED_GRID
POINTS   576 float
      0.458579       0.641421       0.000000
      0.497369       0.671659       0.000000
      0.438243       0.730363       0.000000
      0.382149       0.701184       0.000000
      0.497369       0.671659       0.000000
      0.545805       0.692517       0.000000
      0.506084       0.750000       0.000000
      0.438243       0.730363       0.000000
      0.382149       0.701184       0.000000
      0.438243       0.730363       0.000000
      0.380813       0.787383       0.000000
      0.305719       0.760948       0.000000
      0.438243       0.730363       0.000000
      0.506084       0.750000       0.000000
      0.468251       0.804752       0.000000
      0.380813       0.787383       0.000000
      0.545805       0.692517       0.000000
      0.600000       0.700000       0.000000
      0.581017       0.756950       0.000000
      0.506084       0.750000       0.000000
      0.600000       0.700000       0.000000
      0.654195       0.692517       0.000000
      0.656527       0.750000       0.000000
      0.581017       0.756950       0.000000
      0.506084       0.750000       0.000000
      0.581017       0.756950       0.000000
      0.563060       0.810819       0.000000
      0.468251       0.804752       0.000000
      0.581017       0.756950       0.000000
      0.656527       0.750000       0.000000
      0.658747       0.804752       0.000000
      0.563060       0.810819       0.000000
      0.654195       0.692517       0.000000
      0.702631       0.671659       0.000000
      0.725999       0.730363       0.000000
      0.656527       0.750000       0.000000
      0.702631       0.671659       0.000000
      0.741421       0.641421       0.000000
      0.784518       0.701184       0.000000
      0.725999       0.730363       0.000000
      0.656527       0.750000       0.000000
      0.725999       0.730363       0.000000
      0.748697       0.787383       0.000000
      0.658747       0.804752       0.000000
      0.725999       0.730363       0.000000
      0.784518       0.701184       0.000000
      0.827614       0.760948       0.000000
      0.748697       0.787383       0.000000
      0.305719       0.760948       0.000000
      0.380813       0.787383       0.000000
      0.325006       0.842791       0.000000
      0.229289       0.820711       0.000000
      0.380813       0.787383       0.000000
      0.468251       0.804752       0.000000
      0.432173       0.856962       0.000000
      0.325006       0.842791       0.000000
      0.229289       0.820711       0.000000
      0.325006       0.842791       0.000000
      0.270755       0.896655       0.000000
      0.152860       0.880474       0.000000
      0.325006       0.842791       0.000000
      0.432173       0.856962       0.000000
      0.397732       0.906804       0.000000
      0.270755       0.896655       0.000000
      0.468251       0.804752       0.000000
      0.563060       0.810819       0.000000
      0.546050       0.861851       0.000000
      0.432173       0.856962       0.000000
      0.563060       0.810819       0.000000
      0.658747       0.804752       0.000000
      0.660865       0.856962       0.000000
      0.546050       0.861851       0.000000
      0.432173       0.856962       0.000000
      0.546050       0.861851       0.000000
      0.529912       0.910264       0.000000
      0.397732       0.906804       0.000000
      0.546050       0.861851       0.000000
      0.660865       0.856962       0.000000
      0.662887       0.906804       0.000000
      0.529912       0.910264       0.000000
      0.658747       0.804752       0.000000
      0.748697       0.787383       0.000000
      0.770753       0.842791       0.000000
      0.660865       0.856962       0.000000
      0.748697       0.787383       0.000000
      0.827614       0.760948       0.000000
      0.870711       0.820711       0.000000
      0.770753       0.842791       0.000000
      0.660865       0.856962       0.000000
      0.770753       0.842791       0.000000
      0.792195       0.896655       0.000000
      0.662887       0.906804       0.000000
      0.770753       0.842791       0.000000
      0.870711       0.820711       0.000000
      0.913807       0.880474       0.000000
      0.792195       0.896655       0.000000
      0.152860       0.880474       0.000000
      0.270755       0.896655       0.000000
      0.217995       0.949038       0.000000
      0.076430       0.940237       0.000000
      0.270755       0.896655       0.000000
      0.397732       0.906804       0.000000
      0.364819       0.954435       0.000000
      0.217995       0.949038       0.000000
      0.076430       0.940237       0.000000
      0.217995       0.949038       0.000000
      0.166667       1.000000       0.000000
      0.000000       1.000000       0.000000
      0.217995       0.949038       0.000000
      0.364819       0.954435       0.000000
      0.333333       1.000000       0.000000
      0.166667       1.000000       0.000000
      0.397732       0.906804       0.000000
      0.529912       0.910264       0.000000
      0.514582       0.956255       0.000000
      0.364819       0.954435       0.000000
      0.529912       0.910264       0.000000
      0.662887       0.906804       0.000000
      0.664819       0.954435       0.000000
      0.514582       0.956255       0.000000
      0.364819       0.954435       0.000000
      0.514582       0.956255       0.000000
      0.500000       1.000000       0.000000
      0.333333       1.000000       0.000000
      0.514582       0.956255       0.000000
      0.664819       0.954435       0.000000
      0.666667       1.000000       0.000000
      0.500000       1.000000       0.000000
      0.662887       0.906804       0.000000
      0.792195       0.896655       0.000000
      0.813047       0.949038       0.000000
      0.664819       0.954435       0.000000
      0.792195       0.896655       0.000000
      0.913807       0.880474       0.000000
      0.956904       0.940237       0.000000
      0.813047       0.949038       0.000000
      0.664819       0.954435       0.000000
      0.813047       0.949038       0.000000
      0.833333       1.000000       0.000000
      0.666667       1.000000       0.000000
      0.813047       0.949038       0.000000
      0.956904       0.940237       0.000000
      1.000000       1.000000       0.000000
      0.833333       1.000000       0.000000
      0.458579       0.358579       0.000000
      0.428341       0.397369       0.000000
      0.351758       0.356122       0.000000
      0.382149       0.298816       0.000000
      0.428341       0.397369       0.000000
      0.407483       0.445805       0.000000
      0.331305       0.424779       0.000000
      0.351758       0.356122       0.000000
      0.382149       0.298816       0.000000
      0.351758       0.356122       0.000000
      0.277372       0.316058       0.000000
      0.305719       0.239052       0.000000
      0.351758       0.356122       0.000000
      0.331305       0.424779       0.000000
      0.258747       0.404752       0.000000
      0.277372       0.316058       0.000000
      0.407483       0.445805       0.000000
      0.400000       0.500000       0.000000
      0.324066       0.500000       0.000000
      0.331305       0.424779       0.000000
      0.400000       0.500000       0.000000
      0.407483       0.554195       0.000000
      0.331305       0.575221       0.000000
      0.324066       0.500000       0.000000
      0.331305       0.424779       0.000000
      0.324066       0.500000       0.000000
      0.252241       0.500000       0.000000
      0.258747       0.404752       0.000000
      0.324066       0.500000       0.000000
      0.331305       0.575221       0.000000
      0.258747       0.595248       0.000000
      0.252241       0.500000       0.000000
      0.407483       0.554195       0.000000
      0.428341       0.602631       0.000000
      0.351758       0.643878       0.000000
      0.331305       0.575221       0.000000
      0.428341       0.602631       0.000000
      0.458579       0.641421       0.000000
      0.382149       0.701184       0.000000
      0.351758       0.643878       0.000000
      0.331305       0.575221       0.000000
      0.351758       0.643878       0.000000
      0.277372       0.683942       0.000000
      0.258747       0.595248       0.000000
      0.351758       0.643878       0.000000
      0.382149       0.701184       0.000000
      0.305719       0.760948       0.000000
      0.277372       0.683942       0.000000
      0.305719       0.239052       0.000000
      0.277372       0.316058       0.000000
      0.205089       0.277126       0.000000
      0.229289       0.179289       0.000000
      0.277372       0.316058       0.000000
      0.258747       0.404752       0.000000
      0.189557       0.385654       0.000000
      0.205089       0.277126       0.000000
      0.229289       0.179289       0.000000
      0.205089       0.277126       0.000000
      0.134820       0.239280       0.000000
      0.152860       0.119526       0.000000
      0.205089       0.277126       0.000000
      0.189557       0.385654       0.000000
      0.123505       0.367423       0.000000
      0.134820       0.239280       0.000000
      0.258747       0.404752       0.000000
      0.252241       0.500000       0.000000
      0.184198       0.500000       0.000000
      0.189557       0.385654       0.000000
      0.252241       0.500000       0.000000
      0.258747       0.595248       0.000000
      0.189557       0.614346       0.000000
      0.184198       0.500000       0.000000
      0.189557       0.385654       0.000000
      0.184198       0.500000       0.000000
      0.119648       0.500000       0.000000
      0.123505       0.367423       0.000000
[...]
POINT_DATA   576
VECTORS U float 
      0.000351       0.004568       0.000000
      0.000182       0.004904       0.000000
      0.000030       0.004655       0.000000
      0.000235       0.004236       0.000000
      0.000182       0.004904       0.000000
      0.000001       0.005128       0.000000
     -0.000106       0.005031       0.000000
      0.000030       0.004655       0.000000
      0.000235       0.004236       0.000000
      0.000030       0.004655       0.000000
      0.000056       0.004635       0.000000
      0.000300       0.004288       0.000000
      0.000030       0.004655       0.000000
     -0.000106       0.005031       0.000000
     -0.000116       0.004992       0.000000
      0.000056       0.004635       0.000000
      0.000001       0.005128       0.000000
     -0.000188       0.005219       0.000000
     -0.000177       0.005242       0.000000
     -0.000106       0.005031       0.000000
     -0.000188       0.005219       0.000000
     -0.000394       0.005171       0.000000
     -0.000245       0.005205       0.000000
     -0.000177       0.005242       0.000000
     -0.000106       0.005031       0.000000
     -0.000177       0.005242       0.000000
     -0.000175       0.005240       0.000000
     -0.000116       0.004992       0.000000
     -0.000177       0.005242       0.000000
     -0.000245       0.005205       0.000000
     -0.000186       0.005230       0.000000
     -0.000175       0.005240       0.000000
     -0.000394       0.005171       0.000000
     -0.000625       0.004985       0.000000
     -0.000371       0.004924       0.000000
     -0.000245       0.005205       0.000000
     -0.000625       0.004985       0.000000
     -0.000874       0.004674       0.000000
     -0.000592       0.004495       0.000000
     -0.000371       0.004924       0.000000
     -0.000245       0.005205       0.000000
     -0.000371       0.004924       0.000000
     -0.000270       0.004948       0.000000
     -0.000186       0.005230       0.000000
     -0.000371       0.004924       0.000000
     -0.000592       0.004495       0.000000
     -0.000479       0.004528       0.000000
     -0.000270       0.004948       0.000000
      0.000300       0.004288       0.000000
      0.000056       0.004635       0.000000
      0.000116       0.004741       0.000000
      0.000393       0.004481       0.000000
      0.000056       0.004635       0.000000
     -0.000116       0.004992       0.000000
     -0.000096       0.005027       0.000000
      0.000116       0.004741       0.000000
      0.000393       0.004481       0.000000
      0.000116       0.004741       0.000000
      0.000189       0.004919       0.000000
      0.000502       0.004739       0.000000
      0.000116       0.004741       0.000000
     -0.000096       0.005027       0.000000
     -0.000065       0.005114       0.000000
      0.000189       0.004919       0.000000
     -0.000116       0.004992       0.000000
     -0.000175       0.005240       0.000000
     -0.000169       0.005256       0.000000
     -0.000096       0.005027       0.000000
     -0.000175       0.005240       0.000000
     -0.000186       0.005230       0.000000
     -0.000155       0.005264       0.000000
     -0.000169       0.005256       0.000000
     -0.000096       0.005027       0.000000
     -0.000169       0.005256       0.000000
     -0.000163       0.005290       0.000000
     -0.000065       0.005114       0.000000
     -0.000169       0.005256       0.000000
     -0.000155       0.005264       0.000000
     -0.000137       0.005307       0.000000
     -0.000163       0.005290       0.000000
     -0.000186       0.005230       0.000000
     -0.000270       0.004948       0.000000
     -0.000217       0.005016       0.000000
     -0.000155       0.005264       0.000000
     -0.000270       0.004948       0.000000
     -0.000479       0.004528       0.000000
     -0.000418       0.004642       0.000000
     -0.000217       0.005016       0.000000
     -0.000155       0.005264       0.000000
     -0.000217       0.005016       0.000000
     -0.000189       0.005116       0.000000
     -0.000137       0.005307       0.000000
     -0.000217       0.005016       0.000000
     -0.000418       0.004642       0.000000
     -0.000401       0.004820       0.000000
     -0.000189       0.005116       0.000000
      0.000502       0.004739       0.000000
      0.000189       0.004919       0.000000
      0.000278       0.005143       0.000000
      0.000641       0.005042       0.000000
      0.000189       0.004919       0.000000
     -0.000065       0.005114       0.000000
     -0.000028       0.005242       0.000000
      0.000278       0.005143       0.000000
      0.000641       0.005042       0.000000
      0.000278       0.005143       0.000000
      0.000391       0.005402       0.000000
      0.000830       0.005402       0.000000
      0.000278       0.005143       0.000000
     -0.000028       0.005242       0.000000
      0.000020       0.005402       0.000000
      0.000391       0.005402       0.000000
     -0.000065       0.005114       0.000000
     -0.000163       0.005290       0.000000
     -0.000158       0.005340       0.000000
     -0.000028       0.005242       0.000000
     -0.000163       0.005290       0.000000
     -0.000137       0.005307       0.000000
     -0.000127       0.005353       0.000000
     -0.000158       0.005340       0.000000
     -0.000028       0.005242       0.000000
     -0.000158       0.005340       0.000000
     -0.000154       0.005402       0.000000
      0.000020       0.005402       0.000000
     -0.000158       0.005340       0.000000
     -0.000127       0.005353       0.000000
     -0.000124       0.005402       0.000000
     -0.000154       0.005402       0.000000
     -0.000137       0.005307       0.000000
     -0.000189       0.005116       0.000000
     -0.000181       0.005244       0.000000
     -0.000127       0.005353       0.000000
     -0.000189       0.005116       0.000000
     -0.000401       0.004820       0.000000
     -0.000436       0.005074       0.000000
     -0.000181       0.005244       0.000000
     -0.000127       0.005353       0.000000
     -0.000181       0.005244       0.000000
     -0.000194       0.005402       0.000000
     -0.000124       0.005402       0.000000
     -0.000181       0.005244       0.000000
     -0.000436       0.005074       0.000000
     -0.000522       0.005402       0.000000
     -0.000194       0.005402       0.000000
      0.000305       0.000719       0.000000
      0.000463       0.001160       0.000000
      0.000456       0.001506       0.000000
      0.000186       0.001039       0.000000
      0.000463       0.001160       0.000000
      0.000587       0.001787       0.000000
      0.000751       0.002055       0.000000
      0.000456       0.001506       0.000000
      0.000186       0.001039       0.000000
      0.000456       0.001506       0.000000
      0.000521       0.001498       0.000000
      0.000225       0.000986       0.000000
      0.000456       0.001506       0.000000
      0.000751       0.002055       0.000000
      0.000848       0.002078       0.000000
      0.000521       0.001498       0.000000
      0.000587       0.001787       0.000000
      0.000631       0.002626       0.000000
      0.000902       0.002638       0.000000
      0.000751       0.002055       0.000000
      0.000631       0.002626       0.000000
      0.000612       0.003471       0.000000
      0.000782       0.003217       0.000000
      0.000902       0.002638       0.000000
      0.000751       0.002055       0.000000
      0.000902       0.002638       0.000000
      0.001014       0.002647       0.000000
      0.000848       0.002078       0.000000
      0.000902       0.002638       0.000000
      0.000782       0.003217       0.000000
      0.000881       0.003208       0.000000
      0.001014       0.002647       0.000000
      0.000612       0.003471       0.000000
      0.000506       0.004110       0.000000
      0.000505       0.003762       0.000000
      0.000782       0.003217       0.000000
      0.000506       0.004110       0.000000
      0.000351       0.004568       0.000000
      0.000235       0.004236       0.000000
      0.000505       0.003762       0.000000
      0.000782       0.003217       0.000000
      0.000505       0.003762       0.000000
      0.000581       0.003778       0.000000
      0.000881       0.003208       0.000000
      0.000505       0.003762       0.000000
      0.000235       0.004236       0.000000
      0.000300       0.004288       0.000000
      0.000581       0.003778       0.000000
      0.000225       0.000986       0.000000
      0.000521       0.001498       0.000000
      0.000594       0.001392       0.000000
      0.000265       0.000802       0.000000
      0.000521       0.001498       0.000000
      0.000848       0.002078       0.000000
      0.000944       0.002040       0.000000
      0.000594       0.001392       0.000000
      0.000265       0.000802       0.000000
      0.000594       0.001392       0.000000
      0.000662       0.001273       0.000000
      0.000274       0.000568       0.000000
      0.000594       0.001392       0.000000
      0.000944       0.002040       0.000000
      0.001044       0.001999       0.000000
      0.000662       0.001273       0.000000
      0.000848       0.002078       0.000000
      0.001014       0.002647       0.000000
      0.001118       0.002657       0.000000
      0.000944       0.002040       0.000000
      0.001014       0.002647       0.000000
      0.000881       0.003208       0.000000
      0.000981       0.003268       0.000000
      0.001118       0.002657       0.000000
      0.000944       0.002040       0.000000
      0.001118       0.002657       0.000000
      0.001230       0.002670       0.000000
      0.001044       0.001999       0.000000
      0.001118       0.002657       0.000000
      0.000981       0.003268       0.000000
      0.001084       0.003337       0.000000
      0.001230       0.002670       0.000000
      0.000881       0.003208       0.000000
      0.000581       0.003778       0.000000
      0.000673       0.003899       0.000000
      0.000981       0.003268       0.000000
      0.000581       0.003778       0.000000
      0.000300       0.004288       0.000000
      0.000393       0.004481       0.000000
      0.000673       0.003899       0.000000
      0.000981       0.003268       0.000000
      0.000673       0.003899       0.000000
      0.000766       0.004048       0.000000
      0.001084       0.003337       0.000000
      0.000673       0.003899       0.000000
      0.000393       0.004481       0.000000
      0.000502       0.004739       0.000000
      0.000766       0.004048       0.000000
      0.000274       0.000568       0.000000
      0.000662       0.001273       0.000000
      0.000721       0.001184       0.000000
      0.000222       0.000311       0.000000
      0.000662       0.001273       0.000000
      0.001044       0.001999       0.000000
      0.001139       0.001983       0.000000
      0.000721       0.001184       0.000000
      0.000222       0.000311       0.000000
      0.000721       0.001184       0.000000
      0.000772       0.001142       0.000000
      0.000000       0.000000       0.000000
      0.000721       0.001184       0.000000
      0.001139       0.001983       0.000000
      0.001223       0.002011       0.000000
      0.000772       0.001142       0.000000
      0.001044       0.001999       0.000000
      0.001230       0.002670       0.000000
      0.001343       0.002682       0.000000
      0.001139       0.001983       0.000000
      0.001230       0.002670       0.000000
      0.001084       0.003337       0.000000
      0.001186       0.003385       0.000000
      0.001343       0.002682       0.000000
      0.001139       0.001983       0.000000
      0.001343       0.002682       0.000000
      0.001446       0.002692       0.000000
      0.001223       0.002011       0.000000
      0.001343       0.002682       0.000000
      0.001186       0.003385       0.000000
      0.001281       0.003388       0.000000
      0.001446       0.002692       0.000000
      0.001084       0.003337       0.000000
      0.000766       0.004048       0.000000
      0.000861       0.004190       0.000000
      0.001186       0.003385       0.000000
      0.000766       0.004048       0.000000
      0.000502       0.004739       0.000000
      0.000641       0.005042       0.000000
      0.000861       0.004190       0.000000
      0.001186       0.003385       0.000000
      0.000861       0.004190       0.000000
      0.000968       0.004314       0.000000
      0.001281       0.003388       0.000000
      0.000861       0.004190       0.000000
      0.000641       0.005042       0.000000
      0.000830       0.005402       0.000000
      0.000968       0.004314       0.000000
     -0.000821       0.000676       0.000000
     -0.000567       0.000366       0.000000
     -0.000304       0.000432       0.000000
     -0.000524       0.000863       0.000000
     -0.000567       0.000366       0.000000
     -0.000345       0.000182       0.000000
     -0.000192       0.000156       0.000000
     -0.000304       0.000432       0.000000
     -0.000524       0.000863       0.000000
     -0.000304       0.000432       0.000000
     -0.000180       0.000415       0.000000
     -0.000388       0.000839       0.000000
     -0.000304       0.000432       0.000000
     -0.000192       0.000156       0.000000
     -0.000115       0.000139       0.000000
     -0.000180       0.000415       0.000000
     -0.000345       0.000182       0.000000
     -0.000165       0.000130       0.000000
     -0.000147       0.000113       0.000000
     -0.000192       0.000156       0.000000
     -0.000165       0.000130       0.000000
     -0.000009       0.000207       0.000000
     -0.000105       0.000297       0.000000
     -0.000147       0.000113       0.000000
     -0.000192       0.000156       0.000000
     -0.000147       0.000113       0.000000
     -0.000135       0.000121       0.000000
     -0.000115       0.000139       0.000000
     -0.000147       0.000113       0.000000
     -0.000105       0.000297       0.000000
     -0.000119       0.000335       0.000000
     -0.000135       0.000121       0.000000
     -0.000009       0.000207       0.000000
      0.000146       0.000407       0.000000
      0.000000       0.000641       0.000000
     -0.000105       0.000297       0.000000
      0.000146       0.000407       0.000000
      0.000305       0.000719       0.000000
      0.000186       0.001039       0.000000
      0.000000       0.000641       0.000000
     -0.000105       0.000297       0.000000
      0.000000       0.000641       0.000000
      0.000008       0.000657       0.000000
     -0.000119       0.000335       0.000000
      0.000000       0.000641       0.000000
      0.000186       0.001039       0.000000
      0.000225       0.000986       0.000000
      0.000008       0.000657       0.000000
     -0.000388       0.000839       0.000000
     -0.000180       0.000415       0.000000
     -0.000097       0.000352       0.000000
     -0.000294       0.000731       0.000000
     -0.000180       0.000415       0.000000
     -0.000115       0.000139       0.000000
     -0.000064       0.000116       0.000000
     -0.000097       0.000352       0.000000
     -0.000294       0.000731       0.000000
     -0.000097       0.000352       0.000000
     -0.000038       0.000256       0.000000
     -0.000232       0.000557       0.000000
     -0.000097       0.000352       0.000000
     -0.000064       0.000116       0.000000
     -0.000027       0.000085       0.000000
     -0.000038       0.000256       0.000000
     -0.000115       0.000139       0.000000
     -0.000135       0.000121       0.000000
     -0.000118       0.000115       0.000000
     -0.000064       0.000116       0.000000
     -0.000135       0.000121       0.000000
     -0.000119       0.000335       0.000000
     -0.000105       0.000306       0.000000
     -0.000118       0.000115       0.000000
     -0.000064       0.000116       0.000000
     -0.000118       0.000115       0.000000
     -0.000093       0.000092       0.000000
     -0.000027       0.000085       0.000000
     -0.000118       0.000115       0.000000
     -0.000105       0.000306       0.000000
     -0.000079       0.000228       0.000000
     -0.000093       0.000092       0.000000
     -0.000119       0.000335       0.000000
      0.000008       0.000657       0.000000
      0.000035       0.000553       0.000000
     -0.000105       0.000306       0.000000
      0.000008       0.000657       0.000000
      0.000225       0.000986       0.000000
      0.000265       0.000802       0.000000
      0.000035       0.000553       0.000000
     -0.000105       0.000306       0.000000
      0.000035       0.000553       0.000000
      0.000053       0.000388       0.000000
     -0.000079       0.000228       0.000000
      0.000035       0.000553       0.000000
      0.000265       0.000802       0.000000
      0.000274       0.000568       0.000000
      0.000053       0.000388       0.000000
     -0.000232       0.000557       0.000000
     -0.000038       0.000256       0.000000
     -0.000003       0.000135       0.000000
     -0.000177       0.000313       0.000000
     -0.000038       0.000256       0.000000
     -0.000027       0.000085       0.000000
     -0.000004       0.000047       0.000000
     -0.000003       0.000135       0.000000
     -0.000177       0.000313       0.000000
     -0.000003       0.000135       0.000000
      0.000000       0.000000       0.000000
      0.000000       0.000000       0.000000
     -0.000003       0.000135       0.000000
     -0.000004       0.000047       0.000000
      0.000000       0.000000       0.000000
      0.000000       0.000000       0.000000
     -0.000027       0.000085       0.000000
     -0.000093       0.000092       0.000000
     -0.000057       0.000053       0.000000
     -0.000004       0.000047       0.000000
     -0.000093       0.000092       0.000000
     -0.000079       0.000228       0.000000
     -0.000044       0.000121       0.000000
     -0.000057       0.000053       0.000000
     -0.000004       0.000047       0.000000
     -0.000057       0.000053       0.000000
      0.000000       0.000000       0.000000
      0.000000       0.000000       0.000000
     -0.000057       0.000053       0.000000
     -0.000044       0.000121       0.000000
      0.000000       0.000000       0.000000
      0.000000       0.000000       0.000000
     -0.000079       0.000228       0.000000
      0.000053       0.000388       0.000000
      0.000046       0.000196       0.000000
     -0.000044       0.000121       0.000000
      0.000053       0.000388       0.000000
      0.000274       0.000568       0.000000
      0.000222       0.000311       0.000000
      0.000046       0.000196       0.000000
     -0.000044       0.000121       0.000000
      0.000046       0.000196       0.000000
      0.000000       0.000000       0.000000
      0.000000       0.000000       0.000000
      0.000046       0.000196       0.000000
      0.000222       0.000311       0.000000
      0.000000       0.000000       0.000000
      0.000000       0.000000       0.000000
     -0.000821       0.000676       0.000000
     -0.001096       0.001126       0.000000
     -0.000909       0.001334       0.000000
     -0.000524       0.000863       0.000000
     -0.001096       0.001126       0.000000
     -0.001336       0.001777       0.000000
     -0.001374       0.001931       0.000000
     -0.000909       0.001334       0.000000
     -0.000524       0.000863       0.000000
     -0.000909       0.001334       0.000000
     -0.000796       0.001351       0.000000