# vtk DataFile Version 2.0
time_10.vtk
ASCII
DATASET UNSTRUCTURED_GRID
POINTS   576 float
      0.458579       0.641421       0.000000
      0.497369       0.671659       0.000000
      0.438243       0.730363       0.000000
      0.382149       0.701184       0.000000
      0.497369       0.671659       0.000000
      0.545805       0.692517       0.000000
      0.506084       0.750000       0.000000
      0.438243       0.730363       0.000000
      0.382149       0.701184       0.000000
      0.438243       0.730363       0.000000
      0.380813       0.787383       0.000000
      0.305719       0.760948       0.000000
      0.438243       0.730363       0.000000
      0.506084       0.750000       0.000000
      0.468251       0.804752       0.000000
      0.380813       0.787383       0.000000
      0.545805       0.692517       0.000000
      0.600000       0.700000       0.000000
      0.581017       0.756950       0.000000
      0.506084       0.750000       0.000000
      0.600000       0.700000       0.000000
      0.654195       0.692517       0.000000
      0.656527       0.750000       0.000000
      0.581017       0.756950       0.000000
      0.506084       0.750000       0.000000
      0.581017       0.756950       0.000000
      0.563060       0.810819       0.000000
      0.468251       0.804752       0.000000
      0.581017       0.756950       0.000000
      0.656527       0.750000       0.000000
      0.658747       0.804752       0.000000
      0.563060       0.810819       0.000000
      0.654195       0.692517       0.000000
      0.702631       0.671659       0.000000
      0.725999       0.730363       0.000000
      0.656527       0.750000       0.000000
      0.702631       0.671659       0.000000
      0.741421       0.641421       0.000000
      0.784518       0.701184       0.000000
      0.725999       0.730363       0.000000
      0.656527       0.750000       0.000000
      0.725999       0.730363       0.000000
      0.748697       0.787383       0.000000
      0.658747       0.804752       0.000000
      0.725999       0.730363       0.000000
      0.784518       0.701184       0.000000
      0.827614       0.760948       0.000000
      0.748697       0.787383       0.000000
      0.305719       0.760948       0.000000
      0.380813       0.787383       0.000000
      0.325006       0.842791       0.000000
      0.229289       0.820711       0.000000
      0.380813       0.787383       0.000000
      0.468251       0.804752       0.000000
      0.432173       0.856962       0.000000
      0.325006       0.842791       0.000000
      0.229289       0.820711       0.000000
      0.325006       0.842791       0.000000
      0.270755       0.896655       0.000000
      0.152860       0.880474       0.000000
      0.325006       0.842791       0.000000
      0.432173       0.856962       0.000000
      0.397732       0.906804       0.000000
      0.270755       0.896655       0.000000
      0.468251       0.804752       0.000000
      0.563060       0.810819       0.000000
      0.546050       0.861851       0.000000
      0.432173       0.856962       0.000000
      0.563060       0.810819       0.000000
      0.658747       0.804752       0.000000
      0.660865       0.856962       0.000000
      0.546050       0.861851       0.000000
      0.432173       0.856962       0.000000
      0.546050       0.861851       0.000000
      0.529912       0.910264       0.000000
      0.397732       0.906804       0.000000
      0.546050       0.861851       0.000000
      0.660865       0.856962       0.000000
      0.662887       0.906804       0.000000
      0.529912       0.910264       0.000000
      0.658747       0.804752       0.000000
      0.748697       0.787383       0.000000
      0.770753       0.842791       0.000000
      0.660865       0.856962       0.000000
      0.748697       0.787383       0.000000
      0.827614       0.760948       0.000000
      0.870711       0.820711       0.000000
      0.770753       0.842791       0.000000
      0.660865       0.856962       0.000000
      0.770753       0.842791       0.000000
      0.792195       0.896655       0.000000
      0.662887       0.906804       0.000000
      0.770753       0.842791       0.000000
      0.870711       0.820711       0.000000
      0.913807       0.880474       0.000000
      0.792195       0.896655       0.000000
      0.152860       0.880474       0.000000
      0.270755       0.896655       0.000000
      0.217995       0.949038       0.000000
      0.076430       0.940237       0.000000
      0.270755       0.896655       0.000000
      0.397732       0.906804       0.000000
      0.364819       0.954435       0.000000
      0.217995       0.949038       0.000000
      0.076430       0.940237       0.000000
      0.217995       0.949038       0.000000
      0.166667       1.000000       0.000000
      0.000000       1.000000       0.000000
      0.217995       0.949038       0.000000
      0.364819       0.954435       0.000000
      0.333333       1.000000       0.000000
      0.166667       1.000000       0.000000
      0.397732       0.906804       0.000000
      0.529912       0.910264       0.000000
      0.514582       0.956255       0.000000
      0.364819       0.954435       0.000000
      0.529912       0.910264       0.000000
      0.662887       0.906804       0.000000
      0.664819       0.954435       0.000000
      0.514582       0.956255       0.000000
      0.364819       0.954435       0.000000
      0.514582       0.956255       0.000000
      0.500000       1.000000       0.000000
      0.333333       1.000000       0.000000
      0.514582       0.956255       0.000000
      0.664819       0.954435       0.000000
      0.666667       1.000000       0.000000
      0.500000       1.000000       0.000000
      0.662887       0.906804       0.000000
      0.792195       0.896655       0.000000
      0.813047       0.949038       0.000000
      0.664819       0.954435       0.000000
      0.792195       0.896655       0.000000
      0.913807       0.880474       0.000000
      0.956904       0.940237       0.000000
      0.813047       0.949038       0.000000
      0.664819       0.954435       0.000000
      0.813047       0.949038       0.000000
      0.833333       1.000000       0.000000
      0.666667       1.000000       0.000000
      0.813047       0.949038       0.000000
      0.956904       0.940237       0.000000
      1.000000       1.000000       0.000000
      0.833333       1.000000       0.000000
      0.458579       0.358579       0.000000
      0.428341       0.397369       0.000000
      0.351758       0.356122       0.000000
      0.382149       0.298816       0.000000
      0.428341       0.397369       0.000000
      0.407483       0.445805       0.000000
      0.331305       0.424779       0.000000
      0.351758       0.356122       0.000000
      0.382149       0.298816       0.000000
      0.351758       0.356122       0.000000
      0.277372       0.316058       0.000000
      0.305719       0.239052       0.000000
      0.351758       0.356122       0.000000
      0.331305       0.424779       0.000000
      0.258747       0.404752       0.000000
      0.277372       0.316058       0.000000
      0.407483       0.445805       0.000000
      0.400000       0.500000       0.000000
      0.324066       0.500000       0.000000
      0.331305       0.424779       0.000000
      0.400000       0.500000       0.000000
      0.407483       0.554195       0.000000
      0.331305       0.575221       0.000000
      0.324066       0.500000       0.000000
      0.331305       0.424779       0.000000
      0.324066       0.500000       0.000000
      0.252241       0.500000       0.000000
      0.258747       0.404752       0.000000
      0.324066       0.500000       0.000000
      0.331305       0.575221       0.000000
      0.258747       0.595248       0.000000
      0.252241       0.500000       0.000000
      0.407483       0.554195       0.000000
      0.428341       0.602631       0.000000
      0.351758       0.643878       0.000000
      0.331305       0.575221       0.000000
      0.428341       0.602631       0.000000
      0.458579       0.641421       0.000000
      0.382149       0.701184       0.000000
      0.351758       0.643878       0.000000
      0.331305       0.575221       0.000000
      0.351758       0.643878       0.000000
      0.277372       0.683942       0.000000
      0.258747       0.595248       0.000000
      0.351758       0.643878       0.000000
      0.382149       0.701184       0.000000
      0.305719       0.760948       0.000000
      0.277372       0.683942       0.000000
      0.305719       0.239052       0.000000
      0.277372       0.316058       0.000000
      0.205089       0.277126       0.000000
      0.229289       0.179289       0.000000
      0.277372       0.316058       0.000000
      0.258747       0.404752       0.000000
      0.189557       0.385654       0.000000
      0.205089       0.277126       0.000000
      0.229289       0.179289       0.000000
      0.205089       0.277126       0.000000
      0.134820       0.239280       0.000000
      0.152860       0.119526       0.000000
      0.205089       0.277126       0.000000
      0.189557       0.385654       0.000000
      0.123505       0.367423       0.000000
      0.134820       0.239280       0.000000
      0.258747       0.404752       0.000000
      0.252241       0.500000       0.000000
      0.184198       0.500000       0.000000
      0.189557       0.385654       0.000000
      0.252241       0.500000       0.000000
      0.258747       0.595248       0.000000
      0.189557       0.614346       0.000000
      0.184198       0.500000       0.000000
      0.189557       0.385654       0.000000
      0.184198       0.500000       0.000000
      0.119648       0.500000       0.000000
      0.123505       0.367423       0.000000
[...]
POINT_DATA   576
VECTORS U float 
      0.000370       0.004810       0.000000
      0.000191       0.005158       0.000000
      0.000032       0.004898       0.000000
      0.000246       0.004460       0.000000
      0.000191       0.005158       0.000000
      0.000001       0.005390       0.000000
     -0.000110       0.005289       0.000000
      0.000032       0.004898       0.000000
      0.000246       0.004460       0.000000
      0.000032       0.004898       0.000000
      0.000057       0.004876       0.000000
      0.000312       0.004510       0.000000
      0.000032       0.004898       0.000000
     -0.000110       0.005289       0.000000
     -0.000121       0.005249       0.000000
      0.000057       0.004876       0.000000
      0.000001       0.005390       0.000000
     -0.000196       0.005485       0.000000
     -0.000184       0.005509       0.000000
     -0.000110       0.005289       0.000000
     -0.000196       0.005485       0.000000
     -0.000411       0.005436       0.000000
     -0.000255       0.005471       0.000000
     -0.000184       0.005509       0.000000
     -0.000110       0.005289       0.000000
     -0.000184       0.005509       0.000000
     -0.000182       0.005507       0.000000
     -0.000121       0.005249       0.000000
     -0.000184       0.005509       0.000000
     -0.000255       0.005471       0.000000
     -0.000194       0.005497       0.000000
     -0.000182       0.005507       0.000000
     -0.000411       0.005436       0.000000
     -0.000653       0.005243       0.000000
     -0.000387       0.005179       0.000000
     -0.000255       0.005471       0.000000
     -0.000653       0.005243       0.000000
     -0.000916       0.004921       0.000000
     -0.000618       0.004732       0.000000
     -0.000387       0.005179       0.000000
     -0.000255       0.005471       0.000000
     -0.000387       0.005179       0.000000
     -0.000280       0.005203       0.000000
     -0.000194       0.005497       0.000000
     -0.000387       0.005179       0.000000
     -0.000618       0.004732       0.000000
     -0.000498       0.004763       0.000000
     -0.000280       0.005203       0.000000
      0.000312       0.004510       0.000000
      0.000057       0.004876       0.000000
      0.000119       0.004984       0.000000
      0.000409       0.004709       0.000000
      0.000057       0.004876       0.000000
     -0.000121       0.005249       0.000000
     -0.000101       0.005284       0.000000
      0.000119       0.004984       0.000000
      0.000409       0.004709       0.000000
      0.000119       0.004984       0.000000
      0.000194       0.005168       0.000000
      0.000521       0.004977       0.000000
      0.000119       0.004984       0.000000
     -0.000101       0.005284       0.000000
     -0.000070       0.005374       0.000000
      0.000194       0.005168       0.000000
     -0.000121       0.005249       0.000000
     -0.000182       0.005507       0.000000
     -0.000176       0.005522       0.000000
     -0.000101       0.005284       0.000000
     -0.000182       0.005507       0.000000
     -0.000194       0.005497       0.000000
     -0.000161       0.005531       0.000000
     -0.000176       0.005522       0.000000
     -0.000101       0.005284       0.000000
     -0.000176       0.005522       0.000000
     -0.000170       0.005557       0.000000
     -0.000070       0.005374       0.000000
     -0.000176       0.005522       0.000000
     -0.000161       0.005531       0.000000
     -0.000142       0.005574       0.000000
     -0.000170       0.005557       0.000000
     -0.000194       0.005497       0.000000
     -0.000280       0.005203       0.000000
     -0.000224       0.005272       0.000000
     -0.000161       0.005531       0.000000
     -0.000280       0.005203       0.000000
     -0.000498       0.004763       0.000000
     -0.000433       0.004880       0.000000
     -0.000224       0.005272       0.000000
     -0.000161       0.005531       0.000000
     -0.000224       0.005272       0.000000
     -0.000194       0.005375       0.000000
     -0.000142       0.005574       0.000000
     -0.000224       0.005272       0.000000
     -0.000433       0.004880       0.000000
     -0.000415       0.005065       0.000000
     -0.000194       0.005375       0.000000
      0.000521       0.004977       0.000000
      0.000194       0.005168       0.000000
      0.000287       0.005402       0.000000
      0.000667       0.005294       0.000000
      0.000194       0.005168       0.000000
     -0.000070       0.005374       0.000000
     -0.000032       0.005506       0.000000
      0.000287       0.005402       0.000000
      0.000667       0.005294       0.000000
      0.000287       0.005402       0.000000
      0.000404       0.005672       0.000000
      0.000866       0.005672       0.000000
      0.000287       0.005402       0.000000
     -0.000032       0.005506       0.000000
      0.000018       0.005672       0.000000
      0.000404       0.005672       0.000000
     -0.000070       0.005374       0.000000
     -0.000170       0.005557       0.000000
     -0.000165       0.005608       0.000000
     -0.000032       0.005506       0.000000
     -0.000170       0.005557       0.000000
     -0.000142       0.005574       0.000000
     -0.000131       0.005622       0.000000
     -0.000165       0.005608       0.000000
     -0.000032       0.005506       0.000000
     -0.000165       0.005608       0.000000
     -0.000161       0.005672       0.000000
      0.000018       0.005672       0.000000
     -0.000165       0.005608       0.000000
     -0.000131       0.005622       0.000000
     -0.000128       0.005672       0.000000
     -0.000161       0.005672       0.000000
     -0.000142       0.005574       0.000000
     -0.000194       0.005375       0.000000
     -0.000185       0.005508       0.000000
     -0.000131       0.005622       0.000000
     -0.000194       0.005375       0.000000
     -0.000415       0.005065       0.000000
     -0.000451       0.005329       0.000000
     -0.000185       0.005508       0.000000
     -0.000131       0.005622       0.000000
     -0.000185       0.005508       0.000000
     -0.000199       0.005672       0.000000
     -0.000128       0.005672       0.000000
     -0.000185       0.005508       0.000000
     -0.000451       0.005329       0.000000
     -0.000541       0.005672       0.000000
     -0.000199       0.005672       0.000000
      0.000322       0.000744       0.000000
      0.000490       0.001201       0.000000
      0.000480       0.001569       0.000000
      0.000196       0.001079       0.000000
      0.000490       0.001201       0.000000
      0.000621       0.001857       0.000000
      0.000793       0.002149       0.000000
      0.000480       0.001569       0.000000
      0.000196       0.001079       0.000000
      0.000480       0.001569       0.000000
      0.000547       0.001566       0.000000
      0.000235       0.001028       0.000000
      0.000480       0.001569       0.000000
      0.000793       0.002149       0.000000
      0.000895       0.002179       0.000000
      0.000547       0.001566       0.000000
      0.000621       0.001857       0.000000
      0.000664       0.002757       0.000000
      0.000956       0.002770       0.000000
      0.000793       0.002149       0.000000
      0.000664       0.002757       0.000000
      0.000647       0.003665       0.000000
      0.000826       0.003388       0.000000
      0.000956       0.002770       0.000000
      0.000793       0.002149       0.000000
      0.000956       0.002770       0.000000
      0.001074       0.002779       0.000000
      0.000895       0.002179       0.000000
      0.000956       0.002770       0.000000
      0.000826       0.003388       0.000000
      0.000930       0.003372       0.000000
      0.001074       0.002779       0.000000
      0.000647       0.003665       0.000000
      0.000534       0.004334       0.000000
      0.000530       0.003963       0.000000
      0.000826       0.003388       0.000000
      0.000534       0.004334       0.000000
      0.000370       0.004810       0.000000
      0.000246       0.004460       0.000000
      0.000530       0.003963       0.000000
      0.000826       0.003388       0.000000
      0.000530       0.003963       0.000000
      0.000610       0.003973       0.000000
      0.000930       0.003372       0.000000
      0.000530       0.003963       0.000000
      0.000246       0.004460       0.000000
      0.000312       0.004510       0.000000
      0.000610       0.003973       0.000000
      0.000235       0.001028       0.000000
      0.000547       0.001566       0.000000
      0.000624       0.001458       0.000000
      0.000277       0.000838       0.000000
      0.000547       0.001566       0.000000
      0.000895       0.002179       0.000000
      0.000997       0.002141       0.000000
      0.000624       0.001458       0.000000
      0.000277       0.000838       0.000000
      0.000624       0.001458       0.000000
      0.000695       0.001336       0.000000
      0.000285       0.000594       0.000000
      0.000624       0.001458       0.000000
      0.000997       0.002141       0.000000
      0.001101       0.002099       0.000000
      0.000695       0.001336       0.000000
      0.000895       0.002179       0.000000
      0.001074       0.002779       0.000000
      0.001182       0.002790       0.000000
      0.000997       0.002141       0.000000
      0.001074       0.002779       0.000000
      0.000930       0.003372       0.000000
      0.001035       0.003431       0.000000
      0.001182       0.002790       0.000000
      0.000997       0.002141       0.000000
      0.001182       0.002790       0.000000
      0.001298       0.002803       0.000000
      0.001101       0.002099       0.000000
      0.001182       0.002790       0.000000
      0.001035       0.003431       0.000000
      0.001142       0.003502       0.000000
      0.001298       0.002803       0.000000
      0.000930       0.003372       0.000000
      0.000610       0.003973       0.000000
      0.000705       0.004097       0.000000
      0.001035       0.003431       0.000000
      0.000610       0.003973       0.000000
      0.000312       0.004510       0.000000
      0.000409       0.004709       0.000000
      0.000705       0.004097       0.000000
      0.001035       0.003431       0.000000
      0.000705       0.004097       0.000000
      0.000802       0.004250       0.000000
      0.001142       0.003502       0.000000
      0.000705       0.004097       0.000000
      0.000409       0.004709       0.000000
      0.000521       0.004977       0.000000
      0.000802       0.004250       0.000000
      0.000285       0.000594       0.000000
      0.000695       0.001336       0.000000
      0.000757       0.001244       0.000000
      0.000231       0.000326       0.000000
      0.000695       0.001336       0.000000
      0.001101       0.002099       0.000000
      0.001200       0.002083       0.000000
      0.000757       0.001244       0.000000
      0.000231       0.000326       0.000000
      0.000757       0.001244       0.000000
      0.000811       0.001202       0.000000
      0.000000       0.000000       0.000000
      0.000757       0.001244       0.000000
      0.001200       0.002083       0.000000
      0.001288       0.002115       0.000000
      0.000811       0.001202       0.000000
      0.001101       0.002099       0.000000
      0.001298       0.002803       0.000000
      0.001417       0.002815       0.000000
      0.001200       0.002083       0.000000
      0.001298       0.002803       0.000000
      0.001142       0.003502       0.000000
      0.001248       0.003551       0.000000
      0.001417       0.002815       0.000000
      0.001200       0.002083       0.000000
      0.001417       0.002815       0.000000
      0.001524       0.002826       0.000000
      0.001288       0.002115       0.000000
      0.001417       0.002815       0.000000
      0.001248       0.003551       0.000000
      0.001347       0.003552       0.000000
      0.001524       0.002826       0.000000
      0.001142       0.003502       0.000000
      0.000802       0.004250       0.000000
      0.000901       0.004396       0.000000
      0.001248       0.003551       0.000000
      0.000802       0.004250       0.000000
      0.000521       0.004977       0.000000
      0.000667       0.005294       0.000000
      0.000901       0.004396       0.000000
      0.001248       0.003551       0.000000
      0.000901       0.004396       0.000000
      0.001013       0.004525       0.000000
      0.001347       0.003552       0.000000
      0.000901       0.004396       0.000000
      0.000667       0.005294       0.000000
      0.000866       0.005672       0.000000
      0.001013       0.004525       0.000000
     -0.000860       0.000697       0.000000
     -0.000592       0.000377       0.000000
     -0.000317       0.000445       0.000000
     -0.000547       0.000895       0.000000
     -0.000592       0.000377       0.000000
     -0.000360       0.000186       0.000000
     -0.000200       0.000159       0.000000
     -0.000317       0.000445       0.000000
     -0.000547       0.000895       0.000000
     -0.000317       0.000445       0.000000
     -0.000187       0.000429       0.000000
     -0.000403       0.000872       0.000000
     -0.000317       0.000445       0.000000
     -0.000200       0.000159       0.000000
     -0.000120       0.000143       0.000000
     -0.000187       0.000429       0.000000
     -0.000360       0.000186       0.000000
     -0.000171       0.000133       0.000000
     -0.000152       0.000115       0.000000
     -0.000200       0.000159       0.000000
     -0.000171       0.000133       0.000000
     -0.000008       0.000212       0.000000
     -0.000109       0.000306       0.000000
     -0.000152       0.000115       0.000000
     -0.000200       0.000159       0.000000
     -0.000152       0.000115       0.000000
     -0.000141       0.000124       0.000000
     -0.000120       0.000143       0.000000
     -0.000152       0.000115       0.000000
     -0.000109       0.000306       0.000000
     -0.000123       0.000346       0.000000
     -0.000141       0.000124       0.000000
     -0.000008       0.000212       0.000000
      0.000155       0.000420       0.000000
      0.000002       0.000663       0.000000
     -0.000109       0.000306       0.000000
      0.000155       0.000420       0.000000
      0.000322       0.000744       0.000000
      0.000196       0.001079       0.000000
      0.000002       0.000663       0.000000
     -0.000109       0.000306       0.000000
      0.000002       0.000663       0.000000
      0.000009       0.000682       0.000000
     -0.000123       0.000346       0.000000
      0.000002       0.000663       0.000000
      0.000196       0.001079       0.000000
      0.000235       0.001028       0.000000
      0.000009       0.000682       0.000000
     -0.000403       0.000872       0.000000
     -0.000187       0.000429       0.000000
     -0.000100       0.000365       0.000000
     -0.000305       0.000761       0.000000
     -0.000187       0.000429       0.000000
     -0.000120       0.000143       0.000000
     -0.000066       0.000119       0.000000
     -0.000100       0.000365       0.000000
     -0.000305       0.000761       0.000000
     -0.000100       0.000365       0.000000
     -0.000038       0.000266       0.000000
     -0.000240       0.000581       0.000000
     -0.000100       0.000365       0.000000
     -0.000066       0.000119       0.000000
     -0.000027       0.000088       0.000000
     -0.000038       0.000266       0.000000
     -0.000120       0.000143       0.000000
     -0.000141       0.000124       0.000000
     -0.000122       0.000118       0.000000
     -0.000066       0.000119       0.000000
     -0.000141       0.000124       0.000000
     -0.000123       0.000346       0.000000
     -0.000109       0.000316       0.000000
     -0.000122       0.000118       0.000000
     -0.000066       0.000119       0.000000
     -0.000122       0.000118       0.000000
     -0.000097       0.000094       0.000000
     -0.000027       0.000088       0.000000
     -0.000122       0.000118       0.000000
     -0.000109       0.000316       0.000000
     -0.000083       0.000237       0.000000
     -0.000097       0.000094       0.000000
     -0.000123       0.000346       0.000000
      0.000009       0.000682       0.000000
      0.000036       0.000576       0.000000
     -0.000109       0.000316       0.000000
      0.000009       0.000682       0.000000
      0.000235       0.001028       0.000000
      0.000277       0.000838       0.000000
      0.000036       0.000576       0.000000
     -0.000109       0.000316       0.000000
      0.000036       0.000576       0.000000
      0.000054       0.000404       0.000000
     -0.000083       0.000237       0.000000
      0.000036       0.000576       0.000000
      0.000277       0.000838       0.000000
      0.000285       0.000594       0.000000
      0.000054       0.000404       0.000000
     -0.000240       0.000581       0.000000
     -0.000038       0.000266       0.000000
     -0.000002       0.000141       0.000000
     -0.000184       0.000327       0.000000
     -0.000038       0.000266       0.000000
     -0.000027       0.000088       0.000000
     -0.000004       0.000049       0.000000
     -0.000002       0.000141       0.000000
     -0.000184       0.000327       0.000000
     -0.000002       0.000141       0.000000
      0.000000       0.000000       0.000000
      0.000000       0.000000       0.000000
     -0.000002       0.000141       0.000000
     -0.000004       0.000049       0.000000
      0.000000       0.000000       0.000000
      0.000000       0.000000       0.000000
     -0.000027       0.000088       0.000000
     -0.000097       0.000094       0.000000
     -0.000059       0.000055       0.000000
     -0.000004       0.000049       0.000000
     -0.000097       0.000094       0.000000
     -0.000083       0.000237       0.000000
     -0.000046       0.000125       0.000000
     -0.000059       0.000055       0.000000
     -0.000004       0.000049       0.000000
     -0.000059       0.000055       0.000000
      0.000000       0.000000       0.000000
      0.000000       0.000000       0.000000
     -0.000059       0.000055       0.000000
     -0.000046       0.000125       0.000000
      0.000000       0.000000       0.000000
      0.000000       0.000000       0.000000
     -0.000083       0.000237       0.000000
      0.000054       0.000404       0.000000
      0.000047       0.000204       0.000000
     -0.000046       0.000125       0.000000
      0.000054       0.000404       0.000000
      0.000285       0.000594       0.000000
      0.000231       0.000326       0.000000
      0.000047       0.000204       0.000000
     -0.000046       0.000125       0.000000
      0.000047       0.000204       0.000000
      0.000000       0.000000       0.000000
      0.000000       0.000000       0.000000
      0.000047       0.000204       0.000000
      0.000231       0.000326       0.000000
      0.000000       0.000000       0.000000
      0.000000       0.000000       0.000000
     -0.000860       0.000697       0.000000
     -0.001152       0.001164       0.000000
     -0.000952       0.001385       0.000000
     -0.000547       0.000895       0.000000
     -0.001152       0.001164       0.000000
     -0.001407       0.001843       0.000000
     -0.001445       0.002011       0.000000
     -0.000952       0.001385       0.000000
     -0.000547       0.000895       0.000000
     -0.000952       0.001385       0.000000
     -0.000832       0.001407       0.000000