# vtk DataFile Version 2.0
time_10.vtk
ASCII
DATASET UNSTRUCTURED_GRID
POINTS  1680 float
      0.458579       0.641421       0.000000
      0.497369       0.671659       0.000000
      0.438243       0.730363       0.000000
      0.382149       0.701184       0.000000
      0.497369       0.671659       0.000000
      0.545805       0.692517       0.000000
      0.506084       0.750000       0.000000
      0.438243       0.730363       0.000000
      0.382149       0.701184       0.000000
      0.438243       0.730363       0.000000
      0.380813       0.787383       0.000000
      0.305719       0.760948       0.000000
      0.438243       0.730363       0.000000
      0.506084       0.750000       0.000000
      0.468251       0.804752       0.000000
      0.380813       0.787383       0.000000
      0.545805       0.692517       0.000000
      0.600000       0.700000       0.000000
      0.581017       0.756950       0.000000
      0.506084       0.750000       0.000000
      0.600000       0.700000       0.000000
      0.654195       0.692517       0.000000
      0.656527       0.750000       0.000000
      0.581017       0.756950       0.000000
      0.506084       0.750000       0.000000
      0.581017       0.756950       0.000000
      0.563060       0.810819       0.000000
      0.468251       0.804752       0.000000
      0.581017       0.756950       0.000000
      0.656527       0.750000       0.000000
      0.658747       0.804752       0.000000
      0.563060       0.810819       0.000000
      0.654195       0.692517       0.000000
      0.702631       0.671659       0.000000
      0.725999       0.730363       0.000000
      0.656527       0.750000       0.000000
      0.702631       0.671659       0.000000
      0.741421       0.641421       0.000000
      0.784518       0.701184       0.000000
      0.725999       0.730363       0.000000
      0.656527       0.750000       0.000000
      0.725999       0.730363       0.000000
      0.748697       0.787383       0.000000
      0.658747       0.804752       0.000000
      0.725999       0.730363       0.000000
      0.784518       0.701184       0.000000
      0.827614       0.760948       0.000000
      0.748697       0.787383       0.000000
      0.305719       0.760948       0.000000
      0.380813       0.787383       0.000000
      0.325006       0.842791       0.000000
      0.229289       0.820711       0.000000
      0.380813       0.787383       0.000000
      0.468251       0.804752       0.000000
      0.432173       0.856962       0.000000
      0.325006       0.842791       0.000000
      0.229289       0.820711       0.000000
      0.325006       0.842791       0.000000
      0.270755       0.896655       0.000000
      0.152860       0.880474       0.000000
      0.325006       0.842791       0.000000
      0.432173       0.856962       0.000000
      0.397732       0.906804       0.000000
      0.270755       0.896655       0.000000
      0.468251       0.804752       0.000000
      0.563060       0.810819       0.000000
      0.546050       0.861851       0.000000
      0.432173       0.856962       0.000000
      0.563060       0.810819       0.000000
      0.658747       0.804752       0.000000
      0.660865       0.856962       0.000000
      0.546050       0.861851       0.000000
      0.432173       0.856962       0.000000
      0.546050       0.861851       0.000000
      0.529912       0.910264       0.000000
      0.397732       0.906804       0.000000
      0.546050       0.861851       0.000000
      0.660865       0.856962       0.000000
      0.662887       0.906804       0.000000
      0.529912       0.910264       0.000000
      0.658747       0.804752       0.000000
      0.748697       0.787383       0.000000
      0.770753       0.842791       0.000000
      0.660865       0.856962       0.000000
      0.748697       0.787383       0.000000
      0.827614       0.760948       0.000000
      0.870711       0.820711       0.000000
      0.770753       0.842791       0.000000
      0.660865       0.856962       0.000000
      0.770753       0.842791       0.000000
      0.792195       0.896655       0.000000
      0.662887       0.906804       0.000000
      0.770753       0.842791       0.000000
      0.870711       0.820711       0.000000
      0.913807       0.880474       0.000000
      0.792195       0.896655       0.000000
      0.152860       0.880474       0.000000
      0.270755       0.896655       0.000000
      0.217995       0.949038       0.000000
      0.076430       0.940237       0.000000
      0.270755       0.896655       0.000000
      0.397732       0.906804       0.000000
      0.364819       0.954435       0.000000
      0.217995       0.949038       0.000000
      0.076430       0.940237       0.000000
      0.217995       0.949038       0.000000
      0.166667       1.000000       0.000000
      0.000000       1.000000       0.000000
      0.217995       0.949038       0.000000
      0.364819       0.954435       0.000000
      0.333333       1.000000       0.000000
      0.166667       1.000000       0.000000
      0.397732       0.906804       0.000000
      0.529912       0.910264       0.000000
      0.514582       0.956255       0.000000
      0.364819       0.954435       0.000000
      0.529912       0.910264       0.000000
      0.662887       0.906804       0.000000
      0.664819       0.954435       0.000000
      0.514582       0.956255       0.000000
      0.364819       0.954435       0.000000
      0.514582       0.956255       0.000000
      0.500000       1.000000       0.000000
      0.333333       1.000000       0.000000
      0.514582       0.956255       0.000000
      0.664819       0.954435       0.000000
      0.666667       1.000000       0.000000
      0.500000       1.000000       0.000000
      0.662887       0.906804       0.000000
      0.792195       0.896655       0.000000
      0.813047       0.949038       0.000000
      0.664819       0.954435       0.000000
      0.792195       0.896655       0.000000
      0.913807       0.880474       0.000000
      0.956904       0.940237       0.000000
      0.813047       0.949038       0.000000
      0.664819       0.954435       0.000000
      0.813047       0.949038       0.000000
      0.833333       1.000000       0.000000
      0.666667       1.000000       0.000000
      0.813047       0.949038       0.000000
      0.956904       0.940237       0.000000
      1.000000       1.000000       0.000000
      0.833333       1.000000       0.000000
      0.458579       0.358579       0.000000
      0.428341       0.397369       0.000000
      0.351758       0.356122       0.000000
      0.382149       0.298816       0.000000
      0.382149       0.298816       0.000000
      0.351758       0.356122       0.000000
      0.277372       0.316058       0.000000
      0.305719       0.239052       0.000000
      0.351758       0.356122       0.000000
      0.331305       0.424779       0.000000
      0.258747       0.404752       0.000000
      0.277372       0.316058       0.000000
      0.331305       0.424779       0.000000
      0.324066       0.500000       0.000000
      0.252241       0.500000       0.000000
      0.258747       0.404752       0.000000
      0.324066       0.500000       0.000000
      0.331305       0.575221       0.000000
      0.258747       0.595248       0.000000
      0.252241       0.500000       0.000000
      0.428341       0.602631       0.000000
      0.458579       0.641421       0.000000
      0.382149       0.701184       0.000000
      0.351758       0.643878       0.000000
      0.331305       0.575221       0.000000
      0.351758       0.643878       0.000000
      0.277372       0.683942       0.000000
      0.258747       0.595248       0.000000
      0.351758       0.643878       0.000000
      0.382149       0.701184       0.000000
      0.305719       0.760948       0.000000
      0.277372       0.683942       0.000000
      0.305719       0.239052       0.000000
      0.277372       0.316058       0.000000
      0.205089       0.277126       0.000000
      0.229289       0.179289       0.000000
      0.277372       0.316058       0.000000
      0.258747       0.404752       0.000000
      0.189557       0.385654       0.000000
      0.205089       0.277126       0.000000
      0.229289       0.179289       0.000000
      0.205089       0.277126       0.000000
      0.134820       0.239280       0.000000
      0.152860       0.119526       0.000000
      0.205089       0.277126       0.000000
      0.189557       0.385654       0.000000
      0.123505       0.367423       0.000000
      0.134820       0.239280       0.000000
      0.258747       0.404752       0.000000
      0.252241       0.500000       0.000000
      0.184198       0.500000       0.000000
      0.189557       0.385654       0.000000
      0.252241       0.500000       0.000000
      0.258747       0.595248       0.000000
      0.189557       0.614346       0.000000
      0.184198       0.500000       0.000000
      0.189557       0.385654       0.000000
      0.184198       0.500000       0.000000
      0.119648       0.500000       0.000000
      0.123505       0.367423       0.000000
      0.184198       0.500000       0.000000
      0.189557       0.614346       0.000000
      0.123505       0.632577       0.000000
      0.119648       0.500000       0.000000
      0.258747       0.595248       0.000000
      0.277372       0.683942       0.000000
      0.205089       0.722874       0.000000
      0.189557       0.614346       0.000000
      0.277372       0.683942       0.000000
      0.305719       0.760948       0.000000
      0.229289       0.820711       0.000000
      0.205089       0.722874       0.000000
      0.189557       0.614346       0.000000
      0.205089       0.722874       0.000000
      0.134820       0.760720       0.000000
      0.123505       0.632577       0.000000
[...]
POINT_DATA  1680
VECTORS U float 
      0.000451       0.005782       0.000000
      0.000239       0.006174       0.000000
      0.000038       0.005865       0.000000
      0.000283       0.005358       0.000000
      0.000239       0.006174       0.000000
      0.000026       0.006447       0.000000
     -0.000123       0.006317       0.000000
      0.000038       0.005865       0.000000
      0.000283       0.005358       0.000000
      0.000038       0.005865       0.000000
      0.000045       0.005819       0.000000
      0.000340       0.005381       0.000000
      0.000038       0.005865       0.000000
     -0.000123       0.006317       0.000000
     -0.000156       0.006256       0.000000
      0.000045       0.005819       0.000000
      0.000026       0.006447       0.000000
     -0.000187       0.006586       0.000000
     -0.000208       0.006596       0.000000
     -0.000123       0.006317       0.000000
     -0.000187       0.006586       0.000000
     -0.000420       0.006596       0.000000
     -0.000287       0.006631       0.000000
     -0.000208       0.006596       0.000000
     -0.000123       0.006317       0.000000
     -0.000208       0.006596       0.000000
     -0.000223       0.006577       0.000000
     -0.000156       0.006256       0.000000
     -0.000208       0.006596       0.000000
     -0.000287       0.006631       0.000000
     -0.000224       0.006635       0.000000
     -0.000223       0.006577       0.000000
     -0.000420       0.006596       0.000000
     -0.000696       0.006489       0.000000
     -0.000417       0.006426       0.000000
     -0.000287       0.006631       0.000000
     -0.000696       0.006489       0.000000
     -0.001025       0.006285       0.000000
     -0.000638       0.006045       0.000000
     -0.000417       0.006426       0.000000
     -0.000287       0.006631       0.000000
     -0.000417       0.006426       0.000000
     -0.000276       0.006399       0.000000
     -0.000224       0.006635       0.000000
     -0.000417       0.006426       0.000000
     -0.000638       0.006045       0.000000
     -0.000447       0.005955       0.000000
     -0.000276       0.006399       0.000000
      0.000340       0.005381       0.000000
      0.000045       0.005819       0.000000
      0.000100       0.005926       0.000000
      0.000438       0.005587       0.000000
      0.000045       0.005819       0.000000
     -0.000156       0.006256       0.000000
     -0.000148       0.006283       0.000000
      0.000100       0.005926       0.000000
      0.000438       0.005587       0.000000
      0.000100       0.005926       0.000000
      0.000176       0.006125       0.000000
      0.000558       0.005884       0.000000
      0.000100       0.005926       0.000000
     -0.000148       0.006283       0.000000
     -0.000124       0.006374       0.000000
      0.000176       0.006125       0.000000
     -0.000156       0.006256       0.000000
     -0.000223       0.006577       0.000000
     -0.000227       0.006576       0.000000
     -0.000148       0.006283       0.000000
     -0.000223       0.006577       0.000000
     -0.000224       0.006635       0.000000
     -0.000188       0.006642       0.000000
     -0.000227       0.006576       0.000000
     -0.000148       0.006283       0.000000
     -0.000227       0.006576       0.000000
     -0.000228       0.006599       0.000000
     -0.000124       0.006374       0.000000
     -0.000227       0.006576       0.000000
     -0.000188       0.006642       0.000000
     -0.000165       0.006657       0.000000
     -0.000228       0.006599       0.000000
     -0.000224       0.006635       0.000000
     -0.000276       0.006399       0.000000
     -0.000196       0.006413       0.000000
     -0.000188       0.006642       0.000000
     -0.000276       0.006399       0.000000
     -0.000447       0.005955       0.000000
     -0.000350       0.005979       0.000000
     -0.000196       0.006413       0.000000
     -0.000188       0.006642       0.000000
     -0.000196       0.006413       0.000000
     -0.000152       0.006470       0.000000
     -0.000165       0.006657       0.000000
     -0.000196       0.006413       0.000000
     -0.000350       0.005979       0.000000
     -0.000326       0.006117       0.000000
     -0.000152       0.006470       0.000000
      0.000558       0.005884       0.000000
      0.000176       0.006125       0.000000
      0.000276       0.006389       0.000000
      0.000723       0.006249       0.000000
      0.000176       0.006125       0.000000
     -0.000124       0.006374       0.000000
     -0.000086       0.006517       0.000000
      0.000276       0.006389       0.000000
      0.000723       0.006249       0.000000
      0.000276       0.006389       0.000000
      0.000410       0.006702       0.000000
      0.000961       0.006702       0.000000
      0.000276       0.006389       0.000000
     -0.000086       0.006517       0.000000
     -0.000032       0.006702       0.000000
      0.000410       0.006702       0.000000
     -0.000124       0.006374       0.000000
     -0.000228       0.006599       0.000000
     -0.000227       0.006642       0.000000
     -0.000086       0.006517       0.000000
     -0.000228       0.006599       0.000000
     -0.000165       0.006657       0.000000
     -0.000153       0.006678       0.000000
     -0.000227       0.006642       0.000000
     -0.000086       0.006517       0.000000
     -0.000227       0.006642       0.000000
     -0.000226       0.006702       0.000000
     -0.000032       0.006702       0.000000
     -0.000227       0.006642       0.000000
     -0.000153       0.006678       0.000000
     -0.000148       0.006702       0.000000
     -0.000226       0.006702       0.000000
     -0.000165       0.006657       0.000000
     -0.000152       0.006470       0.000000
     -0.000135       0.006566       0.000000
     -0.000153       0.006678       0.000000
     -0.000152       0.006470       0.000000
     -0.000326       0.006117       0.000000
     -0.000365       0.006364       0.000000
     -0.000135       0.006566       0.000000
     -0.000153       0.006678       0.000000
     -0.000135       0.006566       0.000000
     -0.000141       0.006702       0.000000
     -0.000148       0.006702       0.000000
     -0.000135       0.006566       0.000000
     -0.000365       0.006364       0.000000
     -0.000455       0.006702       0.000000
     -0.000141       0.006702       0.000000
      0.000398       0.000800       0.000000
      0.000606       0.001304       0.000000
      0.000572       0.001767       0.000000
      0.000235       0.001201       0.000000
      0.000235       0.001201       0.000000
      0.000572       0.001767       0.000000
      0.000648       0.001804       0.000000
      0.000269       0.001168       0.000000
      0.000572       0.001767       0.000000
      0.000966       0.002465       0.000000
      0.001090       0.002552       0.000000
      0.000648       0.001804       0.000000
      0.000966       0.002465       0.000000
      0.001205       0.003277       0.000000
      0.001334       0.003286       0.000000
      0.001090       0.002552       0.000000
      0.001205       0.003277       0.000000
      0.001002       0.004085       0.000000
      0.001126       0.004010       0.000000
      0.001334       0.003286       0.000000
      0.000655       0.005255       0.000000
      0.000451       0.005782       0.000000
      0.000283       0.005358       0.000000
      0.000625       0.004781       0.000000
      0.001002       0.004085       0.000000
      0.000625       0.004781       0.000000
      0.000708       0.004744       0.000000
      0.001126       0.004010       0.000000
      0.000625       0.004781       0.000000
      0.000283       0.005358       0.000000
      0.000340       0.005381       0.000000
      0.000708       0.004744       0.000000
      0.000269       0.001168       0.000000
      0.000648       0.001804       0.000000
      0.000738       0.001700       0.000000
      0.000314       0.000963       0.000000
      0.000648       0.001804       0.000000
      0.001090       0.002552       0.000000
      0.001211       0.002524       0.000000
      0.000738       0.001700       0.000000
      0.000314       0.000963       0.000000
      0.000738       0.001700       0.000000
      0.000819       0.001572       0.000000
      0.000323       0.000690       0.000000
      0.000738       0.001700       0.000000
      0.001211       0.002524       0.000000
      0.001331       0.002482       0.000000
      0.000819       0.001572       0.000000
      0.001090       0.002552       0.000000
      0.001334       0.003286       0.000000
      0.001453       0.003295       0.000000
      0.001211       0.002524       0.000000
      0.001334       0.003286       0.000000
      0.001126       0.004010       0.000000
      0.001247       0.004058       0.000000
      0.001453       0.003295       0.000000
      0.001211       0.002524       0.000000
      0.001453       0.003295       0.000000
      0.001584       0.003307       0.000000
      0.001331       0.002482       0.000000
      0.001453       0.003295       0.000000
      0.001247       0.004058       0.000000
      0.001370       0.004127       0.000000
      0.001584       0.003307       0.000000
      0.001126       0.004010       0.000000
      0.000708       0.004744       0.000000
      0.000814       0.004860       0.000000
      0.001247       0.004058       0.000000
      0.000708       0.004744       0.000000
      0.000340       0.005381       0.000000
      0.000438       0.005587       0.000000
      0.000814       0.004860       0.000000
      0.001247       0.004058       0.000000
      0.000814       0.004860       0.000000
      0.000920       0.005019       0.000000
      0.001370       0.004127       0.000000
      0.000814       0.004860       0.000000
      0.000438       0.005587       0.000000
      0.000558       0.005884       0.000000
      0.000920       0.005019       0.000000
      0.000323       0.000690       0.000000
      0.000819       0.001572       0.000000
      0.000889       0.001476       0.000000
      0.000262       0.000381       0.000000
      0.000819       0.001572       0.000000
      0.001331       0.002482       0.000000
      0.001444       0.002471       0.000000
      0.000889       0.001476       0.000000
      0.000262       0.000381       0.000000
      0.000889       0.001476       0.000000
      0.000951       0.001433       0.000000
      0.000000       0.000000       0.000000
      0.000889       0.001476       0.000000
      0.001444       0.002471       0.000000
      0.001543       0.002518       0.000000
      0.000951       0.001433       0.000000
      0.001331       0.002482       0.000000
      0.001584       0.003307       0.000000
      0.001718       0.003319       0.000000
      0.001444       0.002471       0.000000
      0.001584       0.003307       0.000000
      0.001370       0.004127       0.000000
      0.001488       0.004171       0.000000
      0.001718       0.003319       0.000000
      0.001444       0.002471       0.000000
      0.001718       0.003319       0.000000
      0.001840       0.003328       0.000000
      0.001543       0.002518       0.000000
      0.001718       0.003319       0.000000
      0.001488       0.004171       0.000000
      0.001598       0.004154       0.000000
      0.001840       0.003328       0.000000
      0.001370       0.004127       0.000000
      0.000920       0.005019       0.000000
      0.001028       0.005173       0.000000
      0.001488       0.004171       0.000000
      0.000920       0.005019       0.000000
      0.000558       0.005884       0.000000
      0.000723       0.006249       0.000000
      0.001028       0.005173       0.000000
      0.001488       0.004171       0.000000
      0.001028       0.005173       0.000000
      0.001154       0.005312       0.000000
      0.001598       0.004154       0.000000
      0.001028       0.005173       0.000000
      0.000723       0.006249       0.000000
      0.000961       0.006702       0.000000
      0.001154       0.005312       0.000000
      0.001083       0.003269       0.000000
      0.001040       0.003803       0.000000
      0.001150       0.003692       0.000000
      0.001205       0.003277       0.000000
      0.001040       0.003803       0.000000
      0.000927       0.004243       0.000000
      0.001002       0.004085       0.000000
      0.001150       0.003692       0.000000
      0.000892       0.002304       0.000000
      0.001020       0.002739       0.000000
      0.001129       0.002861       0.000000
      0.000966       0.002465       0.000000
      0.001020       0.002739       0.000000
      0.001083       0.003269       0.000000
      0.001205       0.003277       0.000000
      0.001129       0.002861       0.000000
      0.000967       0.003264       0.000000
      0.000965       0.003598       0.000000
      0.001074       0.003545       0.000000
      0.001083       0.003269       0.000000
      0.000965       0.003598       0.000000
      0.000950       0.003895       0.000000
      0.001040       0.003803       0.000000
      0.001074       0.003545       0.000000
      0.000931       0.002641       0.000000
      0.000955       0.002933       0.000000
      0.001063       0.002995       0.000000
      0.001020       0.002739       0.000000
      0.000955       0.002933       0.000000
      0.000967       0.003264       0.000000
      0.001083       0.003269       0.000000
      0.001063       0.002995       0.000000
      0.000773       0.003259       0.000000
      0.000777       0.003456       0.000000
      0.000884       0.003447       0.000000
      0.000882       0.003261       0.000000
      0.000777       0.003456       0.000000
      0.000787       0.003646       0.000000
      0.000887       0.003626       0.000000
      0.000884       0.003447       0.000000
      0.000882       0.003261       0.000000
      0.000884       0.003447       0.000000
      0.000967       0.003434       0.000000
      0.000967       0.003264       0.000000
      0.000884       0.003447       0.000000
      0.000887       0.003626       0.000000
      0.000965       0.003598       0.000000
      0.000967       0.003434       0.000000
      0.000781       0.002875       0.000000
      0.000775       0.003063       0.000000
      0.000880       0.003076       0.000000
      0.000879       0.002900       0.000000
      0.000775       0.003063       0.000000
      0.000773       0.003259       0.000000
      0.000882       0.003261       0.000000
      0.000880       0.003076       0.000000
      0.000879       0.002900       0.000000
      0.000880       0.003076       0.000000
      0.000963       0.003095       0.000000
      0.000955       0.002933       0.000000
      0.000880       0.003076       0.000000
      0.000882       0.003261       0.000000
      0.000967       0.003264       0.000000
      0.000963       0.003095       0.000000
      0.000804       0.004512       0.000000
      0.000744       0.004917       0.000000
      0.000779       0.004608       0.000000
      0.000927       0.004243       0.000000
      0.000744       0.004917       0.000000
      0.000655       0.005255       0.000000
      0.000616       0.004929       0.000000
      0.000779       0.004608       0.000000
      0.000927       0.004243       0.000000
      0.000779       0.004608       0.000000
      0.000818       0.004448       0.000000
      0.001002       0.004085       0.000000
      0.000779       0.004608       0.000000
      0.000616       0.004929       0.000000
      0.000625       0.004781       0.000000
      0.000818       0.004448       0.000000
      0.000807       0.003986       0.000000
      0.000814       0.004269       0.000000
      0.000920       0.004148       0.000000
      0.000950       0.003895       0.000000
      0.000814       0.004269       0.000000
      0.000804       0.004512       0.000000
      0.000879       0.004366       0.000000
      0.000920       0.004148       0.000000
      0.000950       0.003895       0.000000
      0.000920       0.004148       0.000000
      0.000990       0.004035       0.000000
      0.001040       0.003803       0.000000
      0.000920       0.004148       0.000000
      0.000879       0.004366       0.000000
      0.000927       0.004243       0.000000
      0.000990       0.004035       0.000000
      0.000787       0.003646       0.000000
      0.000798       0.003823       0.000000
      0.000888       0.003793       0.000000
      0.000887       0.003626       0.000000
      0.000798       0.003823       0.000000
      0.000807       0.003986       0.000000
      0.000887       0.003945       0.000000
      0.000888       0.003793       0.000000
      0.000887       0.003626       0.000000
      0.000888       0.003793       0.000000
      0.000959       0.003753       0.000000
      0.000965       0.003598       0.000000
      0.000888       0.003793       0.000000
      0.000887       0.003945       0.000000
      0.000950       0.003895       0.000000
      0.000959       0.003753       0.000000
      0.000606       0.001304       0.000000
      0.000703       0.001632       0.000000
      0.000733       0.001942       0.000000
      0.000565       0.001624       0.000000
      0.000703       0.001632       0.000000
      0.000774       0.002030       0.000000
      0.000892       0.002304       0.000000
      0.000733       0.001942       0.000000
      0.000565       0.001624       0.000000
      0.000733       0.001942       0.000000
      0.000770       0.002101       0.000000
      0.000572       0.001767       0.000000
      0.000733       0.001942       0.000000
      0.000892       0.002304       0.000000
      0.000966       0.002465       0.000000
      0.000770       0.002101       0.000000
      0.000774       0.002030       0.000000
      0.000792       0.002266       0.000000
      0.000894       0.002394       0.000000
      0.000845       0.002179       0.000000
      0.000792       0.002266       0.000000
      0.000794       0.002543       0.000000
      0.000931       0.002641       0.000000
      0.000894       0.002394       0.000000
      0.000845       0.002179       0.000000
      0.000894       0.002394       0.000000
      0.000961       0.002510       0.000000
      0.000892       0.002304       0.000000
      0.000894       0.002394       0.000000
      0.000931       0.002641       0.000000
      0.001020       0.002739       0.000000
      0.000961       0.002510       0.000000
      0.000794       0.002543       0.000000
      0.000789       0.002702       0.000000
      0.000876       0.002737       0.000000
      0.000871       0.002588       0.000000
      0.000789       0.002702       0.000000
      0.000781       0.002875       0.000000
      0.000879       0.002900       0.000000
      0.000876       0.002737       0.000000
      0.000871       0.002588       0.000000
      0.000876       0.002737       0.000000
      0.000945       0.002781       0.000000
      0.000931       0.002641       0.000000
      0.000876       0.002737       0.000000
      0.000879       0.002900       0.000000
      0.000955       0.002933       0.000000
      0.000945       0.002781       0.000000
     -0.000966       0.000384       0.000000
     -0.000634       0.000183       0.000000
     -0.000347       0.000250       0.000000
     -0.000566       0.000631       0.000000
     -0.000634       0.000183       0.000000
     -0.000370       0.000076       0.000000
     -0.000230       0.000050       0.000000
     -0.000347       0.000250       0.000000
     -0.000566       0.000631       0.000000
     -0.000347       0.000250       0.000000
     -0.000185       0.000284       0.000000