# vtk DataFile Version 2.0
time_10.vtk
ASCII
DATASET UNSTRUCTURED_GRID
POINTS   576 float
      0.458579       0.641421       0.000000
      0.497369       0.671659       0.000000
      0.438243       0.730363       0.000000
      0.382149       0.701184       0.000000
      0.497369       0.671659       0.000000
      0.545805       0.692517       0.000000
      0.506084       0.750000       0.000000
      0.438243       0.730363       0.000000
      0.382149       0.701184       0.000000
      0.438243       0.730363       0.000000
      0.380813       0.787383       0.000000
      0.305719       0.760948       0.000000
      0.438243       0.730363       0.000000
      0.506084       0.750000       0.000000
      0.468251       0.804752       0.000000
      0.380813       0.787383       0.000000
      0.545805       0.692517       0.000000
      0.600000       0.700000       0.000000
      0.581017       0.756950       0.000000
      0.506084       0.750000       0.000000
      0.600000       0.700000       0.000000
      0.654195       0.692517       0.000000
      0.656527       0.750000       0.000000
      0.581017       0.756950       0.000000
      0.506084       0.750000       0.000000
      0.581017       0.756950       0.000000
      0.563060       0.810819       0.000000
      0.468251       0.804752       0.000000
      0.581017       0.756950       0.000000
      0.656527       0.750000       0.000000
      0.658747       0.804752       0.000000
      0.563060       0.810819       0.000000
      0.654195       0.692517       0.000000
      0.702631       0.671659       0.000000
      0.725999       0.730363       0.000000
      0.656527       0.750000       0.000000
      0.702631       0.671659       0.000000
      0.741421       0.641421       0.000000
      0.784518       0.701184       0.000000
      0.725999       0.730363       0.000000
      0.656527       0.750000       0.000000
      0.725999       0.730363       0.000000
      0.748697       0.787383       0.000000
      0.658747       0.804752       0.000000
      0.725999       0.730363       0.000000
      0.784518       0.701184       0.000000
      0.827614       0.760948       0.000000
      0.748697       0.787383       0.000000
      0.305719       0.760948       0.000000
      0.380813       0.787383       0.000000
      0.325006       0.842791       0.000000
      0.229289       0.820711       0.000000
      0.380813       0.787383       0.000000
      0.468251       0.804752       0.000000
      0.432173       0.856962       0.000000
      0.325006       0.842791       0.000000
      0.229289       0.820711       0.000000
      0.325006       0.842791       0.000000
      0.270755       0.896655       0.000000
      0.152860       0.880474       0.000000
      0.325006       0.842791       0.000000
      0.432173       0.856962       0.000000
      0.397732       0.906804       0.000000
      0.270755       0.896655       0.000000
      0.468251       0.804752       0.000000
      0.563060       0.810819       0.000000
      0.546050       0.861851       0.000000
      0.432173       0.856962       0.000000
      0.563060       0.810819       0.000000
      0.658747       0.804752       0.000000
      0.660865       0.856962       0.000000
      0.546050       0.861851       0.000000
      0.432173       0.856962       0.000000
      0.546050       0.861851       0.000000
      0.529912       0.910264       0.000000
      0.397732       0.906804       0.000000
      0.546050       0.861851       0.000000
      0.660865       0.856962       0.000000
      0.662887       0.906804       0.000000
      0.529912       0.910264       0.000000
      0.658747       0.804752       0.000000
      0.748697       0.787383       0.000000
      0.770753       0.842791       0.000000
      0.660865       0.856962       0.000000
      0.748697       0.787383       0.000000
      0.827614       0.760948       0.000000
      0.870711       0.820711       0.000000
      0.770753       0.842791       0.000000
      0.660865       0.856962       0.000000
      0.770753       0.842791       0.000000
      0.792195       0.896655       0.000000
      0.662887       0.906804       0.000000
      0.770753       0.842791       0.000000
      0.870711       0.820711       0.000000
      0.913807       0.880474       0.000000
      0.792195       0.896655       0.000000
      0.152860       0.880474       0.000000
      0.270755       0.896655       0.000000
      0.217995       0.949038       0.000000
      0.076430       0.940237       0.000000
      0.270755       0.896655       0.000000
      0.397732       0.906804       0.000000
      0.364819       0.954435       0.000000
      0.217995       0.949038       0.000000
      0.076430       0.940237       0.000000
      0.217995       0.949038       0.000000
      0.166667       1.000000       0.000000
      0.000000       1.000000       0.000000
      0.217995       0.949038       0.000000
      0.364819       0.954435       0.000000
      0.333333       1.000000       0.000000
      0.166667       1.000000       0.000000
      0.397732       0.906804       0.000000
      0.529912       0.910264       0.000000
      0.514582       0.956255       0.000000
      0.364819       0.954435       0.000000
      0.529912       0.910264       0.000000
      0.662887       0.906804       0.000000
      0.664819       0.954435       0.000000
      0.514582       0.956255       0.000000
      0.364819       0.954435       0.000000
      0.514582       0.956255       0.000000
      0.500000       1.000000       0.000000
      0.333333       1.000000       0.000000
      0.514582       0.956255       0.000000
      0.664819       0.954435       0.000000
      0.666667       1.000000       0.000000
      0.500000       1.000000       0.000000
      0.662887       0.906804       0.000000
      0.792195       0.896655       0.000000
      0.813047       0.949038       0.000000
      0.664819       0.954435       0.000000
      0.792195       0.896655       0.000000
      0.913807       0.880474       0.000000
      0.956904       0.940237       0.000000
      0.813047       0.949038       0.000000
      0.664819       0.954435       0.000000
      0.813047       0.949038       0.000000
      0.833333       1.000000       0.000000
      0.666667       1.000000       0.000000
      0.813047       0.949038       0.000000
      0.956904       0.940237       0.000000
      1.000000       1.000000       0.000000
      0.833333       1.000000       0.000000
      0.458579       0.358579       0.000000
      0.428341       0.397369       0.000000
      0.351758       0.356122       0.000000
      0.382149       0.298816       0.000000
      0.428341       0.397369       0.000000
      0.407483       0.445805       0.000000
      0.331305       0.424779       0.000000
      0.351758       0.356122       0.000000
      0.382149       0.298816       0.000000
      0.351758       0.356122       0.000000
      0.277372       0.316058       0.000000
      0.305719       0.239052       0.000000
      0.351758       0.356122       0.000000
      0.331305       0.424779       0.000000
      0.258747       0.404752       0.000000
      0.277372       0.316058       0.000000
      0.407483       0.445805       0.000000
      0.400000       0.500000       0.000000
      0.324066       0.500000       0.000000
      0.331305       0.424779       0.000000
      0.400000       0.500000       0.000000
      0.407483       0.554195       0.000000
      0.331305       0.575221       0.000000
      0.324066       0.500000       0.000000
      0.331305       0.424779       0.000000
      0.324066       0.500000       0.000000
      0.252241       0.500000       0.000000
      0.258747       0.404752       0.000000
      0.324066       0.500000       0.000000
      0.331305       0.575221       0.000000
      0.258747       0.595248       0.000000
      0.252241       0.500000       0.000000
      0.407483       0.554195       0.000000
      0.428341       0.602631       0.000000
      0.351758       0.643878       0.000000
      0.331305       0.575221       0.000000
      0.428341       0.602631       0.000000
      0.458579       0.641421       0.000000
      0.382149       0.701184       0.000000
      0.351758       0.643878       0.000000
      0.331305       0.575221       0.000000
      0.351758       0.643878       0.000000
      0.277372       0.683942       0.000000
      0.258747       0.595248       0.000000
      0.351758       0.643878       0.000000
      0.382149       0.701184       0.000000
      0.305719       0.760948       0.000000
      0.277372       0.683942       0.000000
      0.305719       0.239052       0.000000
      0.277372       0.316058       0.000000
      0.205089       0.277126       0.000000
      0.229289       0.179289       0.000000
      0.277372       0.316058       0.000000
      0.258747       0.404752       0.000000
      0.189557       0.385654       0.000000
      0.205089       0.277126       0.000000
      0.229289       0.179289       0.000000
      0.205089       0.277126       0.000000
      0.134820       0.239280       0.000000
      0.152860       0.119526       0.000000
      0.205089       0.277126       0.000000
      0.189557       0.385654       0.000000
      0.123505       0.367423       0.000000
      0.134820       0.239280       0.000000
      0.258747       0.404752       0.000000
      0.252241       0.500000       0.000000
      0.184198       0.500000       0.000000
      0.189557       0.385654       0.000000
      0.252241       0.500000       0.000000
      0.258747       0.595248       0.000000
      0.189557       0.614346       0.000000
      0.184198       0.500000       0.000000
      0.189557       0.385654       0.000000
      0.184198       0.500000       0.000000
      0.119648       0.500000       0.000000
      0.123505       0.367423       0.000000
[...]
POINT_DATA   576
VECTORS U float 
      0.000353       0.004595       0.000000
      0.000183       0.004932       0.000000
      0.000030       0.004682       0.000000
      0.000236       0.004261       0.000000
      0.000183       0.004932       0.000000
      0.000001       0.005157       0.000000
     -0.000106       0.005059       0.000000
      0.000030       0.004682       0.000000
      0.000236       0.004261       0.000000
      0.000030       0.004682       0.000000
      0.000056       0.004662       0.000000
      0.000301       0.004313       0.000000
      0.000030       0.004682       0.000000
     -0.000106       0.005059       0.000000
     -0.000117       0.005021       0.000000
      0.000056       0.004662       0.000000
      0.000001       0.005157       0.000000
     -0.000189       0.005249       0.000000
     -0.000178       0.005272       0.000000
     -0.000106       0.005059       0.000000
     -0.000189       0.005249       0.000000
     -0.000395       0.005201       0.000000
     -0.000246       0.005235       0.000000
     -0.000178       0.005272       0.000000
     -0.000106       0.005059       0.000000
     -0.000178       0.005272       0.000000
     -0.000176       0.005270       0.000000
     -0.000117       0.005021       0.000000
     -0.000178       0.005272       0.000000
     -0.000246       0.005235       0.000000
     -0.000187       0.005260       0.000000
     -0.000176       0.005270       0.000000
     -0.000395       0.005201       0.000000
     -0.000628       0.005013       0.000000
     -0.000372       0.004952       0.000000
     -0.000246       0.005235       0.000000
     -0.000628       0.005013       0.000000
     -0.000879       0.004702       0.000000
     -0.000595       0.004521       0.000000
     -0.000372       0.004952       0.000000
     -0.000246       0.005235       0.000000
     -0.000372       0.004952       0.000000
     -0.000271       0.004976       0.000000
     -0.000187       0.005260       0.000000
     -0.000372       0.004952       0.000000
     -0.000595       0.004521       0.000000
     -0.000482       0.004554       0.000000
     -0.000271       0.004976       0.000000
      0.000301       0.004313       0.000000
      0.000056       0.004662       0.000000
      0.000117       0.004768       0.000000
      0.000395       0.004506       0.000000
      0.000056       0.004662       0.000000
     -0.000117       0.005021       0.000000
     -0.000096       0.005055       0.000000
      0.000117       0.004768       0.000000
      0.000395       0.004506       0.000000
      0.000117       0.004768       0.000000
      0.000190       0.004946       0.000000
      0.000504       0.004766       0.000000
      0.000117       0.004768       0.000000
     -0.000096       0.005055       0.000000
     -0.000066       0.005143       0.000000
      0.000190       0.004946       0.000000
     -0.000117       0.005021       0.000000
     -0.000176       0.005270       0.000000
     -0.000170       0.005285       0.000000
     -0.000096       0.005055       0.000000
     -0.000176       0.005270       0.000000
     -0.000187       0.005260       0.000000
     -0.000156       0.005294       0.000000
     -0.000170       0.005285       0.000000
     -0.000096       0.005055       0.000000
     -0.000170       0.005285       0.000000
     -0.000163       0.005320       0.000000
     -0.000066       0.005143       0.000000
     -0.000170       0.005285       0.000000
     -0.000156       0.005294       0.000000
     -0.000138       0.005336       0.000000
     -0.000163       0.005320       0.000000
     -0.000187       0.005260       0.000000
     -0.000271       0.004976       0.000000
     -0.000218       0.005045       0.000000
     -0.000156       0.005294       0.000000
     -0.000271       0.004976       0.000000
     -0.000482       0.004554       0.000000
     -0.000420       0.004668       0.000000
     -0.000218       0.005045       0.000000
     -0.000156       0.005294       0.000000
     -0.000218       0.005045       0.000000
     -0.000189       0.005145       0.000000
     -0.000138       0.005336       0.000000
     -0.000218       0.005045       0.000000
     -0.000420       0.004668       0.000000
     -0.000403       0.004848       0.000000
     -0.000189       0.005145       0.000000
      0.000504       0.004766       0.000000
      0.000190       0.004946       0.000000
      0.000279       0.005172       0.000000
      0.000644       0.005070       0.000000
      0.000190       0.004946       0.000000
     -0.000066       0.005143       0.000000
     -0.000028       0.005271       0.000000
      0.000279       0.005172       0.000000
      0.000644       0.005070       0.000000
      0.000279       0.005172       0.000000
      0.000392       0.005432       0.000000
      0.000834       0.005432       0.000000
      0.000279       0.005172       0.000000
     -0.000028       0.005271       0.000000
      0.000020       0.005432       0.000000
      0.000392       0.005432       0.000000
     -0.000066       0.005143       0.000000
     -0.000163       0.005320       0.000000
     -0.000158       0.005370       0.000000
     -0.000028       0.005271       0.000000
     -0.000163       0.005320       0.000000
     -0.000138       0.005336       0.000000
     -0.000128       0.005383       0.000000
     -0.000158       0.005370       0.000000
     -0.000028       0.005271       0.000000
     -0.000158       0.005370       0.000000
     -0.000155       0.005432       0.000000
      0.000020       0.005432       0.000000
     -0.000158       0.005370       0.000000
     -0.000128       0.005383       0.000000
     -0.000124       0.005432       0.000000
     -0.000155       0.005432       0.000000
     -0.000138       0.005336       0.000000
     -0.000189       0.005145       0.000000
     -0.000182       0.005274       0.000000
     -0.000128       0.005383       0.000000
     -0.000189       0.005145       0.000000
     -0.000403       0.004848       0.000000
     -0.000438       0.005102       0.000000
     -0.000182       0.005274       0.000000
     -0.000128       0.005383       0.000000
     -0.000182       0.005274       0.000000
     -0.000195       0.005432       0.000000
     -0.000124       0.005432       0.000000
     -0.000182       0.005274       0.000000
     -0.000438       0.005102       0.000000
     -0.000524       0.005432       0.000000
     -0.000195       0.005432       0.000000
      0.000307       0.000722       0.000000
      0.000466       0.001165       0.000000
      0.000459       0.001513       0.000000
      0.000187       0.001043       0.000000
      0.000466       0.001165       0.000000
      0.000591       0.001795       0.000000
      0.000755       0.002066       0.000000
      0.000459       0.001513       0.000000
      0.000187       0.001043       0.000000
      0.000459       0.001513       0.000000
      0.000524       0.001505       0.000000
      0.000226       0.000991       0.000000
      0.000459       0.001513       0.000000
      0.000755       0.002066       0.000000
      0.000853       0.002090       0.000000
      0.000524       0.001505       0.000000
      0.000591       0.001795       0.000000
      0.000635       0.002640       0.000000
      0.000908       0.002653       0.000000
      0.000755       0.002066       0.000000
      0.000635       0.002640       0.000000
      0.000615       0.003492       0.000000
      0.000787       0.003236       0.000000
      0.000908       0.002653       0.000000
      0.000755       0.002066       0.000000
      0.000908       0.002653       0.000000
      0.001021       0.002661       0.000000
      0.000853       0.002090       0.000000
      0.000908       0.002653       0.000000
      0.000787       0.003236       0.000000
      0.000887       0.003227       0.000000
      0.001021       0.002661       0.000000
      0.000615       0.003492       0.000000
      0.000509       0.004135       0.000000
      0.000508       0.003785       0.000000
      0.000787       0.003236       0.000000
      0.000509       0.004135       0.000000
      0.000353       0.004595       0.000000
      0.000236       0.004261       0.000000
      0.000508       0.003785       0.000000
      0.000787       0.003236       0.000000
      0.000508       0.003785       0.000000
      0.000584       0.003799       0.000000
      0.000887       0.003227       0.000000
      0.000508       0.003785       0.000000
      0.000236       0.004261       0.000000
      0.000301       0.004313       0.000000
      0.000584       0.003799       0.000000
      0.000226       0.000991       0.000000
      0.000524       0.001505       0.000000
      0.000597       0.001399       0.000000
      0.000266       0.000806       0.000000
      0.000524       0.001505       0.000000
      0.000853       0.002090       0.000000
      0.000950       0.002051       0.000000
      0.000597       0.001399       0.000000
      0.000266       0.000806       0.000000
      0.000597       0.001399       0.000000
      0.000665       0.001280       0.000000
      0.000275       0.000571       0.000000
      0.000597       0.001399       0.000000
      0.000950       0.002051       0.000000
      0.001050       0.002010       0.000000
      0.000665       0.001280       0.000000
      0.000853       0.002090       0.000000
      0.001021       0.002661       0.000000
      0.001125       0.002672       0.000000
      0.000950       0.002051       0.000000
      0.001021       0.002661       0.000000
      0.000887       0.003227       0.000000
      0.000987       0.003286       0.000000
      0.001125       0.002672       0.000000
      0.000950       0.002051       0.000000
      0.001125       0.002672       0.000000
      0.001237       0.002685       0.000000
      0.001050       0.002010       0.000000
      0.001125       0.002672       0.000000
      0.000987       0.003286       0.000000
      0.001091       0.003355       0.000000
      0.001237       0.002685       0.000000
      0.000887       0.003227       0.000000
      0.000584       0.003799       0.000000
      0.000676       0.003921       0.000000
      0.000987       0.003286       0.000000
      0.000584       0.003799       0.000000
      0.000301       0.004313       0.000000
      0.000395       0.004506       0.000000
      0.000676       0.003921       0.000000
      0.000987       0.003286       0.000000
      0.000676       0.003921       0.000000
      0.000770       0.004070       0.000000
      0.001091       0.003355       0.000000
      0.000676       0.003921       0.000000
      0.000395       0.004506       0.000000
      0.000504       0.004766       0.000000
      0.000770       0.004070       0.000000
      0.000275       0.000571       0.000000
      0.000665       0.001280       0.000000
      0.000725       0.001191       0.000000
      0.000223       0.000313       0.000000
      0.000665       0.001280       0.000000
      0.001050       0.002010       0.000000
      0.001145       0.001994       0.000000
      0.000725       0.001191       0.000000
      0.000223       0.000313       0.000000
      0.000725       0.001191       0.000000
      0.000777       0.001149       0.000000
      0.000000       0.000000       0.000000
      0.000725       0.001191       0.000000
      0.001145       0.001994       0.000000
      0.001230       0.002023       0.000000
      0.000777       0.001149       0.000000
      0.001050       0.002010       0.000000
      0.001237       0.002685       0.000000
      0.001351       0.002697       0.000000
      0.001145       0.001994       0.000000
      0.001237       0.002685       0.000000
      0.001091       0.003355       0.000000
      0.001193       0.003404       0.000000
      0.001351       0.002697       0.000000
      0.001145       0.001994       0.000000
      0.001351       0.002697       0.000000
      0.001454       0.002707       0.000000
      0.001230       0.002023       0.000000
      0.001351       0.002697       0.000000
      0.001193       0.003404       0.000000
      0.001288       0.003406       0.000000
      0.001454       0.002707       0.000000
      0.001091       0.003355       0.000000
      0.000770       0.004070       0.000000
      0.000865       0.004213       0.000000
      0.001193       0.003404       0.000000
      0.000770       0.004070       0.000000
      0.000504       0.004766       0.000000
      0.000644       0.005070       0.000000
      0.000865       0.004213       0.000000
      0.001193       0.003404       0.000000
      0.000865       0.004213       0.000000
      0.000973       0.004337       0.000000
      0.001288       0.003406       0.000000
      0.000865       0.004213       0.000000
      0.000644       0.005070       0.000000
      0.000834       0.005432       0.000000
      0.000973       0.004337       0.000000
     -0.000825       0.000678       0.000000
     -0.000570       0.000367       0.000000
     -0.000305       0.000433       0.000000
     -0.000527       0.000867       0.000000
     -0.000570       0.000367       0.000000
     -0.000346       0.000182       0.000000
     -0.000192       0.000156       0.000000
     -0.000305       0.000433       0.000000
     -0.000527       0.000867       0.000000
     -0.000305       0.000433       0.000000
     -0.000181       0.000417       0.000000
     -0.000390       0.000842       0.000000
     -0.000305       0.000433       0.000000
     -0.000192       0.000156       0.000000
     -0.000116       0.000140       0.000000
     -0.000181       0.000417       0.000000
     -0.000346       0.000182       0.000000
     -0.000165       0.000131       0.000000
     -0.000147       0.000113       0.000000
     -0.000192       0.000156       0.000000
     -0.000165       0.000131       0.000000
     -0.000009       0.000207       0.000000
     -0.000106       0.000298       0.000000
     -0.000147       0.000113       0.000000
     -0.000192       0.000156       0.000000
     -0.000147       0.000113       0.000000
     -0.000136       0.000121       0.000000
     -0.000116       0.000140       0.000000
     -0.000147       0.000113       0.000000
     -0.000106       0.000298       0.000000
     -0.000119       0.000337       0.000000
     -0.000136       0.000121       0.000000
     -0.000009       0.000207       0.000000
      0.000147       0.000408       0.000000
      0.000000       0.000643       0.000000
     -0.000106       0.000298       0.000000
      0.000147       0.000408       0.000000
      0.000307       0.000722       0.000000
      0.000187       0.001043       0.000000
      0.000000       0.000643       0.000000
     -0.000106       0.000298       0.000000
      0.000000       0.000643       0.000000
      0.000008       0.000660       0.000000
     -0.000119       0.000337       0.000000
      0.000000       0.000643       0.000000
      0.000187       0.001043       0.000000
      0.000226       0.000991       0.000000
      0.000008       0.000660       0.000000
     -0.000390       0.000842       0.000000
     -0.000181       0.000417       0.000000
     -0.000098       0.000353       0.000000
     -0.000296       0.000734       0.000000
     -0.000181       0.000417       0.000000
     -0.000116       0.000140       0.000000
     -0.000064       0.000117       0.000000
     -0.000098       0.000353       0.000000
     -0.000296       0.000734       0.000000
     -0.000098       0.000353       0.000000
     -0.000038       0.000257       0.000000
     -0.000233       0.000560       0.000000
     -0.000098       0.000353       0.000000
     -0.000064       0.000117       0.000000
     -0.000027       0.000086       0.000000
     -0.000038       0.000257       0.000000
     -0.000116       0.000140       0.000000
     -0.000136       0.000121       0.000000
     -0.000118       0.000115       0.000000
     -0.000064       0.000117       0.000000
     -0.000136       0.000121       0.000000
     -0.000119       0.000337       0.000000
     -0.000105       0.000307       0.000000
     -0.000118       0.000115       0.000000
     -0.000064       0.000117       0.000000
     -0.000118       0.000115       0.000000
     -0.000093       0.000092       0.000000
     -0.000027       0.000086       0.000000
     -0.000118       0.000115       0.000000
     -0.000105       0.000307       0.000000
     -0.000079       0.000229       0.000000
     -0.000093       0.000092       0.000000
     -0.000119       0.000337       0.000000
      0.000008       0.000660       0.000000
      0.000036       0.000556       0.000000
     -0.000105       0.000307       0.000000
      0.000008       0.000660       0.000000
      0.000226       0.000991       0.000000
      0.000266       0.000806       0.000000
      0.000036       0.000556       0.000000
     -0.000105       0.000307       0.000000
      0.000036       0.000556       0.000000
      0.000053       0.000390       0.000000
     -0.000079       0.000229       0.000000
      0.000036       0.000556       0.000000
      0.000266       0.000806       0.000000
      0.000275       0.000571       0.000000
      0.000053       0.000390       0.000000
     -0.000233       0.000560       0.000000
     -0.000038       0.000257       0.000000
     -0.000003       0.000136       0.000000
     -0.000178       0.000315       0.000000
     -0.000038       0.000257       0.000000
     -0.000027       0.000086       0.000000
     -0.000004       0.000047       0.000000
     -0.000003       0.000136       0.000000
     -0.000178       0.000315       0.000000
     -0.000003       0.000136       0.000000
      0.000000       0.000000       0.000000
      0.000000       0.000000       0.000000
     -0.000003       0.000136       0.000000
     -0.000004       0.000047       0.000000
      0.000000       0.000000       0.000000
      0.000000       0.000000       0.000000
     -0.000027       0.000086       0.000000
     -0.000093       0.000092       0.000000
     -0.000057       0.000053       0.000000
     -0.000004       0.000047       0.000000
     -0.000093       0.000092       0.000000
     -0.000079       0.000229       0.000000
     -0.000044       0.000121       0.000000
     -0.000057       0.000053       0.000000
     -0.000004       0.000047       0.000000
     -0.000057       0.000053       0.000000
      0.000000       0.000000       0.000000
      0.000000       0.000000       0.000000
     -0.000057       0.000053       0.000000
     -0.000044       0.000121       0.000000
      0.000000       0.000000       0.000000
      0.000000       0.000000       0.000000
     -0.000079       0.000229       0.000000
      0.000053       0.000390       0.000000
      0.000046       0.000197       0.000000
     -0.000044       0.000121       0.000000
      0.000053       0.000390       0.000000
      0.000275       0.000571       0.000000
      0.000223       0.000313       0.000000
      0.000046       0.000197       0.000000
     -0.000044       0.000121       0.000000
      0.000046       0.000197       0.000000
      0.000000       0.000000       0.000000
      0.000000       0.000000       0.000000
      0.000046       0.000197       0.000000
      0.000223       0.000313       0.000000
      0.000000       0.000000       0.000000
      0.000000       0.000000       0.000000
     -0.000825       0.000678       0.000000
     -0.001102       0.001130       0.000000
     -0.000914       0.001340       0.000000
     -0.000527       0.000867       0.000000
     -0.001102       0.001130       0.000000
     -0.001344       0.001784       0.000000
     -0.001382       0.001940       0.000000
     -0.000914       0.001340       0.000000
     -0.000527       0.000867       0.000000
     -0.000914       0.001340       0.000000
     -0.000800       0.001357       0.000000