# vtk DataFile Version 2.0
time_10.vtk
ASCII
DATASET UNSTRUCTURED_GRID
POINTS  2304 float
      0.458579       0.641421       0.000000
      0.497369       0.671659       0.000000
      0.438243       0.730363       0.000000
      0.382149       0.701184       0.000000
      0.497369       0.671659       0.000000
      0.545805       0.692517       0.000000
      0.506084       0.750000       0.000000
      0.438243       0.730363       0.000000
      0.382149       0.701184       0.000000
      0.438243       0.730363       0.000000
      0.380813       0.787383       0.000000
      0.305719       0.760948       0.000000
      0.438243       0.730363       0.000000
      0.506084       0.750000       0.000000
      0.468251       0.804752       0.000000
      0.380813       0.787383       0.000000
      0.545805       0.692517       0.000000
      0.600000       0.700000       0.000000
      0.581017       0.756950       0.000000
      0.506084       0.750000       0.000000
      0.600000       0.700000       0.000000
      0.654195       0.692517       0.000000
      0.656527       0.750000       0.000000
      0.581017       0.756950       0.000000
      0.506084       0.750000       0.000000
      0.581017       0.756950       0.000000
      0.563060       0.810819       0.000000
      0.468251       0.804752       0.000000
      0.581017       0.756950       0.000000
      0.656527       0.750000       0.000000
      0.658747       0.804752       0.000000
      0.563060       0.810819       0.000000
      0.654195       0.692517       0.000000
      0.702631       0.671659       0.000000
      0.725999       0.730363       0.000000
      0.656527       0.750000       0.000000
      0.702631       0.671659       0.000000
      0.741421       0.641421       0.000000
      0.784518       0.701184       0.000000
      0.725999       0.730363       0.000000
      0.656527       0.750000       0.000000
      0.725999       0.730363       0.000000
      0.748697       0.787383       0.000000
      0.658747       0.804752       0.000000
      0.725999       0.730363       0.000000
      0.784518       0.701184       0.000000
      0.827614       0.760948       0.000000
      0.748697       0.787383       0.000000
      0.305719       0.760948       0.000000
      0.380813       0.787383       0.000000
      0.325006       0.842791       0.000000
      0.229289       0.820711       0.000000
      0.380813       0.787383       0.000000
      0.468251       0.804752       0.000000
      0.432173       0.856962       0.000000
      0.325006       0.842791       0.000000
      0.229289       0.820711       0.000000
      0.325006       0.842791       0.000000
      0.270755       0.896655       0.000000
      0.152860       0.880474       0.000000
      0.325006       0.842791       0.000000
      0.432173       0.856962       0.000000
      0.397732       0.906804       0.000000
      0.270755       0.896655       0.000000
      0.468251       0.804752       0.000000
      0.563060       0.810819       0.000000
      0.546050       0.861851       0.000000
      0.432173       0.856962       0.000000
      0.563060       0.810819       0.000000
      0.658747       0.804752       0.000000
      0.660865       0.856962       0.000000
      0.546050       0.861851       0.000000
      0.432173       0.856962       0.000000
      0.546050       0.861851       0.000000
      0.529912       0.910264       0.000000
      0.397732       0.906804       0.000000
      0.546050       0.861851       0.000000
      0.660865       0.856962       0.000000
      0.662887       0.906804       0.000000
      0.529912       0.910264       0.000000
      0.658747       0.804752       0.000000
      0.748697       0.787383       0.000000
      0.770753       0.842791       0.000000
      0.660865       0.856962       0.000000
      0.748697       0.787383       0.000000
      0.827614       0.760948       0.000000
      0.870711       0.820711       0.000000
      0.770753       0.842791       0.000000
      0.660865       0.856962       0.000000
      0.770753       0.842791       0.000000
      0.792195       0.896655       0.000000
      0.662887       0.906804       0.000000
      0.770753       0.842791       0.000000
      0.870711       0.820711       0.000000
      0.913807       0.880474       0.000000
      0.792195       0.896655       0.000000
      0.152860       0.880474       0.000000
      0.270755       0.896655       0.000000
      0.217995       0.949038       0.000000
      0.076430       0.940237       0.000000
      0.270755       0.896655       0.000000
      0.397732       0.906804       0.000000
      0.364819       0.954435       0.000000
      0.217995       0.949038       0.000000
      0.076430       0.940237       0.000000
      0.217995       0.949038       0.000000
      0.166667       1.000000       0.000000
      0.000000       1.000000       0.000000
      0.217995       0.949038       0.000000
      0.364819       0.954435       0.000000
      0.333333       1.000000       0.000000
      0.166667       1.000000       0.000000
      0.397732       0.906804       0.000000
      0.529912       0.910264       0.000000
      0.514582       0.956255       0.000000
      0.364819       0.954435       0.000000
      0.529912       0.910264       0.000000
      0.662887       0.906804       0.000000
      0.664819       0.954435       0.000000
      0.514582       0.956255       0.000000
      0.364819       0.954435       0.000000
      0.514582       0.956255       0.000000
      0.500000       1.000000       0.000000
      0.333333       1.000000       0.000000
      0.514582       0.956255       0.000000
      0.664819       0.954435       0.000000
      0.666667       1.000000       0.000000
      0.500000       1.000000       0.000000
      0.662887       0.906804       0.000000
      0.792195       0.896655       0.000000
      0.813047       0.949038       0.000000
      0.664819       0.954435       0.000000
      0.792195       0.896655       0.000000
      0.913807       0.880474       0.000000
      0.956904       0.940237       0.000000
      0.813047       0.949038       0.000000
      0.664819       0.954435       0.000000
      0.813047       0.949038       0.000000
      0.833333       1.000000       0.000000
      0.666667       1.000000       0.000000
      0.813047       0.949038       0.000000
      0.956904       0.940237       0.000000
      1.000000       1.000000       0.000000
      0.833333       1.000000       0.000000
      0.458579       0.358579       0.000000
      0.428341       0.397369       0.000000
      0.351758       0.356122       0.000000
      0.382149       0.298816       0.000000
      0.382149       0.298816       0.000000
      0.351758       0.356122       0.000000
      0.277372       0.316058       0.000000
      0.305719       0.239052       0.000000
      0.351758       0.356122       0.000000
      0.331305       0.424779       0.000000
      0.258747       0.404752       0.000000
      0.277372       0.316058       0.000000
      0.428341       0.602631       0.000000
      0.458579       0.641421       0.000000
      0.382149       0.701184       0.000000
      0.351758       0.643878       0.000000
      0.331305       0.575221       0.000000
      0.351758       0.643878       0.000000
      0.277372       0.683942       0.000000
      0.258747       0.595248       0.000000
      0.351758       0.643878       0.000000
      0.382149       0.701184       0.000000
      0.305719       0.760948       0.000000
      0.277372       0.683942       0.000000
      0.305719       0.239052       0.000000
      0.277372       0.316058       0.000000
      0.205089       0.277126       0.000000
      0.229289       0.179289       0.000000
      0.277372       0.316058       0.000000
      0.258747       0.404752       0.000000
      0.189557       0.385654       0.000000
      0.205089       0.277126       0.000000
      0.229289       0.179289       0.000000
      0.205089       0.277126       0.000000
      0.134820       0.239280       0.000000
      0.152860       0.119526       0.000000
      0.205089       0.277126       0.000000
      0.189557       0.385654       0.000000
      0.123505       0.367423       0.000000
      0.134820       0.239280       0.000000
      0.258747       0.404752       0.000000
      0.252241       0.500000       0.000000
      0.184198       0.500000       0.000000
      0.189557       0.385654       0.000000
      0.252241       0.500000       0.000000
      0.258747       0.595248       0.000000
      0.189557       0.614346       0.000000
      0.184198       0.500000       0.000000
      0.189557       0.385654       0.000000
      0.184198       0.500000       0.000000
      0.119648       0.500000       0.000000
      0.123505       0.367423       0.000000
      0.184198       0.500000       0.000000
      0.189557       0.614346       0.000000
      0.123505       0.632577       0.000000
      0.119648       0.500000       0.000000
      0.258747       0.595248       0.000000
      0.277372       0.683942       0.000000
      0.205089       0.722874       0.000000
      0.189557       0.614346       0.000000
      0.277372       0.683942       0.000000
      0.305719       0.760948       0.000000
      0.229289       0.820711       0.000000
      0.205089       0.722874       0.000000
      0.189557       0.614346       0.000000
      0.205089       0.722874       0.000000
      0.134820       0.760720       0.000000
      0.123505       0.632577       0.000000
      0.205089       0.722874       0.000000
      0.229289       0.820711       0.000000
      0.152860       0.880474       0.000000
      0.134820       0.760720       0.000000
      0.152860       0.119526       0.000000
      0.134820       0.239280       0.000000
      0.066483       0.202474       0.000000
      0.076430       0.059763       0.000000
[...]
POINT_DATA  2304
VECTORS U float 
      0.000566       0.005873       0.000000
      0.000370       0.006260       0.000000
      0.000152       0.005946       0.000000
      0.000389       0.005446       0.000000
      0.000370       0.006260       0.000000
      0.000193       0.006534       0.000000
      0.000007       0.006389       0.000000
      0.000152       0.005946       0.000000
      0.000389       0.005446       0.000000
      0.000152       0.005946       0.000000
      0.000129       0.005899       0.000000
      0.000427       0.005465       0.000000
      0.000152       0.005946       0.000000
      0.000007       0.006389       0.000000
     -0.000073       0.006328       0.000000
      0.000129       0.005899       0.000000
      0.000193       0.006534       0.000000
      0.000059       0.006691       0.000000
     -0.000049       0.006672       0.000000
      0.000007       0.006389       0.000000
      0.000059       0.006691       0.000000
     -0.000028       0.006763       0.000000
     -0.000071       0.006783       0.000000
     -0.000049       0.006672       0.000000
      0.000007       0.006389       0.000000
     -0.000049       0.006672       0.000000
     -0.000142       0.006649       0.000000
     -0.000073       0.006328       0.000000
     -0.000049       0.006672       0.000000
     -0.000071       0.006783       0.000000
     -0.000139       0.006790       0.000000
     -0.000142       0.006649       0.000000
     -0.000028       0.006763       0.000000
     -0.000077       0.006786       0.000000
     -0.000089       0.006802       0.000000
     -0.000071       0.006783       0.000000
     -0.000077       0.006786       0.000000
     -0.000104       0.006788       0.000000
     -0.000104       0.006792       0.000000
     -0.000089       0.006802       0.000000
     -0.000071       0.006783       0.000000
     -0.000089       0.006802       0.000000
     -0.000132       0.006814       0.000000
     -0.000139       0.006790       0.000000
     -0.000089       0.006802       0.000000
     -0.000104       0.006792       0.000000
     -0.000132       0.006802       0.000000
     -0.000132       0.006814       0.000000
      0.000427       0.005465       0.000000
      0.000129       0.005899       0.000000
      0.000167       0.006013       0.000000
      0.000515       0.005676       0.000000
      0.000129       0.005899       0.000000
     -0.000073       0.006328       0.000000
     -0.000097       0.006362       0.000000
      0.000167       0.006013       0.000000
      0.000515       0.005676       0.000000
      0.000167       0.006013       0.000000
      0.000236       0.006224       0.000000
      0.000632       0.005982       0.000000
      0.000167       0.006013       0.000000
     -0.000097       0.006362       0.000000
     -0.000087       0.006467       0.000000
      0.000236       0.006224       0.000000
     -0.000073       0.006328       0.000000
     -0.000142       0.006649       0.000000
     -0.000202       0.006655       0.000000
     -0.000097       0.006362       0.000000
     -0.000142       0.006649       0.000000
     -0.000139       0.006790       0.000000
     -0.000194       0.006796       0.000000
     -0.000202       0.006655       0.000000
     -0.000097       0.006362       0.000000
     -0.000202       0.006655       0.000000
     -0.000236       0.006689       0.000000
     -0.000087       0.006467       0.000000
     -0.000202       0.006655       0.000000
     -0.000194       0.006796       0.000000
     -0.000232       0.006804       0.000000
     -0.000236       0.006689       0.000000
     -0.000139       0.006790       0.000000
     -0.000132       0.006814       0.000000
     -0.000172       0.006820       0.000000
     -0.000194       0.006796       0.000000
     -0.000132       0.006814       0.000000
     -0.000132       0.006802       0.000000
     -0.000163       0.006809       0.000000
     -0.000172       0.006820       0.000000
     -0.000194       0.006796       0.000000
     -0.000172       0.006820       0.000000
     -0.000200       0.006822       0.000000
     -0.000232       0.006804       0.000000
     -0.000172       0.006820       0.000000
     -0.000163       0.006809       0.000000
     -0.000188       0.006815       0.000000
     -0.000200       0.006822       0.000000
      0.000632       0.005982       0.000000
      0.000236       0.006224       0.000000
      0.000336       0.006499       0.000000
      0.000799       0.006356       0.000000
      0.000236       0.006224       0.000000
     -0.000087       0.006467       0.000000
     -0.000053       0.006624       0.000000
      0.000336       0.006499       0.000000
      0.000799       0.006356       0.000000
      0.000336       0.006499       0.000000
      0.000475       0.006822       0.000000
      0.001043       0.006822       0.000000
      0.000336       0.006499       0.000000
     -0.000053       0.006624       0.000000
      0.000006       0.006822       0.000000
      0.000475       0.006822       0.000000
     -0.000087       0.006467       0.000000
     -0.000236       0.006689       0.000000
     -0.000250       0.006746       0.000000
     -0.000053       0.006624       0.000000
     -0.000236       0.006689       0.000000
     -0.000232       0.006804       0.000000
     -0.000253       0.006813       0.000000
     -0.000250       0.006746       0.000000
     -0.000053       0.006624       0.000000
     -0.000250       0.006746       0.000000
     -0.000247       0.006822       0.000000
      0.000006       0.006822       0.000000
     -0.000250       0.006746       0.000000
     -0.000253       0.006813       0.000000
     -0.000260       0.006822       0.000000
     -0.000247       0.006822       0.000000
     -0.000232       0.006804       0.000000
     -0.000200       0.006822       0.000000
     -0.000215       0.006822       0.000000
     -0.000253       0.006813       0.000000
     -0.000200       0.006822       0.000000
     -0.000188       0.006815       0.000000
     -0.000205       0.006821       0.000000
     -0.000215       0.006822       0.000000
     -0.000253       0.006813       0.000000
     -0.000215       0.006822       0.000000
     -0.000218       0.006822       0.000000
     -0.000260       0.006822       0.000000
     -0.000215       0.006822       0.000000
     -0.000205       0.006821       0.000000
     -0.000209       0.006822       0.000000
     -0.000218       0.006822       0.000000
      0.000510       0.000802       0.000000
      0.000714       0.001299       0.000000
      0.000674       0.001771       0.000000
      0.000337       0.001206       0.000000
      0.000337       0.001206       0.000000
      0.000674       0.001771       0.000000
      0.000741       0.001822       0.000000
      0.000348       0.001182       0.000000
      0.000674       0.001771       0.000000
      0.001074       0.002478       0.000000
      0.001201       0.002584       0.000000
      0.000741       0.001822       0.000000
      0.000767       0.005353       0.000000
      0.000566       0.005873       0.000000
      0.000389       0.005446       0.000000
      0.000731       0.004872       0.000000
      0.001114       0.004169       0.000000
      0.000731       0.004872       0.000000
      0.000808       0.004824       0.000000
      0.001241       0.004078       0.000000
      0.000731       0.004872       0.000000
      0.000389       0.005446       0.000000
      0.000427       0.005465       0.000000
      0.000808       0.004824       0.000000
      0.000348       0.001182       0.000000
      0.000741       0.001822       0.000000
      0.000823       0.001726       0.000000
      0.000372       0.000979       0.000000
      0.000741       0.001822       0.000000
      0.001201       0.002584       0.000000
      0.001322       0.002564       0.000000
      0.000823       0.001726       0.000000
      0.000372       0.000979       0.000000
      0.000823       0.001726       0.000000
      0.000896       0.001603       0.000000
      0.000361       0.000705       0.000000
      0.000823       0.001726       0.000000
      0.001322       0.002564       0.000000
      0.001441       0.002528       0.000000
      0.000896       0.001603       0.000000
      0.001201       0.002584       0.000000
      0.001462       0.003336       0.000000
      0.001579       0.003348       0.000000
      0.001322       0.002564       0.000000
      0.001462       0.003336       0.000000
      0.001241       0.004078       0.000000
      0.001362       0.004122       0.000000
      0.001579       0.003348       0.000000
      0.001322       0.002564       0.000000
      0.001579       0.003348       0.000000
      0.001709       0.003362       0.000000
      0.001441       0.002528       0.000000
      0.001579       0.003348       0.000000
      0.001362       0.004122       0.000000
      0.001484       0.004191       0.000000
      0.001709       0.003362       0.000000
      0.001241       0.004078       0.000000
      0.000808       0.004824       0.000000
      0.000910       0.004938       0.000000
      0.001362       0.004122       0.000000
      0.000808       0.004824       0.000000
      0.000427       0.005465       0.000000
      0.000515       0.005676       0.000000
      0.000910       0.004938       0.000000
      0.001362       0.004122       0.000000
      0.000910       0.004938       0.000000
      0.001013       0.005098       0.000000
      0.001484       0.004191       0.000000
      0.000910       0.004938       0.000000
      0.000515       0.005676       0.000000
      0.000632       0.005982       0.000000
      0.001013       0.005098       0.000000
      0.000361       0.000705       0.000000
      0.000896       0.001603       0.000000
      0.000959       0.001515       0.000000
      0.000282       0.000392       0.000000
      0.000896       0.001603       0.000000
      0.001441       0.002528       0.000000
      0.001551       0.002523       0.000000
      0.000959       0.001515       0.000000
      0.000282       0.000392       0.000000
      0.000959       0.001515       0.000000
      0.001014       0.001484       0.000000
      0.000000       0.000000       0.000000
      0.000959       0.001515       0.000000
      0.001551       0.002523       0.000000
      0.001648       0.002581       0.000000
      0.001014       0.001484       0.000000
      0.001441       0.002528       0.000000
      0.001709       0.003362       0.000000
      0.001844       0.003376       0.000000
      0.001551       0.002523       0.000000
      0.001709       0.003362       0.000000
      0.001484       0.004191       0.000000
      0.001603       0.004234       0.000000
      0.001844       0.003376       0.000000
      0.001551       0.002523       0.000000
      0.001844       0.003376       0.000000
      0.001965       0.003387       0.000000
      0.001648       0.002581       0.000000
      0.001844       0.003376       0.000000
      0.001603       0.004234       0.000000
      0.001712       0.004213       0.000000
      0.001965       0.003387       0.000000
      0.001484       0.004191       0.000000
      0.001013       0.005098       0.000000
      0.001119       0.005254       0.000000
      0.001603       0.004234       0.000000
      0.001013       0.005098       0.000000
      0.000632       0.005982       0.000000
      0.000799       0.006356       0.000000
      0.001119       0.005254       0.000000
      0.001603       0.004234       0.000000
      0.001119       0.005254       0.000000
      0.001246       0.005392       0.000000
      0.001712       0.004213       0.000000
      0.001119       0.005254       0.000000
      0.000799       0.006356       0.000000
      0.001043       0.006822       0.000000
      0.001246       0.005392       0.000000
      0.001160       0.003896       0.000000
      0.001039       0.004345       0.000000
      0.001114       0.004169       0.000000
      0.001273       0.003761       0.000000
      0.001000       0.002297       0.000000
      0.001137       0.002741       0.000000
      0.001250       0.002888       0.000000
      0.001074       0.002478       0.000000
      0.001047       0.002623       0.000000
      0.001073       0.002932       0.000000
      0.001188       0.003013       0.000000
      0.001137       0.002741       0.000000
      0.000861       0.003303       0.000000
      0.000869       0.003531       0.000000
      0.000991       0.003523       0.000000
      0.000988       0.003305       0.000000
      0.000869       0.003531       0.000000
      0.000886       0.003746       0.000000
      0.000997       0.003727       0.000000
      0.000991       0.003523       0.000000
      0.000988       0.003305       0.000000
      0.000991       0.003523       0.000000
      0.001086       0.003505       0.000000
      0.001085       0.003309       0.000000
      0.000991       0.003523       0.000000
      0.000997       0.003727       0.000000
      0.001083       0.003690       0.000000
      0.001086       0.003505       0.000000
      0.000882       0.002867       0.000000
      0.000867       0.003076       0.000000
      0.000988       0.003089       0.000000
      0.000989       0.002891       0.000000
      0.000867       0.003076       0.000000
      0.000861       0.003303       0.000000
      0.000988       0.003305       0.000000
      0.000988       0.003089       0.000000
      0.000989       0.002891       0.000000
      0.000988       0.003089       0.000000
      0.001081       0.003114       0.000000
      0.001073       0.002932       0.000000
      0.000988       0.003089       0.000000
      0.000988       0.003305       0.000000
      0.001085       0.003309       0.000000
      0.001081       0.003114       0.000000
      0.000921       0.004626       0.000000
      0.000858       0.005022       0.000000
      0.000888       0.004708       0.000000
      0.001039       0.004345       0.000000
      0.000858       0.005022       0.000000
      0.000767       0.005353       0.000000
      0.000726       0.005027       0.000000
      0.000888       0.004708       0.000000
      0.001039       0.004345       0.000000
      0.000888       0.004708       0.000000
      0.000925       0.004538       0.000000
      0.001114       0.004169       0.000000
      0.000888       0.004708       0.000000
      0.000726       0.005027       0.000000
      0.000731       0.004872       0.000000
      0.000925       0.004538       0.000000
      0.000921       0.004106       0.000000
      0.000932       0.004390       0.000000
      0.001036       0.004263       0.000000
      0.001067       0.004008       0.000000
      0.000932       0.004390       0.000000
      0.000921       0.004626       0.000000
      0.000992       0.004477       0.000000
      0.001036       0.004263       0.000000
      0.001067       0.004008       0.000000
      0.001036       0.004263       0.000000
      0.001104       0.004135       0.000000
      0.001160       0.003896       0.000000
      0.001036       0.004263       0.000000
      0.000992       0.004477       0.000000
      0.001039       0.004345       0.000000
      0.001104       0.004135       0.000000
      0.000886       0.003746       0.000000
      0.000906       0.003938       0.000000
      0.001002       0.003907       0.000000
      0.000997       0.003727       0.000000
      0.000906       0.003938       0.000000
      0.000921       0.004106       0.000000
      0.001003       0.004065       0.000000
      0.001002       0.003907       0.000000
      0.000997       0.003727       0.000000
      0.001002       0.003907       0.000000
      0.001077       0.003858       0.000000
      0.001083       0.003690       0.000000
      0.001002       0.003907       0.000000
      0.001003       0.004065       0.000000
      0.001067       0.004008       0.000000
      0.001077       0.003858       0.000000
      0.000714       0.001299       0.000000
      0.000813       0.001622       0.000000
      0.000839       0.001936       0.000000
      0.000671       0.001620       0.000000
      0.000813       0.001622       0.000000
      0.000889       0.002010       0.000000
      0.001000       0.002297       0.000000
      0.000839       0.001936       0.000000
      0.000671       0.001620       0.000000
      0.000839       0.001936       0.000000
      0.000874       0.002107       0.000000
      0.000674       0.001771       0.000000
      0.000839       0.001936       0.000000
      0.001000       0.002297       0.000000
      0.001074       0.002478       0.000000
      0.000874       0.002107       0.000000
      0.000889       0.002010       0.000000
      0.000909       0.002241       0.000000
      0.001007       0.002374       0.000000
      0.000956       0.002163       0.000000
      0.000909       0.002241       0.000000
      0.000907       0.002517       0.000000
      0.001047       0.002623       0.000000
      0.001007       0.002374       0.000000
      0.000956       0.002163       0.000000
      0.001007       0.002374       0.000000
      0.001073       0.002505       0.000000
      0.001000       0.002297       0.000000
      0.001007       0.002374       0.000000
      0.001047       0.002623       0.000000
      0.001137       0.002741       0.000000
      0.001073       0.002505       0.000000
      0.000907       0.002517       0.000000
      0.000897       0.002681       0.000000
      0.000989       0.002716       0.000000
      0.000986       0.002563       0.000000
      0.000897       0.002681       0.000000
      0.000882       0.002867       0.000000
      0.000989       0.002891       0.000000
      0.000989       0.002716       0.000000
      0.000986       0.002563       0.000000
      0.000989       0.002716       0.000000
      0.001061       0.002769       0.000000
      0.001047       0.002623       0.000000
      0.000989       0.002716       0.000000
      0.000989       0.002891       0.000000
      0.001073       0.002932       0.000000
      0.001061       0.002769       0.000000
      0.001074       0.002478       0.000000
      0.001250       0.002888       0.000000
      0.001323       0.002948       0.000000
      0.001140       0.002560       0.000000
      0.001250       0.002888       0.000000
      0.001337       0.003325       0.000000
      0.001405       0.003331       0.000000
      0.001323       0.002948       0.000000
      0.001140       0.002560       0.000000
      0.001323       0.002948       0.000000
      0.001383       0.002968       0.000000
      0.001201       0.002584       0.000000
      0.001323       0.002948       0.000000
      0.001405       0.003331       0.000000
      0.001462       0.003336       0.000000
      0.001383       0.002968       0.000000
      0.001337       0.003325       0.000000
      0.001273       0.003761       0.000000
      0.001344       0.003711       0.000000
      0.001405       0.003331       0.000000
      0.001273       0.003761       0.000000
      0.001114       0.004169       0.000000
      0.001179       0.004094       0.000000
      0.001344       0.003711       0.000000
      0.001405       0.003331       0.000000
      0.001344       0.003711       0.000000
      0.001404       0.003701       0.000000
      0.001462       0.003336       0.000000
      0.001344       0.003711       0.000000
      0.001179       0.004094       0.000000
      0.001241       0.004078       0.000000
      0.001404       0.003701       0.000000
      0.001212       0.003316       0.000000
      0.001200       0.003620       0.000000
      0.001273       0.003573       0.000000
      0.001287       0.003321       0.000000
      0.001200       0.003620       0.000000
      0.001160       0.003896       0.000000
      0.001225       0.003814       0.000000