# vtk DataFile Version 2.0
time_10.vtk
ASCII
DATASET UNSTRUCTURED_GRID
POINTS   912 float
      0.458579       0.641421       0.000000
      0.497369       0.671659       0.000000
      0.438243       0.730363       0.000000
      0.382149       0.701184       0.000000
      0.497369       0.671659       0.000000
      0.545805       0.692517       0.000000
      0.506084       0.750000       0.000000
      0.438243       0.730363       0.000000
      0.382149       0.701184       0.000000
      0.438243       0.730363       0.000000
      0.380813       0.787383       0.000000
      0.305719       0.760948       0.000000
      0.438243       0.730363       0.000000
      0.506084       0.750000       0.000000
      0.468251       0.804752       0.000000
      0.380813       0.787383       0.000000
      0.545805       0.692517       0.000000
      0.600000       0.700000       0.000000
      0.581017       0.756950       0.000000
      0.506084       0.750000       0.000000
      0.600000       0.700000       0.000000
      0.654195       0.692517       0.000000
      0.656527       0.750000       0.000000
      0.581017       0.756950       0.000000
      0.506084       0.750000       0.000000
      0.581017       0.756950       0.000000
      0.563060       0.810819       0.000000
      0.468251       0.804752       0.000000
      0.581017       0.756950       0.000000
      0.656527       0.750000       0.000000
      0.658747       0.804752       0.000000
      0.563060       0.810819       0.000000
      0.654195       0.692517       0.000000
      0.702631       0.671659       0.000000
      0.725999       0.730363       0.000000
      0.656527       0.750000       0.000000
      0.702631       0.671659       0.000000
      0.741421       0.641421       0.000000
      0.784518       0.701184       0.000000
      0.725999       0.730363       0.000000
      0.656527       0.750000       0.000000
      0.725999       0.730363       0.000000
      0.748697       0.787383       0.000000
      0.658747       0.804752       0.000000
      0.725999       0.730363       0.000000
      0.784518       0.701184       0.000000
      0.827614       0.760948       0.000000
      0.748697       0.787383       0.000000
      0.305719       0.760948       0.000000
      0.380813       0.787383       0.000000
      0.325006       0.842791       0.000000
      0.229289       0.820711       0.000000
      0.380813       0.787383       0.000000
      0.468251       0.804752       0.000000
      0.432173       0.856962       0.000000
      0.325006       0.842791       0.000000
      0.229289       0.820711       0.000000
      0.325006       0.842791       0.000000
      0.270755       0.896655       0.000000
      0.152860       0.880474       0.000000
      0.325006       0.842791       0.000000
      0.432173       0.856962       0.000000
      0.397732       0.906804       0.000000
      0.270755       0.896655       0.000000
      0.468251       0.804752       0.000000
      0.563060       0.810819       0.000000
      0.546050       0.861851       0.000000
      0.432173       0.856962       0.000000
      0.563060       0.810819       0.000000
      0.658747       0.804752       0.000000
      0.660865       0.856962       0.000000
      0.546050       0.861851       0.000000
      0.432173       0.856962       0.000000
      0.546050       0.861851       0.000000
      0.529912       0.910264       0.000000
      0.397732       0.906804       0.000000
      0.546050       0.861851       0.000000
      0.660865       0.856962       0.000000
      0.662887       0.906804       0.000000
      0.529912       0.910264       0.000000
      0.658747       0.804752       0.000000
      0.748697       0.787383       0.000000
      0.770753       0.842791       0.000000
      0.660865       0.856962       0.000000
      0.748697       0.787383       0.000000
      0.827614       0.760948       0.000000
      0.870711       0.820711       0.000000
      0.770753       0.842791       0.000000
      0.660865       0.856962       0.000000
      0.770753       0.842791       0.000000
      0.792195       0.896655       0.000000
      0.662887       0.906804       0.000000
      0.770753       0.842791       0.000000
      0.870711       0.820711       0.000000
      0.913807       0.880474       0.000000
      0.792195       0.896655       0.000000
      0.152860       0.880474       0.000000
      0.270755       0.896655       0.000000
      0.217995       0.949038       0.000000
      0.076430       0.940237       0.000000
      0.270755       0.896655       0.000000
      0.397732       0.906804       0.000000
      0.364819       0.954435       0.000000
      0.217995       0.949038       0.000000
      0.076430       0.940237       0.000000
      0.217995       0.949038       0.000000
      0.166667       1.000000       0.000000
      0.000000       1.000000       0.000000
      0.217995       0.949038       0.000000
      0.364819       0.954435       0.000000
      0.333333       1.000000       0.000000
      0.166667       1.000000       0.000000
      0.397732       0.906804       0.000000
      0.529912       0.910264       0.000000
      0.514582       0.956255       0.000000
      0.364819       0.954435       0.000000
      0.529912       0.910264       0.000000
      0.662887       0.906804       0.000000
      0.664819       0.954435       0.000000
      0.514582       0.956255       0.000000
      0.364819       0.954435       0.000000
      0.514582       0.956255       0.000000
      0.500000       1.000000       0.000000
      0.333333       1.000000       0.000000
      0.514582       0.956255       0.000000
      0.664819       0.954435       0.000000
      0.666667       1.000000       0.000000
      0.500000       1.000000       0.000000
      0.662887       0.906804       0.000000
      0.792195       0.896655       0.000000
      0.813047       0.949038       0.000000
      0.664819       0.954435       0.000000
      0.792195       0.896655       0.000000
      0.913807       0.880474       0.000000
      0.956904       0.940237       0.000000
      0.813047       0.949038       0.000000
      0.664819       0.954435       0.000000
      0.813047       0.949038       0.000000
      0.833333       1.000000       0.000000
      0.666667       1.000000       0.000000
      0.813047       0.949038       0.000000
      0.956904       0.940237       0.000000
      1.000000       1.000000       0.000000
      0.833333       1.000000       0.000000
      0.458579       0.358579       0.000000
      0.428341       0.397369       0.000000
      0.351758       0.356122       0.000000
      0.382149       0.298816       0.000000
      0.428341       0.397369       0.000000
      0.407483       0.445805       0.000000
      0.331305       0.424779       0.000000
      0.351758       0.356122       0.000000
      0.382149       0.298816       0.000000
      0.351758       0.356122       0.000000
      0.277372       0.316058       0.000000
      0.305719       0.239052       0.000000
      0.351758       0.356122       0.000000
      0.331305       0.424779       0.000000
      0.258747       0.404752       0.000000
      0.277372       0.316058       0.000000
      0.331305       0.424779       0.000000
      0.324066       0.500000       0.000000
      0.252241       0.500000       0.000000
      0.258747       0.404752       0.000000
      0.324066       0.500000       0.000000
      0.331305       0.575221       0.000000
      0.258747       0.595248       0.000000
      0.252241       0.500000       0.000000
      0.407483       0.554195       0.000000
      0.428341       0.602631       0.000000
      0.351758       0.643878       0.000000
      0.331305       0.575221       0.000000
      0.428341       0.602631       0.000000
      0.458579       0.641421       0.000000
      0.382149       0.701184       0.000000
      0.351758       0.643878       0.000000
      0.331305       0.575221       0.000000
      0.351758       0.643878       0.000000
      0.277372       0.683942       0.000000
      0.258747       0.595248       0.000000
      0.351758       0.643878       0.000000
      0.382149       0.701184       0.000000
      0.305719       0.760948       0.000000
      0.277372       0.683942       0.000000
      0.305719       0.239052       0.000000
      0.277372       0.316058       0.000000
      0.205089       0.277126       0.000000
      0.229289       0.179289       0.000000
      0.277372       0.316058       0.000000
      0.258747       0.404752       0.000000
      0.189557       0.385654       0.000000
      0.205089       0.277126       0.000000
      0.229289       0.179289       0.000000
      0.205089       0.277126       0.000000
      0.134820       0.239280       0.000000
      0.152860       0.119526       0.000000
      0.205089       0.277126       0.000000
      0.189557       0.385654       0.000000
      0.123505       0.367423       0.000000
      0.134820       0.239280       0.000000
      0.258747       0.404752       0.000000
      0.252241       0.500000       0.000000
      0.184198       0.500000       0.000000
      0.189557       0.385654       0.000000
      0.252241       0.500000       0.000000
      0.258747       0.595248       0.000000
      0.189557       0.614346       0.000000
      0.184198       0.500000       0.000000
      0.189557       0.385654       0.000000
      0.184198       0.500000       0.000000
      0.119648       0.500000       0.000000
      0.123505       0.367423       0.000000
      0.184198       0.500000       0.000000
      0.189557       0.614346       0.000000
      0.123505       0.632577       0.000000
      0.119648       0.500000       0.000000
      0.258747       0.595248       0.000000
      0.277372       0.683942       0.000000
      0.205089       0.722874       0.000000
      0.189557       0.614346       0.000000
[...]
POINT_DATA   912
VECTORS U float 
      0.000440       0.005708       0.000000
      0.000226       0.006092       0.000000
      0.000038       0.005796       0.000000
      0.000283       0.005296       0.000000
      0.000226       0.006092       0.000000
      0.000006       0.006349       0.000000
     -0.000121       0.006236       0.000000
      0.000038       0.005796       0.000000
      0.000283       0.005296       0.000000
      0.000038       0.005796       0.000000
      0.000058       0.005759       0.000000
      0.000350       0.005328       0.000000
      0.000038       0.005796       0.000000
     -0.000121       0.006236       0.000000
     -0.000140       0.006185       0.000000
      0.000058       0.005759       0.000000
      0.000006       0.006349       0.000000
     -0.000219       0.006455       0.000000
     -0.000206       0.006482       0.000000
     -0.000121       0.006236       0.000000
     -0.000219       0.006455       0.000000
     -0.000465       0.006404       0.000000
     -0.000289       0.006444       0.000000
     -0.000206       0.006482       0.000000
     -0.000121       0.006236       0.000000
     -0.000206       0.006482       0.000000
     -0.000206       0.006476       0.000000
     -0.000140       0.006185       0.000000
     -0.000206       0.006482       0.000000
     -0.000289       0.006444       0.000000
     -0.000216       0.006468       0.000000
     -0.000206       0.006476       0.000000
     -0.000465       0.006404       0.000000
     -0.000746       0.006198       0.000000
     -0.000438       0.006125       0.000000
     -0.000289       0.006444       0.000000
     -0.000746       0.006198       0.000000
     -0.001058       0.005851       0.000000
     -0.000700       0.005625       0.000000
     -0.000438       0.006125       0.000000
     -0.000289       0.006444       0.000000
     -0.000438       0.006125       0.000000
     -0.000309       0.006142       0.000000
     -0.000216       0.006468       0.000000
     -0.000438       0.006125       0.000000
     -0.000700       0.005625       0.000000
     -0.000549       0.005640       0.000000
     -0.000309       0.006142       0.000000
      0.000350       0.005328       0.000000
      0.000058       0.005759       0.000000
      0.000121       0.005870       0.000000
      0.000454       0.005537       0.000000
      0.000058       0.005759       0.000000
     -0.000140       0.006185       0.000000
     -0.000123       0.006218       0.000000
      0.000121       0.005870       0.000000
      0.000454       0.005537       0.000000
      0.000121       0.005870       0.000000
      0.000200       0.006070       0.000000
      0.000577       0.005834       0.000000
      0.000121       0.005870       0.000000
     -0.000123       0.006218       0.000000
     -0.000094       0.006314       0.000000
      0.000200       0.006070       0.000000
     -0.000140       0.006185       0.000000
     -0.000206       0.006476       0.000000
     -0.000201       0.006489       0.000000
     -0.000123       0.006218       0.000000
     -0.000206       0.006476       0.000000
     -0.000216       0.006468       0.000000
     -0.000177       0.006502       0.000000
     -0.000201       0.006489       0.000000
     -0.000123       0.006218       0.000000
     -0.000201       0.006489       0.000000
     -0.000196       0.006523       0.000000
     -0.000094       0.006314       0.000000
     -0.000201       0.006489       0.000000
     -0.000177       0.006502       0.000000
     -0.000154       0.006544       0.000000
     -0.000196       0.006523       0.000000
     -0.000216       0.006468       0.000000
     -0.000309       0.006142       0.000000
     -0.000239       0.006210       0.000000
     -0.000177       0.006502       0.000000
     -0.000309       0.006142       0.000000
     -0.000549       0.005640       0.000000
     -0.000467       0.005754       0.000000
     -0.000239       0.006210       0.000000
     -0.000177       0.006502       0.000000
     -0.000239       0.006210       0.000000
     -0.000201       0.006318       0.000000
     -0.000154       0.006544       0.000000
     -0.000239       0.006210       0.000000
     -0.000467       0.005754       0.000000
     -0.000444       0.005955       0.000000
     -0.000201       0.006318       0.000000
      0.000577       0.005834       0.000000
      0.000200       0.006070       0.000000
      0.000301       0.006332       0.000000
      0.000742       0.006195       0.000000
      0.000200       0.006070       0.000000
     -0.000094       0.006314       0.000000
     -0.000054       0.006458       0.000000
      0.000301       0.006332       0.000000
      0.000742       0.006195       0.000000
      0.000301       0.006332       0.000000
      0.000434       0.006642       0.000000
      0.000977       0.006642       0.000000
      0.000301       0.006332       0.000000
     -0.000054       0.006458       0.000000
     -0.000001       0.006642       0.000000
      0.000434       0.006642       0.000000
     -0.000094       0.006314       0.000000
     -0.000196       0.006523       0.000000
     -0.000192       0.006575       0.000000
     -0.000054       0.006458       0.000000
     -0.000196       0.006523       0.000000
     -0.000154       0.006544       0.000000
     -0.000142       0.006592       0.000000
     -0.000192       0.006575       0.000000
     -0.000054       0.006458       0.000000
     -0.000192       0.006575       0.000000
     -0.000190       0.006642       0.000000
     -0.000001       0.006642       0.000000
     -0.000192       0.006575       0.000000
     -0.000142       0.006592       0.000000
     -0.000137       0.006642       0.000000
     -0.000190       0.006642       0.000000
     -0.000154       0.006544       0.000000
     -0.000201       0.006318       0.000000
     -0.000190       0.006462       0.000000
     -0.000142       0.006592       0.000000
     -0.000201       0.006318       0.000000
     -0.000444       0.005955       0.000000
     -0.000484       0.006253       0.000000
     -0.000190       0.006462       0.000000
     -0.000142       0.006592       0.000000
     -0.000190       0.006462       0.000000
     -0.000203       0.006642       0.000000
     -0.000137       0.006642       0.000000
     -0.000190       0.006462       0.000000
     -0.000484       0.006253       0.000000
     -0.000587       0.006642       0.000000
     -0.000203       0.006642       0.000000
      0.000387       0.000806       0.000000
      0.000593       0.001308       0.000000
      0.000563       0.001761       0.000000
      0.000230       0.001198       0.000000
      0.000593       0.001308       0.000000
      0.000758       0.002035       0.000000
      0.000950       0.002453       0.000000
      0.000563       0.001761       0.000000
      0.000230       0.001198       0.000000
      0.000563       0.001761       0.000000
      0.000641       0.001792       0.000000
      0.000269       0.001160       0.000000
      0.000563       0.001761       0.000000
      0.000950       0.002453       0.000000
      0.001074       0.002531       0.000000
      0.000641       0.001792       0.000000
      0.000950       0.002453       0.000000
      0.001180       0.003245       0.000000
      0.001312       0.003255       0.000000
      0.001074       0.002531       0.000000
      0.001180       0.003245       0.000000
      0.000988       0.004034       0.000000
      0.001113       0.003970       0.000000
      0.001312       0.003255       0.000000
      0.000787       0.004440       0.000000
      0.000643       0.005184       0.000000
      0.000619       0.004723       0.000000
      0.000988       0.004034       0.000000
      0.000643       0.005184       0.000000
      0.000440       0.005708       0.000000
      0.000283       0.005296       0.000000
      0.000619       0.004723       0.000000
      0.000988       0.004034       0.000000
      0.000619       0.004723       0.000000
      0.000707       0.004696       0.000000
      0.001113       0.003970       0.000000
      0.000619       0.004723       0.000000
      0.000283       0.005296       0.000000
      0.000350       0.005328       0.000000
      0.000707       0.004696       0.000000
      0.000269       0.001160       0.000000
      0.000641       0.001792       0.000000
      0.000732       0.001686       0.000000
      0.000315       0.000956       0.000000
      0.000641       0.001792       0.000000
      0.001074       0.002531       0.000000
      0.001195       0.002501       0.000000
      0.000732       0.001686       0.000000
      0.000315       0.000956       0.000000
      0.000732       0.001686       0.000000
      0.000813       0.001558       0.000000
      0.000323       0.000685       0.000000
      0.000732       0.001686       0.000000
      0.001195       0.002501       0.000000
      0.001315       0.002459       0.000000
      0.000813       0.001558       0.000000
      0.001074       0.002531       0.000000
      0.001312       0.003255       0.000000
      0.001431       0.003266       0.000000
      0.001195       0.002501       0.000000
      0.001312       0.003255       0.000000
      0.001113       0.003970       0.000000
      0.001235       0.004022       0.000000
      0.001431       0.003266       0.000000
      0.001195       0.002501       0.000000
      0.001431       0.003266       0.000000
      0.001563       0.003279       0.000000
      0.001315       0.002459       0.000000
      0.001431       0.003266       0.000000
      0.001235       0.004022       0.000000
      0.001358       0.004094       0.000000
      0.001563       0.003279       0.000000
      0.001113       0.003970       0.000000
      0.000707       0.004696       0.000000
      0.000817       0.004816       0.000000
      0.001235       0.004022       0.000000
      0.000707       0.004696       0.000000
      0.000350       0.005328       0.000000
      0.000454       0.005537       0.000000
      0.000817       0.004816       0.000000
      0.001235       0.004022       0.000000
      0.000817       0.004816       0.000000
      0.000926       0.004977       0.000000
      0.001358       0.004094       0.000000
      0.000817       0.004816       0.000000
      0.000454       0.005537       0.000000
      0.000577       0.005834       0.000000
      0.000926       0.004977       0.000000
      0.000323       0.000685       0.000000
      0.000813       0.001558       0.000000
      0.000883       0.001462       0.000000
      0.000262       0.000378       0.000000
      0.000813       0.001558       0.000000
      0.001315       0.002459       0.000000
      0.001428       0.002448       0.000000
      0.000883       0.001462       0.000000
      0.000262       0.000378       0.000000
      0.000883       0.001462       0.000000
      0.000945       0.001419       0.000000
      0.000000       0.000000       0.000000
      0.000883       0.001462       0.000000
      0.001428       0.002448       0.000000
      0.001527       0.002494       0.000000
      0.000945       0.001419       0.000000
      0.001315       0.002459       0.000000
      0.001563       0.003279       0.000000
      0.001697       0.003292       0.000000
      0.001428       0.002448       0.000000
      0.001563       0.003279       0.000000
      0.001358       0.004094       0.000000
      0.001478       0.004141       0.000000
      0.001697       0.003292       0.000000
      0.001428       0.002448       0.000000
      0.001697       0.003292       0.000000
      0.001819       0.003303       0.000000
      0.001527       0.002494       0.000000
      0.001697       0.003292       0.000000
      0.001478       0.004141       0.000000
      0.001589       0.004128       0.000000
      0.001819       0.003303       0.000000
      0.001358       0.004094       0.000000
      0.000926       0.004977       0.000000
      0.001036       0.005134       0.000000
      0.001478       0.004141       0.000000
      0.000926       0.004977       0.000000
      0.000577       0.005834       0.000000
      0.000742       0.006195       0.000000
      0.001036       0.005134       0.000000
      0.001478       0.004141       0.000000
      0.001036       0.005134       0.000000
      0.001162       0.005274       0.000000
      0.001589       0.004128       0.000000
      0.001036       0.005134       0.000000
      0.000742       0.006195       0.000000
      0.000977       0.006642       0.000000
      0.001162       0.005274       0.000000
      0.000791       0.003907       0.000000
      0.000787       0.004440       0.000000
      0.000915       0.004182       0.000000
      0.001023       0.003747       0.000000
      0.001060       0.003238       0.000000
      0.001023       0.003747       0.000000
      0.001129       0.003648       0.000000
      0.001180       0.003245       0.000000
      0.001023       0.003747       0.000000
      0.000915       0.004182       0.000000
      0.000988       0.004034       0.000000
      0.001129       0.003648       0.000000
      0.000758       0.002035       0.000000
      0.000778       0.002556       0.000000
      0.001003       0.002731       0.000000
      0.000879       0.002300       0.000000
      0.000879       0.002300       0.000000
      0.001003       0.002731       0.000000
      0.001108       0.002841       0.000000
      0.000950       0.002453       0.000000
      0.001003       0.002731       0.000000
      0.001060       0.003238       0.000000
      0.001180       0.003245       0.000000
      0.001108       0.002841       0.000000
      0.000781       0.003588       0.000000
      0.000791       0.003907       0.000000
      0.000931       0.003822       0.000000
      0.000945       0.003543       0.000000
      0.000947       0.003233       0.000000
      0.000945       0.003543       0.000000
      0.001053       0.003501       0.000000
      0.001060       0.003238       0.000000
      0.000945       0.003543       0.000000
      0.000931       0.003822       0.000000
      0.001023       0.003747       0.000000
      0.001053       0.003501       0.000000
      0.000778       0.002556       0.000000
      0.000774       0.002870       0.000000
      0.000936       0.002925       0.000000
      0.000913       0.002649       0.000000
      0.000913       0.002649       0.000000
      0.000936       0.002925       0.000000
      0.001042       0.002975       0.000000
      0.001003       0.002731       0.000000
      0.000936       0.002925       0.000000
      0.000947       0.003233       0.000000
      0.001060       0.003238       0.000000
      0.001042       0.002975       0.000000
      0.000773       0.003228       0.000000
      0.000776       0.003413       0.000000
      0.000870       0.003402       0.000000
      0.000869       0.003230       0.000000
      0.000776       0.003413       0.000000
      0.000781       0.003588       0.000000
      0.000871       0.003565       0.000000
      0.000870       0.003402       0.000000
      0.000869       0.003230       0.000000
      0.000870       0.003402       0.000000
      0.000947       0.003392       0.000000
      0.000947       0.003233       0.000000
      0.000870       0.003402       0.000000
      0.000871       0.003565       0.000000
      0.000945       0.003543       0.000000
      0.000947       0.003392       0.000000
      0.000774       0.002870       0.000000
      0.000773       0.003043       0.000000
      0.000866       0.003059       0.000000
      0.000863       0.002898       0.000000
      0.000773       0.003043       0.000000
      0.000773       0.003228       0.000000
      0.000869       0.003230       0.000000
      0.000866       0.003059       0.000000
      0.000863       0.002898       0.000000
      0.000866       0.003059       0.000000
      0.000943       0.003075       0.000000
      0.000936       0.002925       0.000000
      0.000866       0.003059       0.000000
      0.000869       0.003230       0.000000
      0.000947       0.003233       0.000000
      0.000943       0.003075       0.000000
     -0.000994       0.000736       0.000000
     -0.000677       0.000391       0.000000
     -0.000360       0.000469       0.000000
     -0.000621       0.000969       0.000000
     -0.000677       0.000391       0.000000
     -0.000406       0.000188       0.000000
     -0.000226       0.000157       0.000000
     -0.000360       0.000469       0.000000
     -0.000621       0.000969       0.000000
     -0.000360       0.000469       0.000000
     -0.000206       0.000460       0.000000
     -0.000445       0.000963       0.000000
     -0.000360       0.000469       0.000000
     -0.000226       0.000157       0.000000
     -0.000134       0.000143       0.000000
     -0.000206       0.000460       0.000000
     -0.000406       0.000188       0.000000
     -0.000189       0.000134       0.000000
     -0.000169       0.000113       0.000000
     -0.000226       0.000157       0.000000
     -0.000189       0.000134       0.000000
     -0.000002       0.000222       0.000000
     -0.000116       0.000326       0.000000
     -0.000169       0.000113       0.000000
     -0.000226       0.000157       0.000000
     -0.000169       0.000113       0.000000
     -0.000156       0.000125       0.000000
     -0.000134       0.000143       0.000000
     -0.000169       0.000113       0.000000
     -0.000116       0.000326       0.000000
     -0.000137       0.000375       0.000000
     -0.000156       0.000125       0.000000
     -0.000002       0.000222       0.000000
      0.000187       0.000450       0.000000
      0.000009       0.000725       0.000000
     -0.000116       0.000326       0.000000
      0.000187       0.000450       0.000000
      0.000387       0.000806       0.000000
      0.000230       0.001198       0.000000
      0.000009       0.000725       0.000000
     -0.000116       0.000326       0.000000
      0.000009       0.000725       0.000000
      0.000010       0.000756       0.000000
     -0.000137       0.000375       0.000000
      0.000009       0.000725       0.000000
      0.000230       0.001198       0.000000
      0.000269       0.001160       0.000000
      0.000010       0.000756       0.000000
     -0.000445       0.000963       0.000000
     -0.000206       0.000460       0.000000
     -0.000105       0.000396       0.000000
     -0.000328       0.000853       0.000000
     -0.000206       0.000460       0.000000
     -0.000134       0.000143       0.000000
     -0.000072       0.000121       0.000000
     -0.000105       0.000396       0.000000
     -0.000328       0.000853       0.000000
     -0.000105       0.000396       0.000000
     -0.000035       0.000291       0.000000
     -0.000257       0.000655       0.000000
     -0.000105       0.000396       0.000000
     -0.000072       0.000121       0.000000
     -0.000028       0.000091       0.000000
     -0.000035       0.000291       0.000000
     -0.000134       0.000143       0.000000
     -0.000156       0.000125       0.000000
     -0.000137       0.000122       0.000000
     -0.000072       0.000121       0.000000
     -0.000156       0.000125       0.000000
     -0.000137       0.000375       0.000000
     -0.000124       0.000346       0.000000
     -0.000137       0.000122       0.000000
     -0.000072       0.000121       0.000000
     -0.000137       0.000122       0.000000
     -0.000109       0.000100       0.000000
     -0.000028       0.000091       0.000000
     -0.000137       0.000122       0.000000
     -0.000124       0.000346       0.000000
     -0.000096       0.000261       0.000000
     -0.000109       0.000100       0.000000
     -0.000137       0.000375       0.000000
      0.000010       0.000756       0.000000
      0.000038       0.000644       0.000000