# vtk DataFile Version 2.0
time_10.vtk
ASCII
DATASET UNSTRUCTURED_GRID
POINTS   576 float
      0.458579       0.641421       0.000000
      0.497369       0.671659       0.000000
      0.438243       0.730363       0.000000
      0.382149       0.701184       0.000000
      0.497369       0.671659       0.000000
      0.545805       0.692517       0.000000
      0.506084       0.750000       0.000000
      0.438243       0.730363       0.000000
      0.382149       0.701184       0.000000
      0.438243       0.730363       0.000000
      0.380813       0.787383       0.000000
      0.305719       0.760948       0.000000
      0.438243       0.730363       0.000000
      0.506084       0.750000       0.000000
      0.468251       0.804752       0.000000
      0.380813       0.787383       0.000000
      0.545805       0.692517       0.000000
      0.600000       0.700000       0.000000
      0.581017       0.756950       0.000000
      0.506084       0.750000       0.000000
      0.600000       0.700000       0.000000
      0.654195       0.692517       0.000000
      0.656527       0.750000       0.000000
      0.581017       0.756950       0.000000
      0.506084       0.750000       0.000000
      0.581017       0.756950       0.000000
      0.563060       0.810819       0.000000
      0.468251       0.804752       0.000000
      0.581017       0.756950       0.000000
      0.656527       0.750000       0.000000
      0.658747       0.804752       0.000000
      0.563060       0.810819       0.000000
      0.654195       0.692517       0.000000
      0.702631       0.671659       0.000000
      0.725999       0.730363       0.000000
      0.656527       0.750000       0.000000
      0.702631       0.671659       0.000000
      0.741421       0.641421       0.000000
      0.784518       0.701184       0.000000
      0.725999       0.730363       0.000000
      0.656527       0.750000       0.000000
      0.725999       0.730363       0.000000
      0.748697       0.787383       0.000000
      0.658747       0.804752       0.000000
      0.725999       0.730363       0.000000
      0.784518       0.701184       0.000000
      0.827614       0.760948       0.000000
      0.748697       0.787383       0.000000
      0.305719       0.760948       0.000000
      0.380813       0.787383       0.000000
      0.325006       0.842791       0.000000
      0.229289       0.820711       0.000000
      0.380813       0.787383       0.000000
      0.468251       0.804752       0.000000
      0.432173       0.856962       0.000000
      0.325006       0.842791       0.000000
      0.229289       0.820711       0.000000
      0.325006       0.842791       0.000000
      0.270755       0.896655       0.000000
      0.152860       0.880474       0.000000
      0.325006       0.842791       0.000000
      0.432173       0.856962       0.000000
      0.397732       0.906804       0.000000
      0.270755       0.896655       0.000000
      0.468251       0.804752       0.000000
      0.563060       0.810819       0.000000
      0.546050       0.861851       0.000000
      0.432173       0.856962       0.000000
      0.563060       0.810819       0.000000
      0.658747       0.804752       0.000000
      0.660865       0.856962       0.000000
      0.546050       0.861851       0.000000
      0.432173       0.856962       0.000000
      0.546050       0.861851       0.000000
      0.529912       0.910264       0.000000
      0.397732       0.906804       0.000000
      0.546050       0.861851       0.000000
      0.660865       0.856962       0.000000
      0.662887       0.906804       0.000000
      0.529912       0.910264       0.000000
      0.658747       0.804752       0.000000
      0.748697       0.787383       0.000000
      0.770753       0.842791       0.000000
      0.660865       0.856962       0.000000
      0.748697       0.787383       0.000000
      0.827614       0.760948       0.000000
      0.870711       0.820711       0.000000
      0.770753       0.842791       0.000000
      0.660865       0.856962       0.000000
      0.770753       0.842791       0.000000
      0.792195       0.896655       0.000000
      0.662887       0.906804       0.000000
      0.770753       0.842791       0.000000
      0.870711       0.820711       0.000000
      0.913807       0.880474       0.000000
      0.792195       0.896655       0.000000
      0.152860       0.880474       0.000000
      0.270755       0.896655       0.000000
      0.217995       0.949038       0.000000
      0.076430       0.940237       0.000000
      0.270755       0.896655       0.000000
      0.397732       0.906804       0.000000
      0.364819       0.954435       0.000000
      0.217995       0.949038       0.000000
      0.076430       0.940237       0.000000
      0.217995       0.949038       0.000000
      0.166667       1.000000       0.000000
      0.000000       1.000000       0.000000
      0.217995       0.949038       0.000000
      0.364819       0.954435       0.000000
      0.333333       1.000000       0.000000
      0.166667       1.000000       0.000000
      0.397732       0.906804       0.000000
      0.529912       0.910264       0.000000
      0.514582       0.956255       0.000000
      0.364819       0.954435       0.000000
      0.529912       0.910264       0.000000
      0.662887       0.906804       0.000000
      0.664819       0.954435       0.000000
      0.514582       0.956255       0.000000
      0.364819       0.954435       0.000000
      0.514582       0.956255       0.000000
      0.500000       1.000000       0.000000
      0.333333       1.000000       0.000000
      0.514582       0.956255       0.000000
      0.664819       0.954435       0.000000
      0.666667       1.000000       0.000000
      0.500000       1.000000       0.000000
      0.662887       0.906804       0.000000
      0.792195       0.896655       0.000000
      0.813047       0.949038       0.000000
      0.664819       0.954435       0.000000
      0.792195       0.896655       0.000000
      0.913807       0.880474       0.000000
      0.956904       0.940237       0.000000
      0.813047       0.949038       0.000000
      0.664819       0.954435       0.000000
      0.813047       0.949038       0.000000
      0.833333       1.000000       0.000000
      0.666667       1.000000       0.000000
      0.813047       0.949038       0.000000
      0.956904       0.940237       0.000000
      1.000000       1.000000       0.000000
      0.833333       1.000000       0.000000
      0.458579       0.358579       0.000000
      0.428341       0.397369       0.000000
      0.351758       0.356122       0.000000
      0.382149       0.298816       0.000000
      0.428341       0.397369       0.000000
      0.407483       0.445805       0.000000
      0.331305       0.424779       0.000000
      0.351758       0.356122       0.000000
      0.382149       0.298816       0.000000
      0.351758       0.356122       0.000000
      0.277372       0.316058       0.000000
      0.305719       0.239052       0.000000
      0.351758       0.356122       0.000000
      0.331305       0.424779       0.000000
      0.258747       0.404752       0.000000
      0.277372       0.316058       0.000000
      0.407483       0.445805       0.000000
      0.400000       0.500000       0.000000
      0.324066       0.500000       0.000000
      0.331305       0.424779       0.000000
      0.400000       0.500000       0.000000
      0.407483       0.554195       0.000000
      0.331305       0.575221       0.000000
      0.324066       0.500000       0.000000
      0.331305       0.424779       0.000000
      0.324066       0.500000       0.000000
      0.252241       0.500000       0.000000
      0.258747       0.404752       0.000000
      0.324066       0.500000       0.000000
      0.331305       0.575221       0.000000
      0.258747       0.595248       0.000000
      0.252241       0.500000       0.000000
      0.407483       0.554195       0.000000
      0.428341       0.602631       0.000000
      0.351758       0.643878       0.000000
      0.331305       0.575221       0.000000
      0.428341       0.602631       0.000000
      0.458579       0.641421       0.000000
      0.382149       0.701184       0.000000
      0.351758       0.643878       0.000000
      0.331305       0.575221       0.000000
      0.351758       0.643878       0.000000
      0.277372       0.683942       0.000000
      0.258747       0.595248       0.000000
      0.351758       0.643878       0.000000
      0.382149       0.701184       0.000000
      0.305719       0.760948       0.000000
      0.277372       0.683942       0.000000
      0.305719       0.239052       0.000000
      0.277372       0.316058       0.000000
      0.205089       0.277126       0.000000
      0.229289       0.179289       0.000000
      0.277372       0.316058       0.000000
      0.258747       0.404752       0.000000
      0.189557       0.385654       0.000000
      0.205089       0.277126       0.000000
      0.229289       0.179289       0.000000
      0.205089       0.277126       0.000000
      0.134820       0.239280       0.000000
      0.152860       0.119526       0.000000
      0.205089       0.277126       0.000000
      0.189557       0.385654       0.000000
      0.123505       0.367423       0.000000
      0.134820       0.239280       0.000000
      0.258747       0.404752       0.000000
      0.252241       0.500000       0.000000
      0.184198       0.500000       0.000000
      0.189557       0.385654       0.000000
      0.252241       0.500000       0.000000
      0.258747       0.595248       0.000000
      0.189557       0.614346       0.000000
      0.184198       0.500000       0.000000
      0.189557       0.385654       0.000000
      0.184198       0.500000       0.000000
      0.119648       0.500000       0.000000
      0.123505       0.367423       0.000000
[...]
POINT_DATA   576
VECTORS U float 
      0.000413       0.005357       0.000000
      0.000212       0.005730       0.000000
      0.000036       0.005447       0.000000
      0.000269       0.004970       0.000000
      0.000212       0.005730       0.000000
      0.000004       0.005979       0.000000
     -0.000117       0.005870       0.000000
      0.000036       0.005447       0.000000
      0.000269       0.004970       0.000000
      0.000036       0.005447       0.000000
      0.000059       0.005417       0.000000
      0.000338       0.005011       0.000000
      0.000036       0.005447       0.000000
     -0.000117       0.005870       0.000000
     -0.000133       0.005824       0.000000
      0.000059       0.005417       0.000000
      0.000004       0.005979       0.000000
     -0.000211       0.006081       0.000000
     -0.000199       0.006107       0.000000
     -0.000117       0.005870       0.000000
     -0.000211       0.006081       0.000000
     -0.000446       0.006029       0.000000
     -0.000277       0.006067       0.000000
     -0.000199       0.006107       0.000000
     -0.000117       0.005870       0.000000
     -0.000199       0.006107       0.000000
     -0.000198       0.006103       0.000000
     -0.000133       0.005824       0.000000
     -0.000199       0.006107       0.000000
     -0.000277       0.006067       0.000000
     -0.000208       0.006093       0.000000
     -0.000198       0.006103       0.000000
     -0.000446       0.006029       0.000000
     -0.000713       0.005824       0.000000
     -0.000420       0.005755       0.000000
     -0.000277       0.006067       0.000000
     -0.000713       0.005824       0.000000
     -0.001006       0.005482       0.000000
     -0.000672       0.005271       0.000000
     -0.000420       0.005755       0.000000
     -0.000277       0.006067       0.000000
     -0.000420       0.005755       0.000000
     -0.000300       0.005776       0.000000
     -0.000208       0.006093       0.000000
     -0.000420       0.005755       0.000000
     -0.000672       0.005271       0.000000
     -0.000535       0.005295       0.000000
     -0.000300       0.005776       0.000000
      0.000338       0.005011       0.000000
      0.000059       0.005417       0.000000
      0.000123       0.005529       0.000000
      0.000440       0.005218       0.000000
      0.000059       0.005417       0.000000
     -0.000133       0.005824       0.000000
     -0.000114       0.005859       0.000000
      0.000123       0.005529       0.000000
      0.000440       0.005218       0.000000
      0.000123       0.005529       0.000000
      0.000201       0.005724       0.000000
      0.000560       0.005506       0.000000
      0.000123       0.005529       0.000000
     -0.000114       0.005859       0.000000
     -0.000083       0.005953       0.000000
      0.000201       0.005724       0.000000
     -0.000133       0.005824       0.000000
     -0.000198       0.006103       0.000000
     -0.000192       0.006118       0.000000
     -0.000114       0.005859       0.000000
     -0.000198       0.006103       0.000000
     -0.000208       0.006093       0.000000
     -0.000172       0.006128       0.000000
     -0.000192       0.006118       0.000000
     -0.000114       0.005859       0.000000
     -0.000192       0.006118       0.000000
     -0.000186       0.006153       0.000000
     -0.000083       0.005953       0.000000
     -0.000192       0.006118       0.000000
     -0.000172       0.006128       0.000000
     -0.000150       0.006172       0.000000
     -0.000186       0.006153       0.000000
     -0.000208       0.006093       0.000000
     -0.000300       0.005776       0.000000
     -0.000236       0.005847       0.000000
     -0.000172       0.006128       0.000000
     -0.000300       0.005776       0.000000
     -0.000535       0.005295       0.000000
     -0.000460       0.005414       0.000000
     -0.000236       0.005847       0.000000
     -0.000172       0.006128       0.000000
     -0.000236       0.005847       0.000000
     -0.000202       0.005955       0.000000
     -0.000150       0.006172       0.000000
     -0.000236       0.005847       0.000000
     -0.000460       0.005414       0.000000
     -0.000439       0.005612       0.000000
     -0.000202       0.005955       0.000000
      0.000560       0.005506       0.000000
      0.000201       0.005724       0.000000
      0.000300       0.005976       0.000000
      0.000718       0.005851       0.000000
      0.000201       0.005724       0.000000
     -0.000083       0.005953       0.000000
     -0.000044       0.006094       0.000000
      0.000300       0.005976       0.000000
      0.000718       0.005851       0.000000
      0.000300       0.005976       0.000000
      0.000427       0.006272       0.000000
      0.000939       0.006272       0.000000
      0.000300       0.005976       0.000000
     -0.000044       0.006094       0.000000
      0.000009       0.006272       0.000000
      0.000427       0.006272       0.000000
     -0.000083       0.005953       0.000000
     -0.000186       0.006153       0.000000
     -0.000181       0.006205       0.000000
     -0.000044       0.006094       0.000000
     -0.000186       0.006153       0.000000
     -0.000150       0.006172       0.000000
     -0.000139       0.006221       0.000000
     -0.000181       0.006205       0.000000
     -0.000044       0.006094       0.000000
     -0.000181       0.006205       0.000000
     -0.000178       0.006272       0.000000
      0.000009       0.006272       0.000000
     -0.000181       0.006205       0.000000
     -0.000139       0.006221       0.000000
     -0.000135       0.006272       0.000000
     -0.000178       0.006272       0.000000
     -0.000150       0.006172       0.000000
     -0.000202       0.005955       0.000000
     -0.000191       0.006096       0.000000
     -0.000139       0.006221       0.000000
     -0.000202       0.005955       0.000000
     -0.000439       0.005612       0.000000
     -0.000477       0.005898       0.000000
     -0.000191       0.006096       0.000000
     -0.000139       0.006221       0.000000
     -0.000191       0.006096       0.000000
     -0.000205       0.006272       0.000000
     -0.000135       0.006272       0.000000
     -0.000191       0.006096       0.000000
     -0.000477       0.005898       0.000000
     -0.000576       0.006272       0.000000
     -0.000205       0.006272       0.000000
      0.000361       0.000789       0.000000
      0.000552       0.001278       0.000000
      0.000532       0.001697       0.000000
      0.000217       0.001159       0.000000
      0.000552       0.001278       0.000000
      0.000701       0.001987       0.000000
      0.000889       0.002346       0.000000
      0.000532       0.001697       0.000000
      0.000217       0.001159       0.000000
      0.000532       0.001697       0.000000
      0.000606       0.001710       0.000000
      0.000257       0.001114       0.000000
      0.000532       0.001697       0.000000
      0.000889       0.002346       0.000000
      0.001004       0.002399       0.000000
      0.000606       0.001710       0.000000
      0.000701       0.001987       0.000000
      0.000734       0.003048       0.000000
      0.001087       0.003063       0.000000
      0.000889       0.002346       0.000000
      0.000734       0.003048       0.000000
      0.000729       0.004122       0.000000
      0.000925       0.003777       0.000000
      0.001087       0.003063       0.000000
      0.000889       0.002346       0.000000
      0.001087       0.003063       0.000000
      0.001214       0.003073       0.000000
      0.001004       0.002399       0.000000
      0.001087       0.003063       0.000000
      0.000925       0.003777       0.000000
      0.001041       0.003739       0.000000
      0.001214       0.003073       0.000000
      0.000729       0.004122       0.000000
      0.000600       0.004847       0.000000
      0.000586       0.004423       0.000000
      0.000925       0.003777       0.000000
      0.000600       0.004847       0.000000
      0.000413       0.005357       0.000000
      0.000269       0.004970       0.000000
      0.000586       0.004423       0.000000
      0.000925       0.003777       0.000000
      0.000586       0.004423       0.000000
      0.000672       0.004415       0.000000
      0.001041       0.003739       0.000000
      0.000586       0.004423       0.000000
      0.000269       0.004970       0.000000
      0.000338       0.005011       0.000000
      0.000672       0.004415       0.000000
      0.000257       0.001114       0.000000
      0.000606       0.001710       0.000000
      0.000692       0.001602       0.000000
      0.000302       0.000913       0.000000
      0.000606       0.001710       0.000000
      0.001004       0.002399       0.000000
      0.001117       0.002364       0.000000
      0.000692       0.001602       0.000000
      0.000302       0.000913       0.000000
      0.000692       0.001602       0.000000
      0.000769       0.001474       0.000000
      0.000310       0.000651       0.000000
      0.000692       0.001602       0.000000
      0.001117       0.002364       0.000000
      0.001231       0.002322       0.000000
      0.000769       0.001474       0.000000
      0.001004       0.002399       0.000000
      0.001214       0.003073       0.000000
      0.001331       0.003085       0.000000
      0.001117       0.002364       0.000000
      0.001214       0.003073       0.000000
      0.001041       0.003739       0.000000
      0.001157       0.003796       0.000000
      0.001331       0.003085       0.000000
      0.001117       0.002364       0.000000
      0.001331       0.003085       0.000000
      0.001457       0.003098       0.000000
      0.001231       0.002322       0.000000
      0.001331       0.003085       0.000000
      0.001157       0.003796       0.000000
      0.001274       0.003868       0.000000
      0.001457       0.003098       0.000000
      0.001041       0.003739       0.000000
      0.000672       0.004415       0.000000
      0.000776       0.004539       0.000000
      0.001157       0.003796       0.000000
      0.000672       0.004415       0.000000
      0.000338       0.005011       0.000000
      0.000440       0.005218       0.000000
      0.000776       0.004539       0.000000
      0.001157       0.003796       0.000000
      0.000776       0.004539       0.000000
      0.000881       0.004699       0.000000
      0.001274       0.003868       0.000000
      0.000776       0.004539       0.000000
      0.000440       0.005218       0.000000
      0.000560       0.005506       0.000000
      0.000881       0.004699       0.000000
      0.000310       0.000651       0.000000
      0.000769       0.001474       0.000000
      0.000836       0.001379       0.000000
      0.000251       0.000358       0.000000
      0.000769       0.001474       0.000000
      0.001231       0.002322       0.000000
      0.001339       0.002308       0.000000
      0.000836       0.001379       0.000000
      0.000251       0.000358       0.000000
      0.000836       0.001379       0.000000
      0.000895       0.001335       0.000000
      0.000000       0.000000       0.000000
      0.000836       0.001379       0.000000
      0.001339       0.002308       0.000000
      0.001434       0.002347       0.000000
      0.000895       0.001335       0.000000
      0.001231       0.002322       0.000000
      0.001457       0.003098       0.000000
      0.001586       0.003111       0.000000
      0.001339       0.002308       0.000000
      0.001457       0.003098       0.000000
      0.001274       0.003868       0.000000
      0.001389       0.003917       0.000000
      0.001586       0.003111       0.000000
      0.001339       0.002308       0.000000
      0.001586       0.003111       0.000000
      0.001703       0.003121       0.000000
      0.001434       0.002347       0.000000
      0.001586       0.003111       0.000000
      0.001389       0.003917       0.000000
      0.001496       0.003911       0.000000
      0.001703       0.003121       0.000000
      0.001274       0.003868       0.000000
      0.000881       0.004699       0.000000
      0.000987       0.004853       0.000000
      0.001389       0.003917       0.000000
      0.000881       0.004699       0.000000
      0.000560       0.005506       0.000000
      0.000718       0.005851       0.000000
      0.000987       0.004853       0.000000
      0.001389       0.003917       0.000000
      0.000987       0.004853       0.000000
      0.001109       0.004990       0.000000
      0.001496       0.003911       0.000000
      0.000987       0.004853       0.000000
      0.000718       0.005851       0.000000
      0.000939       0.006272       0.000000
      0.001109       0.004990       0.000000
     -0.000945       0.000734       0.000000
     -0.000647       0.000393       0.000000
     -0.000345       0.000469       0.000000
     -0.000596       0.000954       0.000000
     -0.000647       0.000393       0.000000
     -0.000390       0.000192       0.000000
     -0.000217       0.000162       0.000000
     -0.000345       0.000469       0.000000
     -0.000596       0.000954       0.000000
     -0.000345       0.000469       0.000000
     -0.000200       0.000455       0.000000
     -0.000433       0.000938       0.000000
     -0.000345       0.000469       0.000000
     -0.000217       0.000162       0.000000
     -0.000129       0.000146       0.000000
     -0.000200       0.000455       0.000000
     -0.000390       0.000192       0.000000
     -0.000184       0.000137       0.000000
     -0.000163       0.000117       0.000000
     -0.000217       0.000162       0.000000
     -0.000184       0.000137       0.000000
     -0.000005       0.000221       0.000000
     -0.000114       0.000322       0.000000
     -0.000163       0.000117       0.000000
     -0.000217       0.000162       0.000000
     -0.000163       0.000117       0.000000
     -0.000151       0.000127       0.000000
     -0.000129       0.000146       0.000000
     -0.000163       0.000117       0.000000
     -0.000114       0.000322       0.000000
     -0.000132       0.000367       0.000000
     -0.000151       0.000127       0.000000
     -0.000005       0.000221       0.000000
      0.000174       0.000443       0.000000
      0.000005       0.000706       0.000000
     -0.000114       0.000322       0.000000
      0.000174       0.000443       0.000000
      0.000361       0.000789       0.000000
      0.000217       0.001159       0.000000
      0.000005       0.000706       0.000000
     -0.000114       0.000322       0.000000
      0.000005       0.000706       0.000000
      0.000010       0.000732       0.000000
     -0.000132       0.000367       0.000000
      0.000005       0.000706       0.000000
      0.000217       0.001159       0.000000
      0.000257       0.001114       0.000000
      0.000010       0.000732       0.000000
     -0.000433       0.000938       0.000000
     -0.000200       0.000455       0.000000
     -0.000105       0.000389       0.000000
     -0.000324       0.000824       0.000000
     -0.000200       0.000455       0.000000
     -0.000129       0.000146       0.000000
     -0.000070       0.000123       0.000000
     -0.000105       0.000389       0.000000
     -0.000324       0.000824       0.000000
     -0.000105       0.000389       0.000000
     -0.000037       0.000285       0.000000
     -0.000254       0.000631       0.000000
     -0.000105       0.000389       0.000000
     -0.000070       0.000123       0.000000
     -0.000028       0.000091       0.000000
     -0.000037       0.000285       0.000000
     -0.000129       0.000146       0.000000
     -0.000151       0.000127       0.000000
     -0.000131       0.000122       0.000000
     -0.000070       0.000123       0.000000
     -0.000151       0.000127       0.000000
     -0.000132       0.000367       0.000000
     -0.000118       0.000337       0.000000
     -0.000131       0.000122       0.000000
     -0.000070       0.000123       0.000000
     -0.000131       0.000122       0.000000
     -0.000104       0.000099       0.000000
     -0.000028       0.000091       0.000000
     -0.000131       0.000122       0.000000
     -0.000118       0.000337       0.000000
     -0.000091       0.000253       0.000000
     -0.000104       0.000099       0.000000
     -0.000132       0.000367       0.000000
      0.000010       0.000732       0.000000
      0.000038       0.000621       0.000000
     -0.000118       0.000337       0.000000
      0.000010       0.000732       0.000000
      0.000257       0.001114       0.000000
      0.000302       0.000913       0.000000
      0.000038       0.000621       0.000000
     -0.000118       0.000337       0.000000
      0.000038       0.000621       0.000000
      0.000057       0.000437       0.000000
     -0.000091       0.000253       0.000000
      0.000038       0.000621       0.000000
      0.000302       0.000913       0.000000
      0.000310       0.000651       0.000000
      0.000057       0.000437       0.000000
     -0.000254       0.000631       0.000000
     -0.000037       0.000285       0.000000
      0.000000       0.000151       0.000000
     -0.000196       0.000353       0.000000
     -0.000037       0.000285       0.000000
     -0.000028       0.000091       0.000000
     -0.000003       0.000051       0.000000
      0.000000       0.000151       0.000000
     -0.000196       0.000353       0.000000
      0.000000       0.000151       0.000000
      0.000000       0.000000       0.000000
      0.000000       0.000000       0.000000
      0.000000       0.000151       0.000000
     -0.000003       0.000051       0.000000
      0.000000       0.000000       0.000000
      0.000000       0.000000       0.000000
     -0.000028       0.000091       0.000000
     -0.000104       0.000099       0.000000
     -0.000064       0.000058       0.000000
     -0.000003       0.000051       0.000000
     -0.000104       0.000099       0.000000
     -0.000091       0.000253       0.000000
     -0.000051       0.000134       0.000000
     -0.000064       0.000058       0.000000
     -0.000003       0.000051       0.000000
     -0.000064       0.000058       0.000000
      0.000000       0.000000       0.000000
      0.000000       0.000000       0.000000
     -0.000064       0.000058       0.000000
     -0.000051       0.000134       0.000000
      0.000000       0.000000       0.000000
      0.000000       0.000000       0.000000
     -0.000091       0.000253       0.000000
      0.000057       0.000437       0.000000
      0.000049       0.000221       0.000000
     -0.000051       0.000134       0.000000
      0.000057       0.000437       0.000000
      0.000310       0.000651       0.000000
      0.000251       0.000358       0.000000
      0.000049       0.000221       0.000000
     -0.000051       0.000134       0.000000
      0.000049       0.000221       0.000000
      0.000000       0.000000       0.000000
      0.000000       0.000000       0.000000
      0.000049       0.000221       0.000000
      0.000251       0.000358       0.000000
      0.000000       0.000000       0.000000
      0.000000       0.000000       0.000000
     -0.000945       0.000734       0.000000
     -0.001275       0.001231       0.000000
     -0.001044       0.001484       0.000000
     -0.000596       0.000954       0.000000
     -0.001275       0.001231       0.000000
     -0.001568       0.001957       0.000000
     -0.001601       0.002166       0.000000
     -0.001044       0.001484       0.000000
     -0.000596       0.000954       0.000000
     -0.001044       0.001484       0.000000
     -0.000906       0.001521       0.000000