# vtk DataFile Version 2.0
time_10.vtk
ASCII
DATASET UNSTRUCTURED_GRID
POINTS   576 float
      0.458579       0.641421       0.000000
      0.497369       0.671659       0.000000
      0.438243       0.730363       0.000000
      0.382149       0.701184       0.000000
      0.497369       0.671659       0.000000
      0.545805       0.692517       0.000000
      0.506084       0.750000       0.000000
      0.438243       0.730363       0.000000
      0.382149       0.701184       0.000000
      0.438243       0.730363       0.000000
      0.380813       0.787383       0.000000
      0.305719       0.760948       0.000000
      0.438243       0.730363       0.000000
      0.506084       0.750000       0.000000
      0.468251       0.804752       0.000000
      0.380813       0.787383       0.000000
      0.545805       0.692517       0.000000
      0.600000       0.700000       0.000000
      0.581017       0.756950       0.000000
      0.506084       0.750000       0.000000
      0.600000       0.700000       0.000000
      0.654195       0.692517       0.000000
      0.656527       0.750000       0.000000
      0.581017       0.756950       0.000000
      0.506084       0.750000       0.000000
      0.581017       0.756950       0.000000
      0.563060       0.810819       0.000000
      0.468251       0.804752       0.000000
      0.581017       0.756950       0.000000
      0.656527       0.750000       0.000000
      0.658747       0.804752       0.000000
      0.563060       0.810819       0.000000
      0.654195       0.692517       0.000000
      0.702631       0.671659       0.000000
      0.725999       0.730363       0.000000
      0.656527       0.750000       0.000000
      0.702631       0.671659       0.000000
      0.741421       0.641421       0.000000
      0.784518       0.701184       0.000000
      0.725999       0.730363       0.000000
      0.656527       0.750000       0.000000
      0.725999       0.730363       0.000000
      0.748697       0.787383       0.000000
      0.658747       0.804752       0.000000
      0.725999       0.730363       0.000000
      0.784518       0.701184       0.000000
      0.827614       0.760948       0.000000
      0.748697       0.787383       0.000000
      0.305719       0.760948       0.000000
      0.380813       0.787383       0.000000
      0.325006       0.842791       0.000000
      0.229289       0.820711       0.000000
      0.380813       0.787383       0.000000
      0.468251       0.804752       0.000000
      0.432173       0.856962       0.000000
      0.325006       0.842791       0.000000
      0.229289       0.820711       0.000000
      0.325006       0.842791       0.000000
      0.270755       0.896655       0.000000
      0.152860       0.880474       0.000000
      0.325006       0.842791       0.000000
      0.432173       0.856962       0.000000
      0.397732       0.906804       0.000000
      0.270755       0.896655       0.000000
      0.468251       0.804752       0.000000
      0.563060       0.810819       0.000000
      0.546050       0.861851       0.000000
      0.432173       0.856962       0.000000
      0.563060       0.810819       0.000000
      0.658747       0.804752       0.000000
      0.660865       0.856962       0.000000
      0.546050       0.861851       0.000000
      0.432173       0.856962       0.000000
      0.546050       0.861851       0.000000
      0.529912       0.910264       0.000000
      0.397732       0.906804       0.000000
      0.546050       0.861851       0.000000
      0.660865       0.856962       0.000000
      0.662887       0.906804       0.000000
      0.529912       0.910264       0.000000
      0.658747       0.804752       0.000000
      0.748697       0.787383       0.000000
      0.770753       0.842791       0.000000
      0.660865       0.856962       0.000000
      0.748697       0.787383       0.000000
      0.827614       0.760948       0.000000
      0.870711       0.820711       0.000000
      0.770753       0.842791       0.000000
      0.660865       0.856962       0.000000
      0.770753       0.842791       0.000000
      0.792195       0.896655       0.000000
      0.662887       0.906804       0.000000
      0.770753       0.842791       0.000000
      0.870711       0.820711       0.000000
      0.913807       0.880474       0.000000
      0.792195       0.896655       0.000000
      0.152860       0.880474       0.000000
      0.270755       0.896655       0.000000
      0.217995       0.949038       0.000000
      0.076430       0.940237       0.000000
      0.270755       0.896655       0.000000
      0.397732       0.906804       0.000000
      0.364819       0.954435       0.000000
      0.217995       0.949038       0.000000
      0.076430       0.940237       0.000000
      0.217995       0.949038       0.000000
      0.166667       1.000000       0.000000
      0.000000       1.000000       0.000000
      0.217995       0.949038       0.000000
      0.364819       0.954435       0.000000
      0.333333       1.000000       0.000000
      0.166667       1.000000       0.000000
      0.397732       0.906804       0.000000
      0.529912       0.910264       0.000000
      0.514582       0.956255       0.000000
      0.364819       0.954435       0.000000
      0.529912       0.910264       0.000000
      0.662887       0.906804       0.000000
      0.664819       0.954435       0.000000
      0.514582       0.956255       0.000000
      0.364819       0.954435       0.000000
      0.514582       0.956255       0.000000
      0.500000       1.000000       0.000000
      0.333333       1.000000       0.000000
      0.514582       0.956255       0.000000
      0.664819       0.954435       0.000000
      0.666667       1.000000       0.000000
      0.500000       1.000000       0.000000
      0.662887       0.906804       0.000000
      0.792195       0.896655       0.000000
      0.813047       0.949038       0.000000
      0.664819       0.954435       0.000000
      0.792195       0.896655       0.000000
      0.913807       0.880474       0.000000
      0.956904       0.940237       0.000000
      0.813047       0.949038       0.000000
      0.664819       0.954435       0.000000
      0.813047       0.949038       0.000000
      0.833333       1.000000       0.000000
      0.666667       1.000000       0.000000
      0.813047       0.949038       0.000000
      0.956904       0.940237       0.000000
      1.000000       1.000000       0.000000
      0.833333       1.000000       0.000000
      0.458579       0.358579       0.000000
      0.428341       0.397369       0.000000
      0.351758       0.356122       0.000000
      0.382149       0.298816       0.000000
      0.428341       0.397369       0.000000
      0.407483       0.445805       0.000000
      0.331305       0.424779       0.000000
      0.351758       0.356122       0.000000
      0.382149       0.298816       0.000000
      0.351758       0.356122       0.000000
      0.277372       0.316058       0.000000
      0.305719       0.239052       0.000000
      0.351758       0.356122       0.000000
      0.331305       0.424779       0.000000
      0.258747       0.404752       0.000000
      0.277372       0.316058       0.000000
      0.407483       0.445805       0.000000
      0.400000       0.500000       0.000000
      0.324066       0.500000       0.000000
      0.331305       0.424779       0.000000
      0.400000       0.500000       0.000000
      0.407483       0.554195       0.000000
      0.331305       0.575221       0.000000
      0.324066       0.500000       0.000000
      0.331305       0.424779       0.000000
      0.324066       0.500000       0.000000
      0.252241       0.500000       0.000000
      0.258747       0.404752       0.000000
      0.324066       0.500000       0.000000
      0.331305       0.575221       0.000000
      0.258747       0.595248       0.000000
      0.252241       0.500000       0.000000
      0.407483       0.554195       0.000000
      0.428341       0.602631       0.000000
      0.351758       0.643878       0.000000
      0.331305       0.575221       0.000000
      0.428341       0.602631       0.000000
      0.458579       0.641421       0.000000
      0.382149       0.701184       0.000000
      0.351758       0.643878       0.000000
      0.331305       0.575221       0.000000
      0.351758       0.643878       0.000000
      0.277372       0.683942       0.000000
      0.258747       0.595248       0.000000
      0.351758       0.643878       0.000000
      0.382149       0.701184       0.000000
      0.305719       0.760948       0.000000
      0.277372       0.683942       0.000000
      0.305719       0.239052       0.000000
      0.277372       0.316058       0.000000
      0.205089       0.277126       0.000000
      0.229289       0.179289       0.000000
      0.277372       0.316058       0.000000
      0.258747       0.404752       0.000000
      0.189557       0.385654       0.000000
      0.205089       0.277126       0.000000
      0.229289       0.179289       0.000000
      0.205089       0.277126       0.000000
      0.134820       0.239280       0.000000
      0.152860       0.119526       0.000000
      0.205089       0.277126       0.000000
      0.189557       0.385654       0.000000
      0.123505       0.367423       0.000000
      0.134820       0.239280       0.000000
      0.258747       0.404752       0.000000
      0.252241       0.500000       0.000000
      0.184198       0.500000       0.000000
      0.189557       0.385654       0.000000
      0.252241       0.500000       0.000000
      0.258747       0.595248       0.000000
      0.189557       0.614346       0.000000
      0.184198       0.500000       0.000000
      0.189557       0.385654       0.000000
      0.184198       0.500000       0.000000
      0.119648       0.500000       0.000000
      0.123505       0.367423       0.000000
[...]
POINT_DATA   576
VECTORS U float 
      0.000125       0.001659       0.000000
      0.000065       0.001792       0.000000
      0.000010       0.001697       0.000000
      0.000087       0.001539       0.000000
      0.000065       0.001792       0.000000
     -0.000002       0.001882       0.000000
     -0.000043       0.001844       0.000000
      0.000010       0.001697       0.000000
      0.000087       0.001539       0.000000
      0.000010       0.001697       0.000000
      0.000024       0.001695       0.000000
      0.000115       0.001570       0.000000
      0.000010       0.001697       0.000000
     -0.000043       0.001844       0.000000
     -0.000044       0.001831       0.000000
      0.000024       0.001695       0.000000
     -0.000002       0.001882       0.000000
     -0.000074       0.001919       0.000000
     -0.000070       0.001928       0.000000
     -0.000043       0.001844       0.000000
     -0.000074       0.001919       0.000000
     -0.000152       0.001899       0.000000
     -0.000096       0.001912       0.000000
     -0.000070       0.001928       0.000000
     -0.000043       0.001844       0.000000
     -0.000070       0.001928       0.000000
     -0.000069       0.001928       0.000000
     -0.000044       0.001831       0.000000
     -0.000070       0.001928       0.000000
     -0.000096       0.001912       0.000000
     -0.000074       0.001924       0.000000
     -0.000069       0.001928       0.000000
     -0.000152       0.001899       0.000000
     -0.000239       0.001823       0.000000
     -0.000144       0.001801       0.000000
     -0.000096       0.001912       0.000000
     -0.000239       0.001823       0.000000
     -0.000328       0.001698       0.000000
     -0.000228       0.001634       0.000000
     -0.000144       0.001801       0.000000
     -0.000096       0.001912       0.000000
     -0.000144       0.001801       0.000000
     -0.000108       0.001813       0.000000
     -0.000074       0.001924       0.000000
     -0.000144       0.001801       0.000000
     -0.000228       0.001634       0.000000
     -0.000190       0.001654       0.000000
     -0.000108       0.001813       0.000000
      0.000115       0.001570       0.000000
      0.000024       0.001695       0.000000
      0.000050       0.001741       0.000000
      0.000154       0.001651       0.000000
      0.000024       0.001695       0.000000
     -0.000044       0.001831       0.000000
     -0.000034       0.001847       0.000000
      0.000050       0.001741       0.000000
      0.000154       0.001651       0.000000
      0.000050       0.001741       0.000000
      0.000081       0.001813       0.000000
      0.000198       0.001754       0.000000
      0.000050       0.001741       0.000000
     -0.000034       0.001847       0.000000
     -0.000020       0.001884       0.000000
      0.000081       0.001813       0.000000
     -0.000044       0.001831       0.000000
     -0.000069       0.001928       0.000000
     -0.000066       0.001936       0.000000
     -0.000034       0.001847       0.000000
     -0.000069       0.001928       0.000000
     -0.000074       0.001924       0.000000
     -0.000063       0.001939       0.000000
     -0.000066       0.001936       0.000000
     -0.000034       0.001847       0.000000
     -0.000066       0.001936       0.000000
     -0.000063       0.001952       0.000000
     -0.000020       0.001884       0.000000
     -0.000066       0.001936       0.000000
     -0.000063       0.001939       0.000000
     -0.000057       0.001958       0.000000
     -0.000063       0.001952       0.000000
     -0.000074       0.001924       0.000000
     -0.000108       0.001813       0.000000
     -0.000091       0.001843       0.000000
     -0.000063       0.001939       0.000000
     -0.000108       0.001813       0.000000
     -0.000190       0.001654       0.000000
     -0.000171       0.001704       0.000000
     -0.000091       0.001843       0.000000
     -0.000063       0.001939       0.000000
     -0.000091       0.001843       0.000000
     -0.000082       0.001885       0.000000
     -0.000057       0.001958       0.000000
     -0.000091       0.001843       0.000000
     -0.000171       0.001704       0.000000
     -0.000166       0.001777       0.000000
     -0.000082       0.001885       0.000000
      0.000198       0.001754       0.000000
      0.000081       0.001813       0.000000
      0.000117       0.001902       0.000000
      0.000252       0.001869       0.000000
      0.000081       0.001813       0.000000
     -0.000020       0.001884       0.000000
     -0.000004       0.001936       0.000000
      0.000117       0.001902       0.000000
      0.000252       0.001869       0.000000
      0.000117       0.001902       0.000000
      0.000160       0.002000       0.000000
      0.000321       0.002000       0.000000
      0.000117       0.001902       0.000000
     -0.000004       0.001936       0.000000
      0.000016       0.002000       0.000000
      0.000160       0.002000       0.000000
     -0.000020       0.001884       0.000000
     -0.000063       0.001952       0.000000
     -0.000060       0.001973       0.000000
     -0.000004       0.001936       0.000000
     -0.000063       0.001952       0.000000
     -0.000057       0.001958       0.000000
     -0.000054       0.001979       0.000000
     -0.000060       0.001973       0.000000
     -0.000004       0.001936       0.000000
     -0.000060       0.001973       0.000000
     -0.000058       0.002000       0.000000
      0.000016       0.002000       0.000000
     -0.000060       0.001973       0.000000
     -0.000054       0.001979       0.000000
     -0.000052       0.002000       0.000000
     -0.000058       0.002000       0.000000
     -0.000057       0.001958       0.000000
     -0.000082       0.001885       0.000000
     -0.000080       0.001937       0.000000
     -0.000054       0.001979       0.000000
     -0.000082       0.001885       0.000000
     -0.000166       0.001777       0.000000
     -0.000180       0.001875       0.000000
     -0.000080       0.001937       0.000000
     -0.000054       0.001979       0.000000
     -0.000080       0.001937       0.000000
     -0.000085       0.002000       0.000000
     -0.000052       0.002000       0.000000
     -0.000080       0.001937       0.000000
     -0.000180       0.001875       0.000000
     -0.000213       0.002000       0.000000
     -0.000085       0.002000       0.000000
      0.000107       0.000296       0.000000
      0.000161       0.000469       0.000000
      0.000164       0.000586       0.000000
      0.000067       0.000413       0.000000
      0.000161       0.000469       0.000000
      0.000206       0.000701       0.000000
      0.000264       0.000779       0.000000
      0.000164       0.000586       0.000000
      0.000067       0.000413       0.000000
      0.000164       0.000586       0.000000
      0.000189       0.000570       0.000000
      0.000084       0.000384       0.000000
      0.000164       0.000586       0.000000
      0.000264       0.000779       0.000000
      0.000300       0.000777       0.000000
      0.000189       0.000570       0.000000
      0.000206       0.000701       0.000000
      0.000226       0.000972       0.000000
      0.000313       0.000977       0.000000
      0.000264       0.000779       0.000000
      0.000226       0.000972       0.000000
      0.000215       0.001245       0.000000
      0.000276       0.001173       0.000000
      0.000313       0.000977       0.000000
      0.000264       0.000779       0.000000
      0.000313       0.000977       0.000000
      0.000354       0.000980       0.000000
      0.000300       0.000777       0.000000
      0.000313       0.000977       0.000000
      0.000276       0.001173       0.000000
      0.000313       0.001182       0.000000
      0.000354       0.000980       0.000000
      0.000215       0.001245       0.000000
      0.000178       0.001479       0.000000
      0.000184       0.001365       0.000000
      0.000276       0.001173       0.000000
      0.000178       0.001479       0.000000
      0.000125       0.001659       0.000000
      0.000087       0.001539       0.000000
      0.000184       0.001365       0.000000
      0.000276       0.001173       0.000000
      0.000184       0.001365       0.000000
      0.000214       0.001384       0.000000
      0.000313       0.001182       0.000000
      0.000184       0.001365       0.000000
      0.000087       0.001539       0.000000
      0.000115       0.001570       0.000000
      0.000214       0.001384       0.000000
      0.000084       0.000384       0.000000
      0.000189       0.000570       0.000000
      0.000217       0.000523       0.000000
      0.000101       0.000308       0.000000
      0.000189       0.000570       0.000000
      0.000300       0.000777       0.000000
      0.000336       0.000758       0.000000
      0.000217       0.000523       0.000000
      0.000101       0.000308       0.000000
      0.000217       0.000523       0.000000
      0.000243       0.000474       0.000000
      0.000105       0.000215       0.000000
      0.000217       0.000523       0.000000
      0.000336       0.000758       0.000000
      0.000373       0.000739       0.000000
      0.000243       0.000474       0.000000
      0.000300       0.000777       0.000000
      0.000354       0.000980       0.000000
      0.000394       0.000985       0.000000
      0.000336       0.000758       0.000000
      0.000354       0.000980       0.000000
      0.000313       0.001182       0.000000
      0.000351       0.001210       0.000000
      0.000394       0.000985       0.000000
      0.000336       0.000758       0.000000
      0.000394       0.000985       0.000000
      0.000437       0.000990       0.000000
      0.000373       0.000739       0.000000
      0.000394       0.000985       0.000000
      0.000351       0.001210       0.000000
      0.000390       0.001240       0.000000
      0.000437       0.000990       0.000000
      0.000313       0.001182       0.000000
      0.000214       0.001384       0.000000
      0.000249       0.001438       0.000000
      0.000351       0.001210       0.000000
      0.000214       0.001384       0.000000
      0.000115       0.001570       0.000000
      0.000154       0.001651       0.000000
      0.000249       0.001438       0.000000
      0.000351       0.001210       0.000000
      0.000249       0.001438       0.000000
      0.000286       0.001501       0.000000
      0.000390       0.001240       0.000000
      0.000249       0.001438       0.000000
      0.000154       0.001651       0.000000
      0.000198       0.001754       0.000000
      0.000286       0.001501       0.000000
      0.000105       0.000215       0.000000
      0.000243       0.000474       0.000000
      0.000266       0.000435       0.000000
      0.000086       0.000117       0.000000
      0.000243       0.000474       0.000000
      0.000373       0.000739       0.000000
      0.000410       0.000731       0.000000
      0.000266       0.000435       0.000000
      0.000086       0.000117       0.000000
      0.000266       0.000435       0.000000
      0.000286       0.000416       0.000000
      0.000000       0.000000       0.000000
      0.000266       0.000435       0.000000
      0.000410       0.000731       0.000000
      0.000443       0.000737       0.000000
      0.000286       0.000416       0.000000
      0.000373       0.000739       0.000000
      0.000437       0.000990       0.000000
      0.000480       0.000996       0.000000
      0.000410       0.000731       0.000000
      0.000437       0.000990       0.000000
      0.000390       0.001240       0.000000
      0.000430       0.001262       0.000000
      0.000480       0.000996       0.000000
      0.000410       0.000731       0.000000
      0.000480       0.000996       0.000000
      0.000520       0.001000       0.000000
      0.000443       0.000737       0.000000
      0.000480       0.000996       0.000000
      0.000430       0.001262       0.000000
      0.000467       0.001268       0.000000
      0.000520       0.001000       0.000000
      0.000390       0.001240       0.000000
      0.000286       0.001501       0.000000
      0.000324       0.001559       0.000000
      0.000430       0.001262       0.000000
      0.000286       0.001501       0.000000
      0.000198       0.001754       0.000000
      0.000252       0.001869       0.000000
      0.000324       0.001559       0.000000
      0.000430       0.001262       0.000000
      0.000324       0.001559       0.000000
      0.000365       0.001609       0.000000
      0.000467       0.001268       0.000000
      0.000324       0.001559       0.000000
      0.000252       0.001869       0.000000
      0.000321       0.002000       0.000000
      0.000365       0.001609       0.000000
     -0.000307       0.000280       0.000000
     -0.000216       0.000155       0.000000
     -0.000117       0.000179       0.000000
     -0.000201       0.000348       0.000000
     -0.000216       0.000155       0.000000
     -0.000133       0.000079       0.000000
     -0.000075       0.000069       0.000000
     -0.000117       0.000179       0.000000
     -0.000201       0.000348       0.000000
     -0.000117       0.000179       0.000000
     -0.000072       0.000170       0.000000
     -0.000153       0.000331       0.000000
     -0.000117       0.000179       0.000000
     -0.000075       0.000069       0.000000
     -0.000046       0.000061       0.000000
     -0.000072       0.000170       0.000000
     -0.000133       0.000079       0.000000
     -0.000065       0.000058       0.000000
     -0.000059       0.000051       0.000000
     -0.000075       0.000069       0.000000
     -0.000065       0.000058       0.000000
     -0.000006       0.000089       0.000000
     -0.000044       0.000125       0.000000
     -0.000059       0.000051       0.000000
     -0.000075       0.000069       0.000000
     -0.000059       0.000051       0.000000
     -0.000054       0.000054       0.000000
     -0.000046       0.000061       0.000000
     -0.000059       0.000051       0.000000
     -0.000044       0.000125       0.000000
     -0.000048       0.000139       0.000000
     -0.000054       0.000054       0.000000
     -0.000006       0.000089       0.000000
      0.000051       0.000170       0.000000
     -0.000003       0.000261       0.000000
     -0.000044       0.000125       0.000000
      0.000051       0.000170       0.000000
      0.000107       0.000296       0.000000
      0.000067       0.000413       0.000000
     -0.000003       0.000261       0.000000
     -0.000044       0.000125       0.000000
     -0.000003       0.000261       0.000000
      0.000002       0.000263       0.000000
     -0.000048       0.000139       0.000000
     -0.000003       0.000261       0.000000
      0.000067       0.000413       0.000000
      0.000084       0.000384       0.000000
      0.000002       0.000263       0.000000
     -0.000153       0.000331       0.000000
     -0.000072       0.000170       0.000000
     -0.000041       0.000143       0.000000
     -0.000119       0.000284       0.000000
     -0.000072       0.000170       0.000000
     -0.000046       0.000061       0.000000
     -0.000026       0.000050       0.000000
     -0.000041       0.000143       0.000000
     -0.000119       0.000284       0.000000
     -0.000041       0.000143       0.000000
     -0.000018       0.000103       0.000000
     -0.000095       0.000215       0.000000
     -0.000041       0.000143       0.000000
     -0.000026       0.000050       0.000000
     -0.000012       0.000037       0.000000
     -0.000018       0.000103       0.000000
     -0.000046       0.000061       0.000000
     -0.000054       0.000054       0.000000
     -0.000047       0.000050       0.000000
     -0.000026       0.000050       0.000000
     -0.000054       0.000054       0.000000
     -0.000048       0.000139       0.000000
     -0.000041       0.000125       0.000000
     -0.000047       0.000050       0.000000
     -0.000026       0.000050       0.000000
     -0.000047       0.000050       0.000000
     -0.000037       0.000039       0.000000
     -0.000012       0.000037       0.000000
     -0.000047       0.000050       0.000000
     -0.000041       0.000125       0.000000
     -0.000030       0.000093       0.000000
     -0.000037       0.000039       0.000000
     -0.000048       0.000139       0.000000
      0.000002       0.000263       0.000000
      0.000014       0.000219       0.000000
     -0.000041       0.000125       0.000000
      0.000002       0.000263       0.000000
      0.000084       0.000384       0.000000
      0.000101       0.000308       0.000000
      0.000014       0.000219       0.000000
     -0.000041       0.000125       0.000000
      0.000014       0.000219       0.000000
      0.000022       0.000153       0.000000
     -0.000030       0.000093       0.000000
      0.000014       0.000219       0.000000
      0.000101       0.000308       0.000000
      0.000105       0.000215       0.000000
      0.000022       0.000153       0.000000
     -0.000095       0.000215       0.000000
     -0.000018       0.000103       0.000000
     -0.000003       0.000054       0.000000
     -0.000072       0.000122       0.000000
     -0.000018       0.000103       0.000000
     -0.000012       0.000037       0.000000
     -0.000002       0.000020       0.000000
     -0.000003       0.000054       0.000000
     -0.000072       0.000122       0.000000
     -0.000003       0.000054       0.000000
      0.000000       0.000000       0.000000
      0.000000       0.000000       0.000000
     -0.000003       0.000054       0.000000
     -0.000002       0.000020       0.000000
      0.000000       0.000000       0.000000
      0.000000       0.000000       0.000000
     -0.000012       0.000037       0.000000
     -0.000037       0.000039       0.000000
     -0.000023       0.000022       0.000000
     -0.000002       0.000020       0.000000
     -0.000037       0.000039       0.000000
     -0.000030       0.000093       0.000000
     -0.000017       0.000049       0.000000
     -0.000023       0.000022       0.000000
     -0.000002       0.000020       0.000000
     -0.000023       0.000022       0.000000
      0.000000       0.000000       0.000000
      0.000000       0.000000       0.000000
     -0.000023       0.000022       0.000000
     -0.000017       0.000049       0.000000
      0.000000       0.000000       0.000000
      0.000000       0.000000       0.000000
     -0.000030       0.000093       0.000000
      0.000022       0.000153       0.000000
      0.000019       0.000077       0.000000
     -0.000017       0.000049       0.000000
      0.000022       0.000153       0.000000
      0.000105       0.000215       0.000000
      0.000086       0.000117       0.000000
      0.000019       0.000077       0.000000
     -0.000017       0.000049       0.000000
      0.000019       0.000077       0.000000
      0.000000       0.000000       0.000000
      0.000000       0.000000       0.000000
      0.000019       0.000077       0.000000
      0.000086       0.000117       0.000000
      0.000000       0.000000       0.000000
      0.000000       0.000000       0.000000
     -0.000307       0.000280       0.000000
     -0.000403       0.000458       0.000000
     -0.000341       0.000528       0.000000
     -0.000201       0.000348       0.000000
     -0.000403       0.000458       0.000000
     -0.000486       0.000702       0.000000
     -0.000502       0.000747       0.000000
     -0.000341       0.000528       0.000000
     -0.000201       0.000348       0.000000
     -0.000341       0.000528       0.000000
     -0.000303       0.000525       0.000000