# vtk DataFile Version 2.0
time_10.vtk
ASCII
DATASET UNSTRUCTURED_GRID
POINTS   576 float
      0.458579       0.641421       0.000000
      0.497369       0.671659       0.000000
      0.438243       0.730363       0.000000
      0.382149       0.701184       0.000000
      0.497369       0.671659       0.000000
      0.545805       0.692517       0.000000
      0.506084       0.750000       0.000000
      0.438243       0.730363       0.000000
      0.382149       0.701184       0.000000
      0.438243       0.730363       0.000000
      0.380813       0.787383       0.000000
      0.305719       0.760948       0.000000
      0.438243       0.730363       0.000000
      0.506084       0.750000       0.000000
      0.468251       0.804752       0.000000
      0.380813       0.787383       0.000000
      0.545805       0.692517       0.000000
      0.600000       0.700000       0.000000
      0.581017       0.756950       0.000000
      0.506084       0.750000       0.000000
      0.600000       0.700000       0.000000
      0.654195       0.692517       0.000000
      0.656527       0.750000       0.000000
      0.581017       0.756950       0.000000
      0.506084       0.750000       0.000000
      0.581017       0.756950       0.000000
      0.563060       0.810819       0.000000
      0.468251       0.804752       0.000000
      0.581017       0.756950       0.000000
      0.656527       0.750000       0.000000
      0.658747       0.804752       0.000000
      0.563060       0.810819       0.000000
      0.654195       0.692517       0.000000
      0.702631       0.671659       0.000000
      0.725999       0.730363       0.000000
      0.656527       0.750000       0.000000
      0.702631       0.671659       0.000000
      0.741421       0.641421       0.000000
      0.784518       0.701184       0.000000
      0.725999       0.730363       0.000000
      0.656527       0.750000       0.000000
      0.725999       0.730363       0.000000
      0.748697       0.787383       0.000000
      0.658747       0.804752       0.000000
      0.725999       0.730363       0.000000
      0.784518       0.701184       0.000000
      0.827614       0.760948       0.000000
      0.748697       0.787383       0.000000
      0.305719       0.760948       0.000000
      0.380813       0.787383       0.000000
      0.325006       0.842791       0.000000
      0.229289       0.820711       0.000000
      0.380813       0.787383       0.000000
      0.468251       0.804752       0.000000
      0.432173       0.856962       0.000000
      0.325006       0.842791       0.000000
      0.229289       0.820711       0.000000
      0.325006       0.842791       0.000000
      0.270755       0.896655       0.000000
      0.152860       0.880474       0.000000
      0.325006       0.842791       0.000000
      0.432173       0.856962       0.000000
      0.397732       0.906804       0.000000
      0.270755       0.896655       0.000000
      0.468251       0.804752       0.000000
      0.563060       0.810819       0.000000
      0.546050       0.861851       0.000000
      0.432173       0.856962       0.000000
      0.563060       0.810819       0.000000
      0.658747       0.804752       0.000000
      0.660865       0.856962       0.000000
      0.546050       0.861851       0.000000
      0.432173       0.856962       0.000000
      0.546050       0.861851       0.000000
      0.529912       0.910264       0.000000
      0.397732       0.906804       0.000000
      0.546050       0.861851       0.000000
      0.660865       0.856962       0.000000
      0.662887       0.906804       0.000000
      0.529912       0.910264       0.000000
      0.658747       0.804752       0.000000
      0.748697       0.787383       0.000000
      0.770753       0.842791       0.000000
      0.660865       0.856962       0.000000
      0.748697       0.787383       0.000000
      0.827614       0.760948       0.000000
      0.870711       0.820711       0.000000
      0.770753       0.842791       0.000000
      0.660865       0.856962       0.000000
      0.770753       0.842791       0.000000
      0.792195       0.896655       0.000000
      0.662887       0.906804       0.000000
      0.770753       0.842791       0.000000
      0.870711       0.820711       0.000000
      0.913807       0.880474       0.000000
      0.792195       0.896655       0.000000
      0.152860       0.880474       0.000000
      0.270755       0.896655       0.000000
      0.217995       0.949038       0.000000
      0.076430       0.940237       0.000000
      0.270755       0.896655       0.000000
      0.397732       0.906804       0.000000
      0.364819       0.954435       0.000000
      0.217995       0.949038       0.000000
      0.076430       0.940237       0.000000
      0.217995       0.949038       0.000000
      0.166667       1.000000       0.000000
      0.000000       1.000000       0.000000
      0.217995       0.949038       0.000000
      0.364819       0.954435       0.000000
      0.333333       1.000000       0.000000
      0.166667       1.000000       0.000000
      0.397732       0.906804       0.000000
      0.529912       0.910264       0.000000
      0.514582       0.956255       0.000000
      0.364819       0.954435       0.000000
      0.529912       0.910264       0.000000
      0.662887       0.906804       0.000000
      0.664819       0.954435       0.000000
      0.514582       0.956255       0.000000
      0.364819       0.954435       0.000000
      0.514582       0.956255       0.000000
      0.500000       1.000000       0.000000
      0.333333       1.000000       0.000000
      0.514582       0.956255       0.000000
      0.664819       0.954435       0.000000
      0.666667       1.000000       0.000000
      0.500000       1.000000       0.000000
      0.662887       0.906804       0.000000
      0.792195       0.896655       0.000000
      0.813047       0.949038       0.000000
      0.664819       0.954435       0.000000
      0.792195       0.896655       0.000000
      0.913807       0.880474       0.000000
      0.956904       0.940237       0.000000
      0.813047       0.949038       0.000000
      0.664819       0.954435       0.000000
      0.813047       0.949038       0.000000
      0.833333       1.000000       0.000000
      0.666667       1.000000       0.000000
      0.813047       0.949038       0.000000
      0.956904       0.940237       0.000000
      1.000000       1.000000       0.000000
      0.833333       1.000000       0.000000
      0.458579       0.358579       0.000000
      0.428341       0.397369       0.000000
      0.351758       0.356122       0.000000
      0.382149       0.298816       0.000000
      0.428341       0.397369       0.000000
      0.407483       0.445805       0.000000
      0.331305       0.424779       0.000000
      0.351758       0.356122       0.000000
      0.382149       0.298816       0.000000
      0.351758       0.356122       0.000000
      0.277372       0.316058       0.000000
      0.305719       0.239052       0.000000
      0.351758       0.356122       0.000000
      0.331305       0.424779       0.000000
      0.258747       0.404752       0.000000
      0.277372       0.316058       0.000000
      0.407483       0.445805       0.000000
      0.400000       0.500000       0.000000
      0.324066       0.500000       0.000000
      0.331305       0.424779       0.000000
      0.400000       0.500000       0.000000
      0.407483       0.554195       0.000000
      0.331305       0.575221       0.000000
      0.324066       0.500000       0.000000
      0.331305       0.424779       0.000000
      0.324066       0.500000       0.000000
      0.252241       0.500000       0.000000
      0.258747       0.404752       0.000000
      0.324066       0.500000       0.000000
      0.331305       0.575221       0.000000
      0.258747       0.595248       0.000000
      0.252241       0.500000       0.000000
      0.407483       0.554195       0.000000
      0.428341       0.602631       0.000000
      0.351758       0.643878       0.000000
      0.331305       0.575221       0.000000
      0.428341       0.602631       0.000000
      0.458579       0.641421       0.000000
      0.382149       0.701184       0.000000
      0.351758       0.643878       0.000000
      0.331305       0.575221       0.000000
      0.351758       0.643878       0.000000
      0.277372       0.683942       0.000000
      0.258747       0.595248       0.000000
      0.351758       0.643878       0.000000
      0.382149       0.701184       0.000000
      0.305719       0.760948       0.000000
      0.277372       0.683942       0.000000
      0.305719       0.239052       0.000000
      0.277372       0.316058       0.000000
      0.205089       0.277126       0.000000
      0.229289       0.179289       0.000000
      0.277372       0.316058       0.000000
      0.258747       0.404752       0.000000
      0.189557       0.385654       0.000000
      0.205089       0.277126       0.000000
      0.229289       0.179289       0.000000
      0.205089       0.277126       0.000000
      0.134820       0.239280       0.000000
      0.152860       0.119526       0.000000
      0.205089       0.277126       0.000000
      0.189557       0.385654       0.000000
      0.123505       0.367423       0.000000
      0.134820       0.239280       0.000000
      0.258747       0.404752       0.000000
      0.252241       0.500000       0.000000
      0.184198       0.500000       0.000000
      0.189557       0.385654       0.000000
      0.252241       0.500000       0.000000
      0.258747       0.595248       0.000000
      0.189557       0.614346       0.000000
      0.184198       0.500000       0.000000
      0.189557       0.385654       0.000000
      0.184198       0.500000       0.000000
      0.119648       0.500000       0.000000
      0.123505       0.367423       0.000000
[...]
POINT_DATA   576
VECTORS U float 
      0.000412       0.005348       0.000000
      0.000212       0.005721       0.000000
      0.000036       0.005438       0.000000
      0.000269       0.004961       0.000000
      0.000212       0.005721       0.000000
      0.000004       0.005969       0.000000
     -0.000117       0.005861       0.000000
      0.000036       0.005438       0.000000
      0.000269       0.004961       0.000000
      0.000036       0.005438       0.000000
      0.000059       0.005408       0.000000
      0.000337       0.005003       0.000000
      0.000036       0.005438       0.000000
     -0.000117       0.005861       0.000000
     -0.000133       0.005815       0.000000
      0.000059       0.005408       0.000000
      0.000004       0.005969       0.000000
     -0.000211       0.006071       0.000000
     -0.000198       0.006097       0.000000
     -0.000117       0.005861       0.000000
     -0.000211       0.006071       0.000000
     -0.000446       0.006019       0.000000
     -0.000276       0.006057       0.000000
     -0.000198       0.006097       0.000000
     -0.000117       0.005861       0.000000
     -0.000198       0.006097       0.000000
     -0.000197       0.006093       0.000000
     -0.000133       0.005815       0.000000
     -0.000198       0.006097       0.000000
     -0.000276       0.006057       0.000000
     -0.000208       0.006083       0.000000
     -0.000197       0.006093       0.000000
     -0.000446       0.006019       0.000000
     -0.000712       0.005814       0.000000
     -0.000419       0.005745       0.000000
     -0.000276       0.006057       0.000000
     -0.000712       0.005814       0.000000
     -0.001004       0.005472       0.000000
     -0.000671       0.005261       0.000000
     -0.000419       0.005745       0.000000
     -0.000276       0.006057       0.000000
     -0.000419       0.005745       0.000000
     -0.000300       0.005766       0.000000
     -0.000208       0.006083       0.000000
     -0.000419       0.005745       0.000000
     -0.000671       0.005261       0.000000
     -0.000534       0.005286       0.000000
     -0.000300       0.005766       0.000000
      0.000337       0.005003       0.000000
      0.000059       0.005408       0.000000
      0.000123       0.005520       0.000000
      0.000439       0.005210       0.000000
      0.000059       0.005408       0.000000
     -0.000133       0.005815       0.000000
     -0.000114       0.005849       0.000000
      0.000123       0.005520       0.000000
      0.000439       0.005210       0.000000
      0.000123       0.005520       0.000000
      0.000201       0.005715       0.000000
      0.000559       0.005497       0.000000
      0.000123       0.005520       0.000000
     -0.000114       0.005849       0.000000
     -0.000083       0.005944       0.000000
      0.000201       0.005715       0.000000
     -0.000133       0.005815       0.000000
     -0.000197       0.006093       0.000000
     -0.000192       0.006108       0.000000
     -0.000114       0.005849       0.000000
     -0.000197       0.006093       0.000000
     -0.000208       0.006083       0.000000
     -0.000172       0.006118       0.000000
     -0.000192       0.006108       0.000000
     -0.000114       0.005849       0.000000
     -0.000192       0.006108       0.000000
     -0.000186       0.006143       0.000000
     -0.000083       0.005944       0.000000
     -0.000192       0.006108       0.000000
     -0.000172       0.006118       0.000000
     -0.000150       0.006162       0.000000
     -0.000186       0.006143       0.000000
     -0.000208       0.006083       0.000000
     -0.000300       0.005766       0.000000
     -0.000236       0.005837       0.000000
     -0.000172       0.006118       0.000000
     -0.000300       0.005766       0.000000
     -0.000534       0.005286       0.000000
     -0.000459       0.005405       0.000000
     -0.000236       0.005837       0.000000
     -0.000172       0.006118       0.000000
     -0.000236       0.005837       0.000000
     -0.000202       0.005945       0.000000
     -0.000150       0.006162       0.000000
     -0.000236       0.005837       0.000000
     -0.000459       0.005405       0.000000
     -0.000438       0.005602       0.000000
     -0.000202       0.005945       0.000000
      0.000559       0.005497       0.000000
      0.000201       0.005715       0.000000
      0.000299       0.005967       0.000000
      0.000717       0.005842       0.000000
      0.000201       0.005715       0.000000
     -0.000083       0.005944       0.000000
     -0.000043       0.006084       0.000000
      0.000299       0.005967       0.000000
      0.000717       0.005842       0.000000
      0.000299       0.005967       0.000000
      0.000427       0.006262       0.000000
      0.000938       0.006262       0.000000
      0.000299       0.005967       0.000000
     -0.000043       0.006084       0.000000
      0.000009       0.006262       0.000000
      0.000427       0.006262       0.000000
     -0.000083       0.005944       0.000000
     -0.000186       0.006143       0.000000
     -0.000181       0.006195       0.000000
     -0.000043       0.006084       0.000000
     -0.000186       0.006143       0.000000
     -0.000150       0.006162       0.000000
     -0.000138       0.006211       0.000000
     -0.000181       0.006195       0.000000
     -0.000043       0.006084       0.000000
     -0.000181       0.006195       0.000000
     -0.000178       0.006262       0.000000
      0.000009       0.006262       0.000000
     -0.000181       0.006195       0.000000
     -0.000138       0.006211       0.000000
     -0.000134       0.006262       0.000000
     -0.000178       0.006262       0.000000
     -0.000150       0.006162       0.000000
     -0.000202       0.005945       0.000000
     -0.000191       0.006087       0.000000
     -0.000138       0.006211       0.000000
     -0.000202       0.005945       0.000000
     -0.000438       0.005602       0.000000
     -0.000477       0.005889       0.000000
     -0.000191       0.006087       0.000000
     -0.000138       0.006211       0.000000
     -0.000191       0.006087       0.000000
     -0.000205       0.006262       0.000000
     -0.000134       0.006262       0.000000
     -0.000191       0.006087       0.000000
     -0.000477       0.005889       0.000000
     -0.000575       0.006262       0.000000
     -0.000205       0.006262       0.000000
      0.000360       0.000788       0.000000
      0.000551       0.001277       0.000000
      0.000531       0.001695       0.000000
      0.000217       0.001158       0.000000
      0.000551       0.001277       0.000000
      0.000700       0.001985       0.000000
      0.000887       0.002343       0.000000
      0.000531       0.001695       0.000000
      0.000217       0.001158       0.000000
      0.000531       0.001695       0.000000
      0.000605       0.001708       0.000000
      0.000257       0.001113       0.000000
      0.000531       0.001695       0.000000
      0.000887       0.002343       0.000000
      0.001002       0.002396       0.000000
      0.000605       0.001708       0.000000
      0.000700       0.001985       0.000000
      0.000733       0.003044       0.000000
      0.001084       0.003059       0.000000
      0.000887       0.002343       0.000000
      0.000733       0.003044       0.000000
      0.000728       0.004114       0.000000
      0.000923       0.003771       0.000000
      0.001084       0.003059       0.000000
      0.000887       0.002343       0.000000
      0.001084       0.003059       0.000000
      0.001212       0.003068       0.000000
      0.001002       0.002396       0.000000
      0.001084       0.003059       0.000000
      0.000923       0.003771       0.000000
      0.001039       0.003733       0.000000
      0.001212       0.003068       0.000000
      0.000728       0.004114       0.000000
      0.000599       0.004839       0.000000
      0.000585       0.004415       0.000000
      0.000923       0.003771       0.000000
      0.000599       0.004839       0.000000
      0.000412       0.005348       0.000000
      0.000269       0.004961       0.000000
      0.000585       0.004415       0.000000
      0.000923       0.003771       0.000000
      0.000585       0.004415       0.000000
      0.000671       0.004407       0.000000
      0.001039       0.003733       0.000000
      0.000585       0.004415       0.000000
      0.000269       0.004961       0.000000
      0.000337       0.005003       0.000000
      0.000671       0.004407       0.000000
      0.000257       0.001113       0.000000
      0.000605       0.001708       0.000000
      0.000690       0.001599       0.000000
      0.000301       0.000912       0.000000
      0.000605       0.001708       0.000000
      0.001002       0.002396       0.000000
      0.001115       0.002361       0.000000
      0.000690       0.001599       0.000000
      0.000301       0.000912       0.000000
      0.000690       0.001599       0.000000
      0.000768       0.001472       0.000000
      0.000310       0.000650       0.000000
      0.000690       0.001599       0.000000
      0.001115       0.002361       0.000000
      0.001229       0.002318       0.000000
      0.000768       0.001472       0.000000
      0.001002       0.002396       0.000000
      0.001212       0.003068       0.000000
      0.001329       0.003080       0.000000
      0.001115       0.002361       0.000000
      0.001212       0.003068       0.000000
      0.001039       0.003733       0.000000
      0.001154       0.003790       0.000000
      0.001329       0.003080       0.000000
      0.001115       0.002361       0.000000
      0.001329       0.003080       0.000000
      0.001455       0.003093       0.000000
      0.001229       0.002318       0.000000
      0.001329       0.003080       0.000000
      0.001154       0.003790       0.000000
      0.001272       0.003862       0.000000
      0.001455       0.003093       0.000000
      0.001039       0.003733       0.000000
      0.000671       0.004407       0.000000
      0.000775       0.004532       0.000000
      0.001154       0.003790       0.000000
      0.000671       0.004407       0.000000
      0.000337       0.005003       0.000000
      0.000439       0.005210       0.000000
      0.000775       0.004532       0.000000
      0.001154       0.003790       0.000000
      0.000775       0.004532       0.000000
      0.000880       0.004692       0.000000
      0.001272       0.003862       0.000000
      0.000775       0.004532       0.000000
      0.000439       0.005210       0.000000
      0.000559       0.005497       0.000000
      0.000880       0.004692       0.000000
      0.000310       0.000650       0.000000
      0.000768       0.001472       0.000000
      0.000835       0.001377       0.000000
      0.000251       0.000358       0.000000
      0.000768       0.001472       0.000000
      0.001229       0.002318       0.000000
      0.001337       0.002304       0.000000
      0.000835       0.001377       0.000000
      0.000251       0.000358       0.000000
      0.000835       0.001377       0.000000
      0.000893       0.001333       0.000000
      0.000000       0.000000       0.000000
      0.000835       0.001377       0.000000
      0.001337       0.002304       0.000000
      0.001432       0.002343       0.000000
      0.000893       0.001333       0.000000
      0.001229       0.002318       0.000000
      0.001455       0.003093       0.000000
      0.001583       0.003106       0.000000
      0.001337       0.002304       0.000000
      0.001455       0.003093       0.000000
      0.001272       0.003862       0.000000
      0.001387       0.003911       0.000000
      0.001583       0.003106       0.000000
      0.001337       0.002304       0.000000
      0.001583       0.003106       0.000000
      0.001700       0.003116       0.000000
      0.001432       0.002343       0.000000
      0.001583       0.003106       0.000000
      0.001387       0.003911       0.000000
      0.001494       0.003905       0.000000
      0.001700       0.003116       0.000000
      0.001272       0.003862       0.000000
      0.000880       0.004692       0.000000
      0.000986       0.004846       0.000000
      0.001387       0.003911       0.000000
      0.000880       0.004692       0.000000
      0.000559       0.005497       0.000000
      0.000717       0.005842       0.000000
      0.000986       0.004846       0.000000
      0.001387       0.003911       0.000000
      0.000986       0.004846       0.000000
      0.001107       0.004982       0.000000
      0.001494       0.003905       0.000000
      0.000986       0.004846       0.000000
      0.000717       0.005842       0.000000
      0.000938       0.006262       0.000000
      0.001107       0.004982       0.000000
     -0.000944       0.000734       0.000000
     -0.000646       0.000393       0.000000
     -0.000344       0.000468       0.000000
     -0.000595       0.000953       0.000000
     -0.000646       0.000393       0.000000
     -0.000390       0.000192       0.000000
     -0.000216       0.000162       0.000000
     -0.000344       0.000468       0.000000
     -0.000595       0.000953       0.000000
     -0.000344       0.000468       0.000000
     -0.000200       0.000455       0.000000
     -0.000433       0.000937       0.000000
     -0.000344       0.000468       0.000000
     -0.000216       0.000162       0.000000
     -0.000129       0.000146       0.000000
     -0.000200       0.000455       0.000000
     -0.000390       0.000192       0.000000
     -0.000184       0.000137       0.000000
     -0.000163       0.000117       0.000000
     -0.000216       0.000162       0.000000
     -0.000184       0.000137       0.000000
     -0.000005       0.000221       0.000000
     -0.000114       0.000322       0.000000
     -0.000163       0.000117       0.000000
     -0.000216       0.000162       0.000000
     -0.000163       0.000117       0.000000
     -0.000151       0.000127       0.000000
     -0.000129       0.000146       0.000000
     -0.000163       0.000117       0.000000
     -0.000114       0.000322       0.000000
     -0.000132       0.000367       0.000000
     -0.000151       0.000127       0.000000
     -0.000005       0.000221       0.000000
      0.000174       0.000442       0.000000
      0.000005       0.000706       0.000000
     -0.000114       0.000322       0.000000
      0.000174       0.000442       0.000000
      0.000360       0.000788       0.000000
      0.000217       0.001158       0.000000
      0.000005       0.000706       0.000000
     -0.000114       0.000322       0.000000
      0.000005       0.000706       0.000000
      0.000010       0.000731       0.000000
     -0.000132       0.000367       0.000000
      0.000005       0.000706       0.000000
      0.000217       0.001158       0.000000
      0.000257       0.001113       0.000000
      0.000010       0.000731       0.000000
     -0.000433       0.000937       0.000000
     -0.000200       0.000455       0.000000
     -0.000105       0.000388       0.000000
     -0.000323       0.000823       0.000000
     -0.000200       0.000455       0.000000
     -0.000129       0.000146       0.000000
     -0.000070       0.000123       0.000000
     -0.000105       0.000388       0.000000
     -0.000323       0.000823       0.000000
     -0.000105       0.000388       0.000000
     -0.000037       0.000284       0.000000
     -0.000254       0.000630       0.000000
     -0.000105       0.000388       0.000000
     -0.000070       0.000123       0.000000
     -0.000028       0.000091       0.000000
     -0.000037       0.000284       0.000000
     -0.000129       0.000146       0.000000
     -0.000151       0.000127       0.000000
     -0.000131       0.000122       0.000000
     -0.000070       0.000123       0.000000
     -0.000151       0.000127       0.000000
     -0.000132       0.000367       0.000000
     -0.000118       0.000337       0.000000
     -0.000131       0.000122       0.000000
     -0.000070       0.000123       0.000000
     -0.000131       0.000122       0.000000
     -0.000104       0.000099       0.000000
     -0.000028       0.000091       0.000000
     -0.000131       0.000122       0.000000
     -0.000118       0.000337       0.000000
     -0.000091       0.000253       0.000000
     -0.000104       0.000099       0.000000
     -0.000132       0.000367       0.000000
      0.000010       0.000731       0.000000
      0.000038       0.000620       0.000000
     -0.000118       0.000337       0.000000
      0.000010       0.000731       0.000000
      0.000257       0.001113       0.000000
      0.000301       0.000912       0.000000
      0.000038       0.000620       0.000000
     -0.000118       0.000337       0.000000
      0.000038       0.000620       0.000000
      0.000057       0.000437       0.000000
     -0.000091       0.000253       0.000000
      0.000038       0.000620       0.000000
      0.000301       0.000912       0.000000
      0.000310       0.000650       0.000000
      0.000057       0.000437       0.000000
     -0.000254       0.000630       0.000000
     -0.000037       0.000284       0.000000
      0.000000       0.000151       0.000000
     -0.000196       0.000353       0.000000
     -0.000037       0.000284       0.000000
     -0.000028       0.000091       0.000000
     -0.000003       0.000051       0.000000
      0.000000       0.000151       0.000000
     -0.000196       0.000353       0.000000
      0.000000       0.000151       0.000000
      0.000000       0.000000       0.000000
      0.000000       0.000000       0.000000
      0.000000       0.000151       0.000000
     -0.000003       0.000051       0.000000
      0.000000       0.000000       0.000000
      0.000000       0.000000       0.000000
     -0.000028       0.000091       0.000000
     -0.000104       0.000099       0.000000
     -0.000064       0.000057       0.000000
     -0.000003       0.000051       0.000000
     -0.000104       0.000099       0.000000
     -0.000091       0.000253       0.000000
     -0.000051       0.000134       0.000000
     -0.000064       0.000057       0.000000
     -0.000003       0.000051       0.000000
     -0.000064       0.000057       0.000000
      0.000000       0.000000       0.000000
      0.000000       0.000000       0.000000
     -0.000064       0.000057       0.000000
     -0.000051       0.000134       0.000000
      0.000000       0.000000       0.000000
      0.000000       0.000000       0.000000
     -0.000091       0.000253       0.000000
      0.000057       0.000437       0.000000
      0.000049       0.000221       0.000000
     -0.000051       0.000134       0.000000
      0.000057       0.000437       0.000000
      0.000310       0.000650       0.000000
      0.000251       0.000358       0.000000
      0.000049       0.000221       0.000000
     -0.000051       0.000134       0.000000
      0.000049       0.000221       0.000000
      0.000000       0.000000       0.000000
      0.000000       0.000000       0.000000
      0.000049       0.000221       0.000000
      0.000251       0.000358       0.000000
      0.000000       0.000000       0.000000
      0.000000       0.000000       0.000000
     -0.000944       0.000734       0.000000
     -0.001272       0.001230       0.000000
     -0.001043       0.001482       0.000000
     -0.000595       0.000953       0.000000
     -0.001272       0.001230       0.000000
     -0.001565       0.001956       0.000000
     -0.001598       0.002164       0.000000
     -0.001043       0.001482       0.000000
     -0.000595       0.000953       0.000000
     -0.001043       0.001482       0.000000
     -0.000905       0.001519       0.000000