# vtk DataFile Version 2.0
time_10.vtk
ASCII
DATASET UNSTRUCTURED_GRID
POINTS  3120 float
      0.458579       0.641421       0.000000
      0.497369       0.671659       0.000000
      0.438243       0.730363       0.000000
      0.382149       0.701184       0.000000
      0.497369       0.671659       0.000000
      0.545805       0.692517       0.000000
      0.506084       0.750000       0.000000
      0.438243       0.730363       0.000000
      0.382149       0.701184       0.000000
      0.438243       0.730363       0.000000
      0.380813       0.787383       0.000000
      0.305719       0.760948       0.000000
      0.438243       0.730363       0.000000
      0.506084       0.750000       0.000000
      0.468251       0.804752       0.000000
      0.380813       0.787383       0.000000
      0.545805       0.692517       0.000000
      0.600000       0.700000       0.000000
      0.581017       0.756950       0.000000
      0.506084       0.750000       0.000000
      0.600000       0.700000       0.000000
      0.654195       0.692517       0.000000
      0.656527       0.750000       0.000000
      0.581017       0.756950       0.000000
      0.506084       0.750000       0.000000
      0.581017       0.756950       0.000000
      0.563060       0.810819       0.000000
      0.468251       0.804752       0.000000
      0.581017       0.756950       0.000000
      0.656527       0.750000       0.000000
      0.658747       0.804752       0.000000
      0.563060       0.810819       0.000000
      0.654195       0.692517       0.000000
      0.702631       0.671659       0.000000
      0.725999       0.730363       0.000000
      0.656527       0.750000       0.000000
      0.702631       0.671659       0.000000
      0.741421       0.641421       0.000000
      0.784518       0.701184       0.000000
      0.725999       0.730363       0.000000
      0.656527       0.750000       0.000000
      0.725999       0.730363       0.000000
      0.748697       0.787383       0.000000
      0.658747       0.804752       0.000000
      0.725999       0.730363       0.000000
      0.784518       0.701184       0.000000
      0.827614       0.760948       0.000000
      0.748697       0.787383       0.000000
      0.305719       0.760948       0.000000
      0.380813       0.787383       0.000000
      0.325006       0.842791       0.000000
      0.229289       0.820711       0.000000
      0.380813       0.787383       0.000000
      0.468251       0.804752       0.000000
      0.432173       0.856962       0.000000
      0.325006       0.842791       0.000000
      0.229289       0.820711       0.000000
      0.325006       0.842791       0.000000
      0.270755       0.896655       0.000000
      0.152860       0.880474       0.000000
      0.325006       0.842791       0.000000
      0.432173       0.856962       0.000000
      0.397732       0.906804       0.000000
      0.270755       0.896655       0.000000
      0.468251       0.804752       0.000000
      0.563060       0.810819       0.000000
      0.546050       0.861851       0.000000
      0.432173       0.856962       0.000000
      0.563060       0.810819       0.000000
      0.658747       0.804752       0.000000
      0.660865       0.856962       0.000000
      0.546050       0.861851       0.000000
      0.432173       0.856962       0.000000
      0.546050       0.861851       0.000000
      0.529912       0.910264       0.000000
      0.397732       0.906804       0.000000
      0.546050       0.861851       0.000000
      0.660865       0.856962       0.000000
      0.662887       0.906804       0.000000
      0.529912       0.910264       0.000000
      0.658747       0.804752       0.000000
      0.748697       0.787383       0.000000
      0.770753       0.842791       0.000000
      0.660865       0.856962       0.000000
      0.748697       0.787383       0.000000
      0.827614       0.760948       0.000000
      0.870711       0.820711       0.000000
      0.770753       0.842791       0.000000
      0.660865       0.856962       0.000000
      0.770753       0.842791       0.000000
      0.792195       0.896655       0.000000
      0.662887       0.906804       0.000000
      0.770753       0.842791       0.000000
      0.870711       0.820711       0.000000
      0.913807       0.880474       0.000000
      0.792195       0.896655       0.000000
      0.152860       0.880474       0.000000
      0.270755       0.896655       0.000000
      0.217995       0.949038       0.000000
      0.076430       0.940237       0.000000
      0.270755       0.896655       0.000000
      0.397732       0.906804       0.000000
      0.364819       0.954435       0.000000
      0.217995       0.949038       0.000000
      0.076430       0.940237       0.000000
      0.217995       0.949038       0.000000
      0.166667       1.000000       0.000000
      0.000000       1.000000       0.000000
      0.217995       0.949038       0.000000
      0.364819       0.954435       0.000000
      0.333333       1.000000       0.000000
      0.166667       1.000000       0.000000
      0.397732       0.906804       0.000000
      0.529912       0.910264       0.000000
      0.514582       0.956255       0.000000
      0.364819       0.954435       0.000000
      0.529912       0.910264       0.000000
      0.662887       0.906804       0.000000
      0.664819       0.954435       0.000000
      0.514582       0.956255       0.000000
      0.364819       0.954435       0.000000
      0.514582       0.956255       0.000000
      0.500000       1.000000       0.000000
      0.333333       1.000000       0.000000
      0.514582       0.956255       0.000000
      0.664819       0.954435       0.000000
      0.666667       1.000000       0.000000
      0.500000       1.000000       0.000000
      0.662887       0.906804       0.000000
      0.792195       0.896655       0.000000
      0.813047       0.949038       0.000000
      0.664819       0.954435       0.000000
      0.792195       0.896655       0.000000
      0.913807       0.880474       0.000000
      0.956904       0.940237       0.000000
      0.813047       0.949038       0.000000
      0.664819       0.954435       0.000000
      0.813047       0.949038       0.000000
      0.833333       1.000000       0.000000
      0.666667       1.000000       0.000000
      0.813047       0.949038       0.000000
      0.956904       0.940237       0.000000
      1.000000       1.000000       0.000000
      0.833333       1.000000       0.000000
      0.458579       0.358579       0.000000
      0.428341       0.397369       0.000000
      0.351758       0.356122       0.000000
      0.382149       0.298816       0.000000
      0.382149       0.298816       0.000000
      0.351758       0.356122       0.000000
      0.277372       0.316058       0.000000
      0.305719       0.239052       0.000000
      0.428341       0.602631       0.000000
      0.458579       0.641421       0.000000
      0.382149       0.701184       0.000000
      0.351758       0.643878       0.000000
      0.351758       0.643878       0.000000
      0.382149       0.701184       0.000000
      0.305719       0.760948       0.000000
      0.277372       0.683942       0.000000
      0.305719       0.239052       0.000000
      0.277372       0.316058       0.000000
      0.205089       0.277126       0.000000
      0.229289       0.179289       0.000000
      0.229289       0.179289       0.000000
      0.205089       0.277126       0.000000
      0.134820       0.239280       0.000000
      0.152860       0.119526       0.000000
      0.205089       0.277126       0.000000
      0.189557       0.385654       0.000000
      0.123505       0.367423       0.000000
      0.134820       0.239280       0.000000
      0.277372       0.683942       0.000000
      0.305719       0.760948       0.000000
      0.229289       0.820711       0.000000
      0.205089       0.722874       0.000000
      0.189557       0.614346       0.000000
      0.205089       0.722874       0.000000
      0.134820       0.760720       0.000000
      0.123505       0.632577       0.000000
      0.205089       0.722874       0.000000
      0.229289       0.820711       0.000000
      0.152860       0.880474       0.000000
      0.134820       0.760720       0.000000
      0.152860       0.119526       0.000000
      0.134820       0.239280       0.000000
      0.066483       0.202474       0.000000
      0.076430       0.059763       0.000000
      0.134820       0.239280       0.000000
      0.123505       0.367423       0.000000
      0.060383       0.350000       0.000000
      0.066483       0.202474       0.000000
      0.076430       0.059763       0.000000
      0.066483       0.202474       0.000000
      0.000000       0.166667       0.000000
      0.000000       0.000000       0.000000
      0.066483       0.202474       0.000000
      0.060383       0.350000       0.000000
      0.000000       0.333333       0.000000
      0.000000       0.166667       0.000000
      0.123505       0.367423       0.000000
      0.119648       0.500000       0.000000
      0.058327       0.500000       0.000000
      0.060383       0.350000       0.000000
      0.119648       0.500000       0.000000
      0.123505       0.632577       0.000000
      0.060383       0.650000       0.000000
      0.058327       0.500000       0.000000
      0.060383       0.350000       0.000000
      0.058327       0.500000       0.000000
      0.000000       0.500000       0.000000
      0.000000       0.333333       0.000000
      0.058327       0.500000       0.000000
      0.060383       0.650000       0.000000
      0.000000       0.666667       0.000000
      0.000000       0.500000       0.000000
      0.123505       0.632577       0.000000
      0.134820       0.760720       0.000000
      0.066483       0.797526       0.000000
      0.060383       0.650000       0.000000
[...]
POINT_DATA  3120
VECTORS U float 
      0.000591       0.006864       0.000000
      0.000366       0.006927       0.000000
      0.000194       0.006792       0.000000
      0.000334       0.006561       0.000000
      0.000366       0.006927       0.000000
      0.000202       0.006958       0.000000
      0.000118       0.006935       0.000000
      0.000194       0.006792       0.000000
      0.000334       0.006561       0.000000
      0.000194       0.006792       0.000000
      0.000056       0.006646       0.000000
      0.000185       0.006311       0.000000
      0.000194       0.006792       0.000000
      0.000118       0.006935       0.000000
      0.000009       0.006870       0.000000
      0.000056       0.006646       0.000000
      0.000202       0.006958       0.000000
      0.000098       0.006958       0.000000
      0.000079       0.006975       0.000000
      0.000118       0.006935       0.000000
      0.000098       0.006958       0.000000
      0.000039       0.006943       0.000000
      0.000050       0.006954       0.000000
      0.000079       0.006975       0.000000
      0.000118       0.006935       0.000000
      0.000079       0.006975       0.000000
      0.000016       0.006960       0.000000
      0.000009       0.006870       0.000000
      0.000079       0.006975       0.000000
      0.000050       0.006954       0.000000
      0.000026       0.006953       0.000000
      0.000016       0.006960       0.000000
      0.000039       0.006943       0.000000
      0.000003       0.006924       0.000000
      0.000025       0.006920       0.000000
      0.000050       0.006954       0.000000
      0.000003       0.006924       0.000000
     -0.000024       0.006905       0.000000
      0.000004       0.006888       0.000000
      0.000025       0.006920       0.000000
      0.000050       0.006954       0.000000
      0.000025       0.006920       0.000000
      0.000023       0.006916       0.000000
      0.000026       0.006953       0.000000
      0.000025       0.006920       0.000000
      0.000004       0.006888       0.000000
      0.000012       0.006878       0.000000
      0.000023       0.006916       0.000000
      0.000185       0.006311       0.000000
      0.000056       0.006646       0.000000
     -0.000030       0.006568       0.000000
      0.000132       0.006206       0.000000
      0.000056       0.006646       0.000000
      0.000009       0.006870       0.000000
     -0.000078       0.006820       0.000000
     -0.000030       0.006568       0.000000
      0.000132       0.006206       0.000000
     -0.000030       0.006568       0.000000
     -0.000063       0.006581       0.000000
      0.000157       0.006268       0.000000
     -0.000030       0.006568       0.000000
     -0.000078       0.006820       0.000000
     -0.000138       0.006804       0.000000
     -0.000063       0.006581       0.000000
      0.000009       0.006870       0.000000
      0.000016       0.006960       0.000000
     -0.000045       0.006936       0.000000
     -0.000078       0.006820       0.000000
      0.000016       0.006960       0.000000
      0.000026       0.006953       0.000000
     -0.000002       0.006942       0.000000
     -0.000045       0.006936       0.000000
     -0.000078       0.006820       0.000000
     -0.000045       0.006936       0.000000
     -0.000093       0.006915       0.000000
     -0.000138       0.006804       0.000000
     -0.000045       0.006936       0.000000
     -0.000002       0.006942       0.000000
     -0.000025       0.006927       0.000000
     -0.000093       0.006915       0.000000
      0.000026       0.006953       0.000000
      0.000023       0.006916       0.000000
      0.000014       0.006909       0.000000
     -0.000002       0.006942       0.000000
      0.000023       0.006916       0.000000
      0.000012       0.006878       0.000000
      0.000012       0.006872       0.000000
      0.000014       0.006909       0.000000
     -0.000002       0.006942       0.000000
      0.000014       0.006909       0.000000
      0.000008       0.006901       0.000000
     -0.000025       0.006927       0.000000
      0.000014       0.006909       0.000000
      0.000012       0.006872       0.000000
      0.000009       0.006872       0.000000
      0.000008       0.006901       0.000000
      0.000157       0.006268       0.000000
     -0.000063       0.006581       0.000000
     -0.000046       0.006690       0.000000
      0.000268       0.006496       0.000000
     -0.000063       0.006581       0.000000
     -0.000138       0.006804       0.000000
     -0.000168       0.006827       0.000000
     -0.000046       0.006690       0.000000
      0.000268       0.006496       0.000000
     -0.000046       0.006690       0.000000
      0.000026       0.006892       0.000000
      0.000479       0.006892       0.000000
     -0.000046       0.006690       0.000000
     -0.000168       0.006827       0.000000
     -0.000170       0.006892       0.000000
      0.000026       0.006892       0.000000
     -0.000138       0.006804       0.000000
     -0.000093       0.006915       0.000000
     -0.000126       0.006899       0.000000
     -0.000168       0.006827       0.000000
     -0.000093       0.006915       0.000000
     -0.000025       0.006927       0.000000
     -0.000038       0.006910       0.000000
     -0.000126       0.006899       0.000000
     -0.000168       0.006827       0.000000
     -0.000126       0.006899       0.000000
     -0.000141       0.006892       0.000000
     -0.000170       0.006892       0.000000
     -0.000126       0.006899       0.000000
     -0.000038       0.006910       0.000000
     -0.000042       0.006892       0.000000
     -0.000141       0.006892       0.000000
     -0.000025       0.006927       0.000000
      0.000008       0.006901       0.000000
      0.000005       0.006895       0.000000
     -0.000038       0.006910       0.000000
      0.000008       0.006901       0.000000
      0.000009       0.006872       0.000000
      0.000005       0.006880       0.000000
      0.000005       0.006895       0.000000
     -0.000038       0.006910       0.000000
      0.000005       0.006895       0.000000
      0.000005       0.006892       0.000000
     -0.000042       0.006892       0.000000
      0.000005       0.006895       0.000000
      0.000005       0.006880       0.000000
      0.000001       0.006892       0.000000
      0.000005       0.006892       0.000000
      0.000588       0.000018       0.000000
      0.000879       0.000100       0.000000
      0.000648       0.000514       0.000000
      0.000343       0.000301       0.000000
      0.000343       0.000301       0.000000
      0.000648       0.000514       0.000000
      0.000522       0.000897       0.000000
      0.000199       0.000533       0.000000
      0.000890       0.006772       0.000000
      0.000591       0.006864       0.000000
      0.000334       0.006561       0.000000
      0.000651       0.006339       0.000000
      0.000651       0.006339       0.000000
      0.000334       0.006561       0.000000
      0.000185       0.006311       0.000000
      0.000520       0.005940       0.000000
      0.000199       0.000533       0.000000
      0.000522       0.000897       0.000000
      0.000510       0.001165       0.000000
      0.000142       0.000619       0.000000
      0.000142       0.000619       0.000000
      0.000510       0.001165       0.000000
      0.000548       0.001292       0.000000
      0.000138       0.000546       0.000000
      0.000510       0.001165       0.000000
      0.001118       0.001939       0.000000
      0.001286       0.002262       0.000000
      0.000548       0.001292       0.000000
      0.000520       0.005940       0.000000
      0.000185       0.006311       0.000000
      0.000132       0.006206       0.000000
      0.000504       0.005659       0.000000
      0.001121       0.004888       0.000000
      0.000504       0.005659       0.000000
      0.000542       0.005528       0.000000
      0.001286       0.004562       0.000000
      0.000504       0.005659       0.000000
      0.000132       0.006206       0.000000
      0.000157       0.006268       0.000000
      0.000542       0.005528       0.000000
      0.000138       0.000546       0.000000
      0.000548       0.001292       0.000000
      0.000605       0.001337       0.000000
      0.000147       0.000331       0.000000
      0.000548       0.001292       0.000000
      0.001286       0.002262       0.000000
      0.001411       0.002436       0.000000
      0.000605       0.001337       0.000000
      0.000147       0.000331       0.000000
      0.000605       0.001337       0.000000
      0.000686       0.001313       0.000000
      0.000000       0.000000       0.000000
      0.000605       0.001337       0.000000
      0.001411       0.002436       0.000000
      0.001491       0.002640       0.000000
      0.000686       0.001313       0.000000
      0.001286       0.002262       0.000000
      0.002044       0.003413       0.000000
      0.002149       0.003413       0.000000
      0.001411       0.002436       0.000000
      0.002044       0.003413       0.000000
      0.001286       0.004562       0.000000
      0.001409       0.004390       0.000000
      0.002149       0.003413       0.000000
      0.001411       0.002436       0.000000
      0.002149       0.003413       0.000000
      0.002248       0.003413       0.000000
      0.001491       0.002640       0.000000
      0.002149       0.003413       0.000000
      0.001409       0.004390       0.000000
      0.001490       0.004185       0.000000
      0.002248       0.003413       0.000000
      0.001286       0.004562       0.000000
      0.000542       0.005528       0.000000
      0.000604       0.005494       0.000000
      0.001409       0.004390       0.000000
      0.000542       0.005528       0.000000
      0.000157       0.006268       0.000000
      0.000268       0.006496       0.000000
      0.000604       0.005494       0.000000
      0.001409       0.004390       0.000000
      0.000604       0.005494       0.000000
      0.000709       0.005548       0.000000
      0.001490       0.004185       0.000000
      0.000604       0.005494       0.000000
      0.000268       0.006496       0.000000
      0.000479       0.006892       0.000000
      0.000709       0.005548       0.000000
      0.001119       0.003433       0.000000
      0.001631       0.006549       0.000000
      0.001631       0.006498       0.000000
      0.001658       0.003401       0.000000
      0.001631       0.006549       0.000000
      0.001591       0.006598       0.000000
      0.001588       0.006532       0.000000
      0.001631       0.006498       0.000000
      0.001658       0.003401       0.000000
      0.001631       0.006498       0.000000
      0.001630       0.006491       0.000000
      0.001824       0.001364       0.000000
      0.001631       0.006498       0.000000
      0.001588       0.006532       0.000000
      0.001587       0.006465       0.000000
      0.001630       0.006491       0.000000
      0.001562       0.000266       0.000000
      0.001603       0.000314       0.000000
      0.001608       0.000362       0.000000
      0.001560       0.000331       0.000000
      0.001603       0.000314       0.000000
      0.001119       0.003433       0.000000
      0.001658       0.003401       0.000000
      0.001608       0.000362       0.000000
      0.001560       0.000331       0.000000
      0.001608       0.000362       0.000000
      0.001613       0.000422       0.000000
      0.001558       0.000401       0.000000
      0.001608       0.000362       0.000000
      0.001658       0.003401       0.000000
      0.001824       0.001364       0.000000
      0.001613       0.000422       0.000000
      0.001282       0.006668       0.000000
      0.001077       0.006720       0.000000
      0.000964       0.006465       0.000000
      0.001206       0.006394       0.000000
      0.001077       0.006720       0.000000
      0.000890       0.006772       0.000000
      0.000753       0.006547       0.000000
      0.000964       0.006465       0.000000
      0.001206       0.006394       0.000000
      0.000964       0.006465       0.000000
      0.000876       0.006228       0.000000
      0.001147       0.006134       0.000000
      0.000964       0.006465       0.000000
      0.000753       0.006547       0.000000
      0.000651       0.006339       0.000000
      0.000876       0.006228       0.000000
      0.001492       0.006623       0.000000
      0.001387       0.006644       0.000000
      0.001358       0.006500       0.000000
      0.001475       0.006480       0.000000
      0.001387       0.006644       0.000000
      0.001282       0.006668       0.000000
      0.001240       0.006525       0.000000
      0.001358       0.006500       0.000000
      0.001475       0.006480       0.000000
      0.001358       0.006500       0.000000
      0.001334       0.006366       0.000000
      0.001464       0.006342       0.000000
      0.001358       0.006500       0.000000
      0.001240       0.006525       0.000000
      0.001206       0.006394       0.000000
      0.001334       0.006366       0.000000
      0.001591       0.006598       0.000000
      0.001542       0.006612       0.000000
      0.001537       0.006541       0.000000
      0.001588       0.006532       0.000000
      0.001542       0.006612       0.000000
      0.001492       0.006623       0.000000
      0.001483       0.006550       0.000000
      0.001537       0.006541       0.000000
      0.001588       0.006532       0.000000
      0.001537       0.006541       0.000000
      0.001532       0.006471       0.000000
      0.001587       0.006465       0.000000
      0.001537       0.006541       0.000000
      0.001483       0.006550       0.000000
      0.001475       0.006480       0.000000
      0.001532       0.006471       0.000000
      0.000879       0.000100       0.000000
      0.001062       0.000149       0.000000
      0.000952       0.000395       0.000000
      0.000747       0.000316       0.000000
      0.001062       0.000149       0.000000
      0.001261       0.000200       0.000000
      0.001189       0.000464       0.000000
      0.000952       0.000395       0.000000
      0.000747       0.000316       0.000000
      0.000952       0.000395       0.000000
      0.000867       0.000622       0.000000
      0.000648       0.000514       0.000000
      0.000952       0.000395       0.000000
      0.001189       0.000464       0.000000
      0.001133       0.000714       0.000000
      0.000867       0.000622       0.000000
      0.001261       0.000200       0.000000
      0.001364       0.000223       0.000000
      0.001335       0.000363       0.000000
      0.001221       0.000338       0.000000
      0.001364       0.000223       0.000000
      0.001465       0.000243       0.000000
      0.001448       0.000383       0.000000
      0.001335       0.000363       0.000000
      0.001221       0.000338       0.000000
      0.001335       0.000363       0.000000
      0.001313       0.000492       0.000000
      0.001189       0.000464       0.000000
      0.001335       0.000363       0.000000
      0.001448       0.000383       0.000000
      0.001438       0.000516       0.000000
      0.001313       0.000492       0.000000
      0.001465       0.000243       0.000000
      0.001514       0.000253       0.000000
      0.001509       0.000322       0.000000
      0.001456       0.000314       0.000000
      0.001514       0.000253       0.000000
      0.001562       0.000266       0.000000
      0.001560       0.000331       0.000000
      0.001509       0.000322       0.000000
      0.001456       0.000314       0.000000
      0.001509       0.000322       0.000000
      0.001504       0.000391       0.000000
      0.001448       0.000383       0.000000
      0.001509       0.000322       0.000000
      0.001560       0.000331       0.000000
      0.001558       0.000401       0.000000
      0.001504       0.000391       0.000000
      0.001824       0.001364       0.000000
      0.001630       0.006491       0.000000
      0.001663       0.006362       0.000000
      0.001523       0.003226       0.000000
      0.001630       0.006491       0.000000
      0.001587       0.006465       0.000000
      0.001592       0.006390       0.000000
      0.001663       0.006362       0.000000
      0.001523       0.003226       0.000000
      0.001663       0.006362       0.000000
      0.001653       0.006287       0.000000
      0.001668       0.003341       0.000000
      0.001663       0.006362       0.000000
      0.001592       0.006390       0.000000
      0.001593       0.006319       0.000000
      0.001653       0.006287       0.000000
      0.001558       0.000401       0.000000
      0.001613       0.000422       0.000000
      0.001615       0.000504       0.000000
      0.001559       0.000471       0.000000
      0.001613       0.000422       0.000000
      0.001824       0.001364       0.000000
      0.001523       0.003226       0.000000
      0.001615       0.000504       0.000000
      0.001559       0.000471       0.000000
      0.001615       0.000504       0.000000
      0.001622       0.000578       0.000000
      0.001560       0.000541       0.000000
      0.001615       0.000504       0.000000
      0.001523       0.003226       0.000000
      0.001668       0.003341       0.000000
      0.001622       0.000578       0.000000
      0.001587       0.006465       0.000000
      0.001532       0.006471       0.000000
      0.001530       0.006401       0.000000
      0.001592       0.006390       0.000000
      0.001532       0.006471       0.000000
      0.001475       0.006480       0.000000
      0.001468       0.006410       0.000000
      0.001530       0.006401       0.000000
      0.001592       0.006390       0.000000
      0.001530       0.006401       0.000000
      0.001528       0.006331       0.000000
      0.001593       0.006319       0.000000
      0.001530       0.006401       0.000000
      0.001468       0.006410       0.000000
      0.001464       0.006342       0.000000
      0.001528       0.006331       0.000000
      0.001448       0.000383       0.000000
      0.001504       0.000391       0.000000
      0.001501       0.000460       0.000000
      0.001442       0.000450       0.000000
      0.001504       0.000391       0.000000
      0.001558       0.000401       0.000000
      0.001559       0.000471       0.000000
      0.001501       0.000460       0.000000
      0.001442       0.000450       0.000000
      0.001501       0.000460       0.000000
      0.001500       0.000527       0.000000
      0.001438       0.000516       0.000000
      0.001501       0.000460       0.000000
      0.001559       0.000471       0.000000
      0.001560       0.000541       0.000000
      0.001500       0.000527       0.000000
      0.001668       0.003341       0.000000
      0.001653       0.006287       0.000000
      0.001671       0.006211       0.000000
      0.001775       0.003577       0.000000
      0.001653       0.006287       0.000000
      0.001593       0.006319       0.000000
      0.001597       0.006248       0.000000
      0.001671       0.006211       0.000000
      0.001775       0.003577       0.000000
      0.001671       0.006211       0.000000
      0.001668       0.006164       0.000000
      0.001706       0.006258       0.000000
      0.001671       0.006211       0.000000
      0.001597       0.006248       0.000000
      0.001600       0.006178       0.000000
      0.001668       0.006164       0.000000
      0.001560       0.000541       0.000000
      0.001622       0.000578       0.000000
      0.001606       0.000644       0.000000