# vtk DataFile Version 2.0
time_10.vtk
ASCII
DATASET UNSTRUCTURED_GRID
POINTS   576 float
      0.458579       0.641421       0.000000
      0.497369       0.671659       0.000000
      0.438243       0.730363       0.000000
      0.382149       0.701184       0.000000
      0.497369       0.671659       0.000000
      0.545805       0.692517       0.000000
      0.506084       0.750000       0.000000
      0.438243       0.730363       0.000000
      0.382149       0.701184       0.000000
      0.438243       0.730363       0.000000
      0.380813       0.787383       0.000000
      0.305719       0.760948       0.000000
      0.438243       0.730363       0.000000
      0.506084       0.750000       0.000000
      0.468251       0.804752       0.000000
      0.380813       0.787383       0.000000
      0.545805       0.692517       0.000000
      0.600000       0.700000       0.000000
      0.581017       0.756950       0.000000
      0.506084       0.750000       0.000000
      0.600000       0.700000       0.000000
      0.654195       0.692517       0.000000
      0.656527       0.750000       0.000000
      0.581017       0.756950       0.000000
      0.506084       0.750000       0.000000
      0.581017       0.756950       0.000000
      0.563060       0.810819       0.000000
      0.468251       0.804752       0.000000
      0.581017       0.756950       0.000000
      0.656527       0.750000       0.000000
      0.658747       0.804752       0.000000
      0.563060       0.810819       0.000000
      0.654195       0.692517       0.000000
      0.702631       0.671659       0.000000
      0.725999       0.730363       0.000000
      0.656527       0.750000       0.000000
      0.702631       0.671659       0.000000
      0.741421       0.641421       0.000000
      0.784518       0.701184       0.000000
      0.725999       0.730363       0.000000
      0.656527       0.750000       0.000000
      0.725999       0.730363       0.000000
      0.748697       0.787383       0.000000
      0.658747       0.804752       0.000000
      0.725999       0.730363       0.000000
      0.784518       0.701184       0.000000
      0.827614       0.760948       0.000000
      0.748697       0.787383       0.000000
      0.305719       0.760948       0.000000
      0.380813       0.787383       0.000000
      0.325006       0.842791       0.000000
      0.229289       0.820711       0.000000
      0.380813       0.787383       0.000000
      0.468251       0.804752       0.000000
      0.432173       0.856962       0.000000
      0.325006       0.842791       0.000000
      0.229289       0.820711       0.000000
      0.325006       0.842791       0.000000
      0.270755       0.896655       0.000000
      0.152860       0.880474       0.000000
      0.325006       0.842791       0.000000
      0.432173       0.856962       0.000000
      0.397732       0.906804       0.000000
      0.270755       0.896655       0.000000
      0.468251       0.804752       0.000000
      0.563060       0.810819       0.000000
      0.546050       0.861851       0.000000
      0.432173       0.856962       0.000000
      0.563060       0.810819       0.000000
      0.658747       0.804752       0.000000
      0.660865       0.856962       0.000000
      0.546050       0.861851       0.000000
      0.432173       0.856962       0.000000
      0.546050       0.861851       0.000000
      0.529912       0.910264       0.000000
      0.397732       0.906804       0.000000
      0.546050       0.861851       0.000000
      0.660865       0.856962       0.000000
      0.662887       0.906804       0.000000
      0.529912       0.910264       0.000000
      0.658747       0.804752       0.000000
      0.748697       0.787383       0.000000
      0.770753       0.842791       0.000000
      0.660865       0.856962       0.000000
      0.748697       0.787383       0.000000
      0.827614       0.760948       0.000000
      0.870711       0.820711       0.000000
      0.770753       0.842791       0.000000
      0.660865       0.856962       0.000000
      0.770753       0.842791       0.000000
      0.792195       0.896655       0.000000
      0.662887       0.906804       0.000000
      0.770753       0.842791       0.000000
      0.870711       0.820711       0.000000
      0.913807       0.880474       0.000000
      0.792195       0.896655       0.000000
      0.152860       0.880474       0.000000
      0.270755       0.896655       0.000000
      0.217995       0.949038       0.000000
      0.076430       0.940237       0.000000
      0.270755       0.896655       0.000000
      0.397732       0.906804       0.000000
      0.364819       0.954435       0.000000
      0.217995       0.949038       0.000000
      0.076430       0.940237       0.000000
      0.217995       0.949038       0.000000
      0.166667       1.000000       0.000000
      0.000000       1.000000       0.000000
      0.217995       0.949038       0.000000
      0.364819       0.954435       0.000000
      0.333333       1.000000       0.000000
      0.166667       1.000000       0.000000
      0.397732       0.906804       0.000000
      0.529912       0.910264       0.000000
      0.514582       0.956255       0.000000
      0.364819       0.954435       0.000000
      0.529912       0.910264       0.000000
      0.662887       0.906804       0.000000
      0.664819       0.954435       0.000000
      0.514582       0.956255       0.000000
      0.364819       0.954435       0.000000
      0.514582       0.956255       0.000000
      0.500000       1.000000       0.000000
      0.333333       1.000000       0.000000
      0.514582       0.956255       0.000000
      0.664819       0.954435       0.000000
      0.666667       1.000000       0.000000
      0.500000       1.000000       0.000000
      0.662887       0.906804       0.000000
      0.792195       0.896655       0.000000
      0.813047       0.949038       0.000000
      0.664819       0.954435       0.000000
      0.792195       0.896655       0.000000
      0.913807       0.880474       0.000000
      0.956904       0.940237       0.000000
      0.813047       0.949038       0.000000
      0.664819       0.954435       0.000000
      0.813047       0.949038       0.000000
      0.833333       1.000000       0.000000
      0.666667       1.000000       0.000000
      0.813047       0.949038       0.000000
      0.956904       0.940237       0.000000
      1.000000       1.000000       0.000000
      0.833333       1.000000       0.000000
      0.458579       0.358579       0.000000
      0.428341       0.397369       0.000000
      0.351758       0.356122       0.000000
      0.382149       0.298816       0.000000
      0.428341       0.397369       0.000000
      0.407483       0.445805       0.000000
      0.331305       0.424779       0.000000
      0.351758       0.356122       0.000000
      0.382149       0.298816       0.000000
      0.351758       0.356122       0.000000
      0.277372       0.316058       0.000000
      0.305719       0.239052       0.000000
      0.351758       0.356122       0.000000
      0.331305       0.424779       0.000000
      0.258747       0.404752       0.000000
      0.277372       0.316058       0.000000
      0.407483       0.445805       0.000000
      0.400000       0.500000       0.000000
      0.324066       0.500000       0.000000
      0.331305       0.424779       0.000000
      0.400000       0.500000       0.000000
      0.407483       0.554195       0.000000
      0.331305       0.575221       0.000000
      0.324066       0.500000       0.000000
      0.331305       0.424779       0.000000
      0.324066       0.500000       0.000000
      0.252241       0.500000       0.000000
      0.258747       0.404752       0.000000
      0.324066       0.500000       0.000000
      0.331305       0.575221       0.000000
      0.258747       0.595248       0.000000
      0.252241       0.500000       0.000000
      0.407483       0.554195       0.000000
      0.428341       0.602631       0.000000
      0.351758       0.643878       0.000000
      0.331305       0.575221       0.000000
      0.428341       0.602631       0.000000
      0.458579       0.641421       0.000000
      0.382149       0.701184       0.000000
      0.351758       0.643878       0.000000
      0.331305       0.575221       0.000000
      0.351758       0.643878       0.000000
      0.277372       0.683942       0.000000
      0.258747       0.595248       0.000000
      0.351758       0.643878       0.000000
      0.382149       0.701184       0.000000
      0.305719       0.760948       0.000000
      0.277372       0.683942       0.000000
      0.305719       0.239052       0.000000
      0.277372       0.316058       0.000000
      0.205089       0.277126       0.000000
      0.229289       0.179289       0.000000
      0.277372       0.316058       0.000000
      0.258747       0.404752       0.000000
      0.189557       0.385654       0.000000
      0.205089       0.277126       0.000000
      0.229289       0.179289       0.000000
      0.205089       0.277126       0.000000
      0.134820       0.239280       0.000000
      0.152860       0.119526       0.000000
      0.205089       0.277126       0.000000
      0.189557       0.385654       0.000000
      0.123505       0.367423       0.000000
      0.134820       0.239280       0.000000
      0.258747       0.404752       0.000000
      0.252241       0.500000       0.000000
      0.184198       0.500000       0.000000
      0.189557       0.385654       0.000000
      0.252241       0.500000       0.000000
      0.258747       0.595248       0.000000
      0.189557       0.614346       0.000000
      0.184198       0.500000       0.000000
      0.189557       0.385654       0.000000
      0.184198       0.500000       0.000000
      0.119648       0.500000       0.000000
      0.123505       0.367423       0.000000
[...]
POINT_DATA   576
VECTORS U float 
      0.000411       0.005330       0.000000
      0.000211       0.005701       0.000000
      0.000036       0.005420       0.000000
      0.000268       0.004944       0.000000
      0.000211       0.005701       0.000000
      0.000004       0.005949       0.000000
     -0.000117       0.005841       0.000000
      0.000036       0.005420       0.000000
      0.000268       0.004944       0.000000
      0.000036       0.005420       0.000000
      0.000059       0.005390       0.000000
      0.000336       0.004986       0.000000
      0.000036       0.005420       0.000000
     -0.000117       0.005841       0.000000
     -0.000132       0.005795       0.000000
      0.000059       0.005390       0.000000
      0.000004       0.005949       0.000000
     -0.000211       0.006051       0.000000
     -0.000198       0.006077       0.000000
     -0.000117       0.005841       0.000000
     -0.000211       0.006051       0.000000
     -0.000445       0.005999       0.000000
     -0.000276       0.006037       0.000000
     -0.000198       0.006077       0.000000
     -0.000117       0.005841       0.000000
     -0.000198       0.006077       0.000000
     -0.000197       0.006073       0.000000
     -0.000132       0.005795       0.000000
     -0.000198       0.006077       0.000000
     -0.000276       0.006037       0.000000
     -0.000208       0.006063       0.000000
     -0.000197       0.006073       0.000000
     -0.000445       0.005999       0.000000
     -0.000710       0.005795       0.000000
     -0.000418       0.005725       0.000000
     -0.000276       0.006037       0.000000
     -0.000710       0.005795       0.000000
     -0.001001       0.005453       0.000000
     -0.000670       0.005243       0.000000
     -0.000418       0.005725       0.000000
     -0.000276       0.006037       0.000000
     -0.000418       0.005725       0.000000
     -0.000299       0.005747       0.000000
     -0.000208       0.006063       0.000000
     -0.000418       0.005725       0.000000
     -0.000670       0.005243       0.000000
     -0.000533       0.005268       0.000000
     -0.000299       0.005747       0.000000
      0.000336       0.004986       0.000000
      0.000059       0.005390       0.000000
      0.000123       0.005501       0.000000
      0.000438       0.005193       0.000000
      0.000059       0.005390       0.000000
     -0.000132       0.005795       0.000000
     -0.000113       0.005830       0.000000
      0.000123       0.005501       0.000000
      0.000438       0.005193       0.000000
      0.000123       0.005501       0.000000
      0.000201       0.005696       0.000000
      0.000558       0.005479       0.000000
      0.000123       0.005501       0.000000
     -0.000113       0.005830       0.000000
     -0.000083       0.005924       0.000000
      0.000201       0.005696       0.000000
     -0.000132       0.005795       0.000000
     -0.000197       0.006073       0.000000
     -0.000191       0.006088       0.000000
     -0.000113       0.005830       0.000000
     -0.000197       0.006073       0.000000
     -0.000208       0.006063       0.000000
     -0.000172       0.006098       0.000000
     -0.000191       0.006088       0.000000
     -0.000113       0.005830       0.000000
     -0.000191       0.006088       0.000000
     -0.000185       0.006123       0.000000
     -0.000083       0.005924       0.000000
     -0.000191       0.006088       0.000000
     -0.000172       0.006098       0.000000
     -0.000150       0.006142       0.000000
     -0.000185       0.006123       0.000000
     -0.000208       0.006063       0.000000
     -0.000299       0.005747       0.000000
     -0.000236       0.005818       0.000000
     -0.000172       0.006098       0.000000
     -0.000299       0.005747       0.000000
     -0.000533       0.005268       0.000000
     -0.000459       0.005387       0.000000
     -0.000236       0.005818       0.000000
     -0.000172       0.006098       0.000000
     -0.000236       0.005818       0.000000
     -0.000201       0.005926       0.000000
     -0.000150       0.006142       0.000000
     -0.000236       0.005818       0.000000
     -0.000459       0.005387       0.000000
     -0.000438       0.005584       0.000000
     -0.000201       0.005926       0.000000
      0.000558       0.005479       0.000000
      0.000201       0.005696       0.000000
      0.000299       0.005948       0.000000
      0.000716       0.005824       0.000000
      0.000201       0.005696       0.000000
     -0.000083       0.005924       0.000000
     -0.000043       0.006064       0.000000
      0.000299       0.005948       0.000000
      0.000716       0.005824       0.000000
      0.000299       0.005948       0.000000
      0.000426       0.006242       0.000000
      0.000936       0.006242       0.000000
      0.000299       0.005948       0.000000
     -0.000043       0.006064       0.000000
      0.000010       0.006242       0.000000
      0.000426       0.006242       0.000000
     -0.000083       0.005924       0.000000
     -0.000185       0.006123       0.000000
     -0.000181       0.006175       0.000000
     -0.000043       0.006064       0.000000
     -0.000185       0.006123       0.000000
     -0.000150       0.006142       0.000000
     -0.000138       0.006191       0.000000
     -0.000181       0.006175       0.000000
     -0.000043       0.006064       0.000000
     -0.000181       0.006175       0.000000
     -0.000177       0.006242       0.000000
      0.000010       0.006242       0.000000
     -0.000181       0.006175       0.000000
     -0.000138       0.006191       0.000000
     -0.000134       0.006242       0.000000
     -0.000177       0.006242       0.000000
     -0.000150       0.006142       0.000000
     -0.000201       0.005926       0.000000
     -0.000191       0.006067       0.000000
     -0.000138       0.006191       0.000000
     -0.000201       0.005926       0.000000
     -0.000438       0.005584       0.000000
     -0.000476       0.005870       0.000000
     -0.000191       0.006067       0.000000
     -0.000138       0.006191       0.000000
     -0.000191       0.006067       0.000000
     -0.000205       0.006242       0.000000
     -0.000134       0.006242       0.000000
     -0.000191       0.006067       0.000000
     -0.000476       0.005870       0.000000
     -0.000574       0.006242       0.000000
     -0.000205       0.006242       0.000000
      0.000359       0.000787       0.000000
      0.000549       0.001275       0.000000
      0.000530       0.001691       0.000000
      0.000216       0.001156       0.000000
      0.000549       0.001275       0.000000
      0.000697       0.001982       0.000000
      0.000884       0.002337       0.000000
      0.000530       0.001691       0.000000
      0.000216       0.001156       0.000000
      0.000530       0.001691       0.000000
      0.000603       0.001703       0.000000
      0.000256       0.001110       0.000000
      0.000530       0.001691       0.000000
      0.000884       0.002337       0.000000
      0.000998       0.002389       0.000000
      0.000603       0.001703       0.000000
      0.000697       0.001982       0.000000
      0.000731       0.003034       0.000000
      0.001080       0.003049       0.000000
      0.000884       0.002337       0.000000
      0.000731       0.003034       0.000000
      0.000725       0.004098       0.000000
      0.000920       0.003757       0.000000
      0.001080       0.003049       0.000000
      0.000884       0.002337       0.000000
      0.001080       0.003049       0.000000
      0.001207       0.003059       0.000000
      0.000998       0.002389       0.000000
      0.001080       0.003049       0.000000
      0.000920       0.003757       0.000000
      0.001036       0.003720       0.000000
      0.001207       0.003059       0.000000
      0.000725       0.004098       0.000000
      0.000597       0.004821       0.000000
      0.000583       0.004400       0.000000
      0.000920       0.003757       0.000000
      0.000597       0.004821       0.000000
      0.000411       0.005330       0.000000
      0.000268       0.004944       0.000000
      0.000583       0.004400       0.000000
      0.000920       0.003757       0.000000
      0.000583       0.004400       0.000000
      0.000669       0.004392       0.000000
      0.001036       0.003720       0.000000
      0.000583       0.004400       0.000000
      0.000268       0.004944       0.000000
      0.000336       0.004986       0.000000
      0.000669       0.004392       0.000000
      0.000256       0.001110       0.000000
      0.000603       0.001703       0.000000
      0.000688       0.001595       0.000000
      0.000301       0.000910       0.000000
      0.000603       0.001703       0.000000
      0.000998       0.002389       0.000000
      0.001111       0.002353       0.000000
      0.000688       0.001595       0.000000
      0.000301       0.000910       0.000000
      0.000688       0.001595       0.000000
      0.000765       0.001467       0.000000
      0.000309       0.000648       0.000000
      0.000688       0.001595       0.000000
      0.001111       0.002353       0.000000
      0.001224       0.002311       0.000000
      0.000765       0.001467       0.000000
      0.000998       0.002389       0.000000
      0.001207       0.003059       0.000000
      0.001323       0.003070       0.000000
      0.001111       0.002353       0.000000
      0.001207       0.003059       0.000000
      0.001036       0.003720       0.000000
      0.001150       0.003778       0.000000
      0.001323       0.003070       0.000000
      0.001111       0.002353       0.000000
      0.001323       0.003070       0.000000
      0.001449       0.003083       0.000000
      0.001224       0.002311       0.000000
      0.001323       0.003070       0.000000
      0.001150       0.003778       0.000000
      0.001268       0.003850       0.000000
      0.001449       0.003083       0.000000
      0.001036       0.003720       0.000000
      0.000669       0.004392       0.000000
      0.000773       0.004517       0.000000
      0.001150       0.003778       0.000000
      0.000669       0.004392       0.000000
      0.000336       0.004986       0.000000
      0.000438       0.005193       0.000000
      0.000773       0.004517       0.000000
      0.001150       0.003778       0.000000
      0.000773       0.004517       0.000000
      0.000877       0.004677       0.000000
      0.001268       0.003850       0.000000
      0.000773       0.004517       0.000000
      0.000438       0.005193       0.000000
      0.000558       0.005479       0.000000
      0.000877       0.004677       0.000000
      0.000309       0.000648       0.000000
      0.000765       0.001467       0.000000
      0.000832       0.001372       0.000000
      0.000250       0.000357       0.000000
      0.000765       0.001467       0.000000
      0.001224       0.002311       0.000000
      0.001332       0.002297       0.000000
      0.000832       0.001372       0.000000
      0.000250       0.000357       0.000000
      0.000832       0.001372       0.000000
      0.000891       0.001328       0.000000
      0.000000       0.000000       0.000000
      0.000832       0.001372       0.000000
      0.001332       0.002297       0.000000
      0.001427       0.002336       0.000000
      0.000891       0.001328       0.000000
      0.001224       0.002311       0.000000
      0.001449       0.003083       0.000000
      0.001577       0.003096       0.000000
      0.001332       0.002297       0.000000
      0.001449       0.003083       0.000000
      0.001268       0.003850       0.000000
      0.001382       0.003899       0.000000
      0.001577       0.003096       0.000000
      0.001332       0.002297       0.000000
      0.001577       0.003096       0.000000
      0.001694       0.003106       0.000000
      0.001427       0.002336       0.000000
      0.001577       0.003096       0.000000
      0.001382       0.003899       0.000000
      0.001489       0.003893       0.000000
      0.001694       0.003106       0.000000
      0.001268       0.003850       0.000000
      0.000877       0.004677       0.000000
      0.000983       0.004831       0.000000
      0.001382       0.003899       0.000000
      0.000877       0.004677       0.000000
      0.000558       0.005479       0.000000
      0.000716       0.005824       0.000000
      0.000983       0.004831       0.000000
      0.001382       0.003899       0.000000
      0.000983       0.004831       0.000000
      0.001104       0.004967       0.000000
      0.001489       0.003893       0.000000
      0.000983       0.004831       0.000000
      0.000716       0.005824       0.000000
      0.000936       0.006242       0.000000
      0.001104       0.004967       0.000000
     -0.000941       0.000733       0.000000
     -0.000644       0.000393       0.000000
     -0.000343       0.000468       0.000000
     -0.000593       0.000952       0.000000
     -0.000644       0.000393       0.000000
     -0.000389       0.000192       0.000000
     -0.000216       0.000162       0.000000
     -0.000343       0.000468       0.000000
     -0.000593       0.000952       0.000000
     -0.000343       0.000468       0.000000
     -0.000199       0.000454       0.000000
     -0.000432       0.000935       0.000000
     -0.000343       0.000468       0.000000
     -0.000216       0.000162       0.000000
     -0.000128       0.000146       0.000000
     -0.000199       0.000454       0.000000
     -0.000389       0.000192       0.000000
     -0.000183       0.000136       0.000000
     -0.000163       0.000117       0.000000
     -0.000216       0.000162       0.000000
     -0.000183       0.000136       0.000000
     -0.000005       0.000221       0.000000
     -0.000114       0.000321       0.000000
     -0.000163       0.000117       0.000000
     -0.000216       0.000162       0.000000
     -0.000163       0.000117       0.000000
     -0.000150       0.000127       0.000000
     -0.000128       0.000146       0.000000
     -0.000163       0.000117       0.000000
     -0.000114       0.000321       0.000000
     -0.000132       0.000366       0.000000
     -0.000150       0.000127       0.000000
     -0.000005       0.000221       0.000000
      0.000173       0.000442       0.000000
      0.000005       0.000705       0.000000
     -0.000114       0.000321       0.000000
      0.000173       0.000442       0.000000
      0.000359       0.000787       0.000000
      0.000216       0.001156       0.000000
      0.000005       0.000705       0.000000
     -0.000114       0.000321       0.000000
      0.000005       0.000705       0.000000
      0.000010       0.000729       0.000000
     -0.000132       0.000366       0.000000
      0.000005       0.000705       0.000000
      0.000216       0.001156       0.000000
      0.000256       0.001110       0.000000
      0.000010       0.000729       0.000000
     -0.000432       0.000935       0.000000
     -0.000199       0.000454       0.000000
     -0.000104       0.000388       0.000000
     -0.000323       0.000821       0.000000
     -0.000199       0.000454       0.000000
     -0.000128       0.000146       0.000000
     -0.000070       0.000123       0.000000
     -0.000104       0.000388       0.000000
     -0.000323       0.000821       0.000000
     -0.000104       0.000388       0.000000
     -0.000038       0.000284       0.000000
     -0.000253       0.000628       0.000000
     -0.000104       0.000388       0.000000
     -0.000070       0.000123       0.000000
     -0.000028       0.000091       0.000000
     -0.000038       0.000284       0.000000
     -0.000128       0.000146       0.000000
     -0.000150       0.000127       0.000000
     -0.000131       0.000122       0.000000
     -0.000070       0.000123       0.000000
     -0.000150       0.000127       0.000000
     -0.000132       0.000366       0.000000
     -0.000118       0.000336       0.000000
     -0.000131       0.000122       0.000000
     -0.000070       0.000123       0.000000
     -0.000131       0.000122       0.000000
     -0.000104       0.000099       0.000000
     -0.000028       0.000091       0.000000
     -0.000131       0.000122       0.000000
     -0.000118       0.000336       0.000000
     -0.000090       0.000252       0.000000
     -0.000104       0.000099       0.000000
     -0.000132       0.000366       0.000000
      0.000010       0.000729       0.000000
      0.000038       0.000619       0.000000
     -0.000118       0.000336       0.000000
      0.000010       0.000729       0.000000
      0.000256       0.001110       0.000000
      0.000301       0.000910       0.000000
      0.000038       0.000619       0.000000
     -0.000118       0.000336       0.000000
      0.000038       0.000619       0.000000
      0.000057       0.000436       0.000000
     -0.000090       0.000252       0.000000
      0.000038       0.000619       0.000000
      0.000301       0.000910       0.000000
      0.000309       0.000648       0.000000
      0.000057       0.000436       0.000000
     -0.000253       0.000628       0.000000
     -0.000038       0.000284       0.000000
      0.000000       0.000151       0.000000
     -0.000196       0.000352       0.000000
     -0.000038       0.000284       0.000000
     -0.000028       0.000091       0.000000
     -0.000003       0.000051       0.000000
      0.000000       0.000151       0.000000
     -0.000196       0.000352       0.000000
      0.000000       0.000151       0.000000
      0.000000       0.000000       0.000000
      0.000000       0.000000       0.000000
      0.000000       0.000151       0.000000
     -0.000003       0.000051       0.000000
      0.000000       0.000000       0.000000
      0.000000       0.000000       0.000000
     -0.000028       0.000091       0.000000
     -0.000104       0.000099       0.000000
     -0.000064       0.000057       0.000000
     -0.000003       0.000051       0.000000
     -0.000104       0.000099       0.000000
     -0.000090       0.000252       0.000000
     -0.000050       0.000134       0.000000
     -0.000064       0.000057       0.000000
     -0.000003       0.000051       0.000000
     -0.000064       0.000057       0.000000
      0.000000       0.000000       0.000000
      0.000000       0.000000       0.000000
     -0.000064       0.000057       0.000000
     -0.000050       0.000134       0.000000
      0.000000       0.000000       0.000000
      0.000000       0.000000       0.000000
     -0.000090       0.000252       0.000000
      0.000057       0.000436       0.000000
      0.000049       0.000220       0.000000
     -0.000050       0.000134       0.000000
      0.000057       0.000436       0.000000
      0.000309       0.000648       0.000000
      0.000250       0.000357       0.000000
      0.000049       0.000220       0.000000
     -0.000050       0.000134       0.000000
      0.000049       0.000220       0.000000
      0.000000       0.000000       0.000000
      0.000000       0.000000       0.000000
      0.000049       0.000220       0.000000
      0.000250       0.000357       0.000000
      0.000000       0.000000       0.000000
      0.000000       0.000000       0.000000
     -0.000941       0.000733       0.000000
     -0.001268       0.001228       0.000000
     -0.001040       0.001480       0.000000
     -0.000593       0.000952       0.000000
     -0.001268       0.001228       0.000000
     -0.001559       0.001953       0.000000
     -0.001593       0.002159       0.000000
     -0.001040       0.001480       0.000000
     -0.000593       0.000952       0.000000
     -0.001040       0.001480       0.000000
     -0.000902       0.001516       0.000000