# vtk DataFile Version 2.0
time_10.vtk
ASCII
DATASET UNSTRUCTURED_GRID
POINTS  2220 float
      0.458579       0.641421       0.000000
      0.497369       0.671659       0.000000
      0.438243       0.730363       0.000000
      0.382149       0.701184       0.000000
      0.497369       0.671659       0.000000
      0.545805       0.692517       0.000000
      0.506084       0.750000       0.000000
      0.438243       0.730363       0.000000
      0.382149       0.701184       0.000000
      0.438243       0.730363       0.000000
      0.380813       0.787383       0.000000
      0.305719       0.760948       0.000000
      0.438243       0.730363       0.000000
      0.506084       0.750000       0.000000
      0.468251       0.804752       0.000000
      0.380813       0.787383       0.000000
      0.545805       0.692517       0.000000
      0.600000       0.700000       0.000000
      0.581017       0.756950       0.000000
      0.506084       0.750000       0.000000
      0.600000       0.700000       0.000000
      0.654195       0.692517       0.000000
      0.656527       0.750000       0.000000
      0.581017       0.756950       0.000000
      0.506084       0.750000       0.000000
      0.581017       0.756950       0.000000
      0.563060       0.810819       0.000000
      0.468251       0.804752       0.000000
      0.581017       0.756950       0.000000
      0.656527       0.750000       0.000000
      0.658747       0.804752       0.000000
      0.563060       0.810819       0.000000
      0.654195       0.692517       0.000000
      0.702631       0.671659       0.000000
      0.725999       0.730363       0.000000
      0.656527       0.750000       0.000000
      0.702631       0.671659       0.000000
      0.741421       0.641421       0.000000
      0.784518       0.701184       0.000000
      0.725999       0.730363       0.000000
      0.656527       0.750000       0.000000
      0.725999       0.730363       0.000000
      0.748697       0.787383       0.000000
      0.658747       0.804752       0.000000
      0.725999       0.730363       0.000000
      0.784518       0.701184       0.000000
      0.827614       0.760948       0.000000
      0.748697       0.787383       0.000000
      0.305719       0.760948       0.000000
      0.380813       0.787383       0.000000
      0.325006       0.842791       0.000000
      0.229289       0.820711       0.000000
      0.380813       0.787383       0.000000
      0.468251       0.804752       0.000000
      0.432173       0.856962       0.000000
      0.325006       0.842791       0.000000
      0.229289       0.820711       0.000000
      0.325006       0.842791       0.000000
      0.270755       0.896655       0.000000
      0.152860       0.880474       0.000000
      0.325006       0.842791       0.000000
      0.432173       0.856962       0.000000
      0.397732       0.906804       0.000000
      0.270755       0.896655       0.000000
      0.468251       0.804752       0.000000
      0.563060       0.810819       0.000000
      0.546050       0.861851       0.000000
      0.432173       0.856962       0.000000
      0.563060       0.810819       0.000000
      0.658747       0.804752       0.000000
      0.660865       0.856962       0.000000
      0.546050       0.861851       0.000000
      0.432173       0.856962       0.000000
      0.546050       0.861851       0.000000
      0.529912       0.910264       0.000000
      0.397732       0.906804       0.000000
      0.546050       0.861851       0.000000
      0.660865       0.856962       0.000000
      0.662887       0.906804       0.000000
      0.529912       0.910264       0.000000
      0.658747       0.804752       0.000000
      0.748697       0.787383       0.000000
      0.770753       0.842791       0.000000
      0.660865       0.856962       0.000000
      0.748697       0.787383       0.000000
      0.827614       0.760948       0.000000
      0.870711       0.820711       0.000000
      0.770753       0.842791       0.000000
      0.660865       0.856962       0.000000
      0.770753       0.842791       0.000000
      0.792195       0.896655       0.000000
      0.662887       0.906804       0.000000
      0.770753       0.842791       0.000000
      0.870711       0.820711       0.000000
      0.913807       0.880474       0.000000
      0.792195       0.896655       0.000000
      0.152860       0.880474       0.000000
      0.270755       0.896655       0.000000
      0.217995       0.949038       0.000000
      0.076430       0.940237       0.000000
      0.270755       0.896655       0.000000
      0.397732       0.906804       0.000000
      0.364819       0.954435       0.000000
      0.217995       0.949038       0.000000
      0.076430       0.940237       0.000000
      0.217995       0.949038       0.000000
      0.166667       1.000000       0.000000
      0.000000       1.000000       0.000000
      0.217995       0.949038       0.000000
      0.364819       0.954435       0.000000
      0.333333       1.000000       0.000000
      0.166667       1.000000       0.000000
      0.397732       0.906804       0.000000
      0.529912       0.910264       0.000000
      0.514582       0.956255       0.000000
      0.364819       0.954435       0.000000
      0.529912       0.910264       0.000000
      0.662887       0.906804       0.000000
      0.664819       0.954435       0.000000
      0.514582       0.956255       0.000000
      0.364819       0.954435       0.000000
      0.514582       0.956255       0.000000
      0.500000       1.000000       0.000000
      0.333333       1.000000       0.000000
      0.514582       0.956255       0.000000
      0.664819       0.954435       0.000000
      0.666667       1.000000       0.000000
      0.500000       1.000000       0.000000
      0.662887       0.906804       0.000000
      0.792195       0.896655       0.000000
      0.813047       0.949038       0.000000
      0.664819       0.954435       0.000000
      0.792195       0.896655       0.000000
      0.913807       0.880474       0.000000
      0.956904       0.940237       0.000000
      0.813047       0.949038       0.000000
      0.664819       0.954435       0.000000
      0.813047       0.949038       0.000000
      0.833333       1.000000       0.000000
      0.666667       1.000000       0.000000
      0.813047       0.949038       0.000000
      0.956904       0.940237       0.000000
      1.000000       1.000000       0.000000
      0.833333       1.000000       0.000000
      0.458579       0.358579       0.000000
      0.428341       0.397369       0.000000
      0.351758       0.356122       0.000000
      0.382149       0.298816       0.000000
      0.382149       0.298816       0.000000
      0.351758       0.356122       0.000000
      0.277372       0.316058       0.000000
      0.305719       0.239052       0.000000
      0.351758       0.356122       0.000000
      0.331305       0.424779       0.000000
      0.258747       0.404752       0.000000
      0.277372       0.316058       0.000000
      0.331305       0.424779       0.000000
      0.324066       0.500000       0.000000
      0.252241       0.500000       0.000000
      0.258747       0.404752       0.000000
      0.324066       0.500000       0.000000
      0.331305       0.575221       0.000000
      0.258747       0.595248       0.000000
      0.252241       0.500000       0.000000
      0.428341       0.602631       0.000000
      0.458579       0.641421       0.000000
      0.382149       0.701184       0.000000
      0.351758       0.643878       0.000000
      0.331305       0.575221       0.000000
      0.351758       0.643878       0.000000
      0.277372       0.683942       0.000000
      0.258747       0.595248       0.000000
      0.351758       0.643878       0.000000
      0.382149       0.701184       0.000000
      0.305719       0.760948       0.000000
      0.277372       0.683942       0.000000
      0.305719       0.239052       0.000000
      0.277372       0.316058       0.000000
      0.205089       0.277126       0.000000
      0.229289       0.179289       0.000000
      0.277372       0.316058       0.000000
      0.258747       0.404752       0.000000
      0.189557       0.385654       0.000000
      0.205089       0.277126       0.000000
      0.229289       0.179289       0.000000
      0.205089       0.277126       0.000000
      0.134820       0.239280       0.000000
      0.152860       0.119526       0.000000
      0.205089       0.277126       0.000000
      0.189557       0.385654       0.000000
      0.123505       0.367423       0.000000
      0.134820       0.239280       0.000000
      0.258747       0.404752       0.000000
      0.252241       0.500000       0.000000
      0.184198       0.500000       0.000000
      0.189557       0.385654       0.000000
      0.252241       0.500000       0.000000
      0.258747       0.595248       0.000000
      0.189557       0.614346       0.000000
      0.184198       0.500000       0.000000
      0.189557       0.385654       0.000000
      0.184198       0.500000       0.000000
      0.119648       0.500000       0.000000
      0.123505       0.367423       0.000000
      0.184198       0.500000       0.000000
      0.189557       0.614346       0.000000
      0.123505       0.632577       0.000000
      0.119648       0.500000       0.000000
      0.258747       0.595248       0.000000
      0.277372       0.683942       0.000000
      0.205089       0.722874       0.000000
      0.189557       0.614346       0.000000
      0.277372       0.683942       0.000000
      0.305719       0.760948       0.000000
      0.229289       0.820711       0.000000
      0.205089       0.722874       0.000000
      0.189557       0.614346       0.000000
      0.205089       0.722874       0.000000
      0.134820       0.760720       0.000000
      0.123505       0.632577       0.000000
[...]
POINT_DATA  2220
VECTORS U float 
      0.000561       0.005810       0.000000
      0.000367       0.006198       0.000000
      0.000150       0.005885       0.000000
      0.000387       0.005386       0.000000
      0.000367       0.006198       0.000000
      0.000192       0.006472       0.000000
      0.000006       0.006327       0.000000
      0.000150       0.005885       0.000000
      0.000387       0.005386       0.000000
      0.000150       0.005885       0.000000
      0.000129       0.005839       0.000000
      0.000426       0.005409       0.000000
      0.000150       0.005885       0.000000
      0.000006       0.006327       0.000000
     -0.000073       0.006266       0.000000
      0.000129       0.005839       0.000000
      0.000192       0.006472       0.000000
      0.000058       0.006630       0.000000
     -0.000050       0.006610       0.000000
      0.000006       0.006327       0.000000
      0.000058       0.006630       0.000000
     -0.000028       0.006702       0.000000
     -0.000072       0.006722       0.000000
     -0.000050       0.006610       0.000000
      0.000006       0.006327       0.000000
     -0.000050       0.006610       0.000000
     -0.000142       0.006588       0.000000
     -0.000073       0.006266       0.000000
     -0.000050       0.006610       0.000000
     -0.000072       0.006722       0.000000
     -0.000139       0.006730       0.000000
     -0.000142       0.006588       0.000000
     -0.000028       0.006702       0.000000
     -0.000077       0.006726       0.000000
     -0.000090       0.006741       0.000000
     -0.000072       0.006722       0.000000
     -0.000077       0.006726       0.000000
     -0.000104       0.006727       0.000000
     -0.000104       0.006732       0.000000
     -0.000090       0.006741       0.000000
     -0.000072       0.006722       0.000000
     -0.000090       0.006741       0.000000
     -0.000132       0.006753       0.000000
     -0.000139       0.006730       0.000000
     -0.000090       0.006741       0.000000
     -0.000104       0.006732       0.000000
     -0.000132       0.006741       0.000000
     -0.000132       0.006753       0.000000
      0.000426       0.005409       0.000000
      0.000129       0.005839       0.000000
      0.000168       0.005955       0.000000
      0.000514       0.005622       0.000000
      0.000129       0.005839       0.000000
     -0.000073       0.006266       0.000000
     -0.000095       0.006302       0.000000
      0.000168       0.005955       0.000000
      0.000514       0.005622       0.000000
      0.000168       0.005955       0.000000
      0.000237       0.006166       0.000000
      0.000632       0.005928       0.000000
      0.000168       0.005955       0.000000
     -0.000095       0.006302       0.000000
     -0.000085       0.006407       0.000000
      0.000237       0.006166       0.000000
     -0.000073       0.006266       0.000000
     -0.000142       0.006588       0.000000
     -0.000202       0.006594       0.000000
     -0.000095       0.006302       0.000000
     -0.000142       0.006588       0.000000
     -0.000139       0.006730       0.000000
     -0.000194       0.006736       0.000000
     -0.000202       0.006594       0.000000
     -0.000095       0.006302       0.000000
     -0.000202       0.006594       0.000000
     -0.000235       0.006628       0.000000
     -0.000085       0.006407       0.000000
     -0.000202       0.006594       0.000000
     -0.000194       0.006736       0.000000
     -0.000232       0.006744       0.000000
     -0.000235       0.006628       0.000000
     -0.000139       0.006730       0.000000
     -0.000132       0.006753       0.000000
     -0.000172       0.006759       0.000000
     -0.000194       0.006736       0.000000
     -0.000132       0.006753       0.000000
     -0.000132       0.006741       0.000000
     -0.000163       0.006748       0.000000
     -0.000172       0.006759       0.000000
     -0.000194       0.006736       0.000000
     -0.000172       0.006759       0.000000
     -0.000200       0.006762       0.000000
     -0.000232       0.006744       0.000000
     -0.000172       0.006759       0.000000
     -0.000163       0.006748       0.000000
     -0.000188       0.006754       0.000000
     -0.000200       0.006762       0.000000
      0.000632       0.005928       0.000000
      0.000237       0.006166       0.000000
      0.000338       0.006440       0.000000
      0.000798       0.006300       0.000000
      0.000237       0.006166       0.000000
     -0.000085       0.006407       0.000000
     -0.000050       0.006565       0.000000
      0.000338       0.006440       0.000000
      0.000798       0.006300       0.000000
      0.000338       0.006440       0.000000
      0.000476       0.006762       0.000000
      0.001040       0.006762       0.000000
      0.000338       0.006440       0.000000
     -0.000050       0.006565       0.000000
      0.000009       0.006762       0.000000
      0.000476       0.006762       0.000000
     -0.000085       0.006407       0.000000
     -0.000235       0.006628       0.000000
     -0.000248       0.006686       0.000000
     -0.000050       0.006565       0.000000
     -0.000235       0.006628       0.000000
     -0.000232       0.006744       0.000000
     -0.000253       0.006753       0.000000
     -0.000248       0.006686       0.000000
     -0.000050       0.006565       0.000000
     -0.000248       0.006686       0.000000
     -0.000246       0.006762       0.000000
      0.000009       0.006762       0.000000
     -0.000248       0.006686       0.000000
     -0.000253       0.006753       0.000000
     -0.000259       0.006762       0.000000
     -0.000246       0.006762       0.000000
     -0.000232       0.006744       0.000000
     -0.000200       0.006762       0.000000
     -0.000215       0.006762       0.000000
     -0.000253       0.006753       0.000000
     -0.000200       0.006762       0.000000
     -0.000188       0.006754       0.000000
     -0.000205       0.006760       0.000000
     -0.000215       0.006762       0.000000
     -0.000253       0.006753       0.000000
     -0.000215       0.006762       0.000000
     -0.000218       0.006762       0.000000
     -0.000259       0.006762       0.000000
     -0.000215       0.006762       0.000000
     -0.000205       0.006760       0.000000
     -0.000210       0.006762       0.000000
     -0.000218       0.006762       0.000000
      0.000505       0.000805       0.000000
      0.000706       0.001304       0.000000
      0.000670       0.001769       0.000000
      0.000334       0.001207       0.000000
      0.000334       0.001207       0.000000
      0.000670       0.001769       0.000000
      0.000736       0.001813       0.000000
      0.000346       0.001178       0.000000
      0.000670       0.001769       0.000000
      0.001064       0.002471       0.000000
      0.001188       0.002566       0.000000
      0.000736       0.001813       0.000000
      0.001064       0.002471       0.000000
      0.001310       0.003295       0.000000
      0.001439       0.003306       0.000000
      0.001188       0.002566       0.000000
      0.001310       0.003295       0.000000
      0.001103       0.004117       0.000000
      0.001227       0.004037       0.000000
      0.001439       0.003306       0.000000
      0.000758       0.005287       0.000000
      0.000561       0.005810       0.000000
      0.000387       0.005386       0.000000
      0.000726       0.004814       0.000000
      0.001103       0.004117       0.000000
      0.000726       0.004814       0.000000
      0.000803       0.004774       0.000000
      0.001227       0.004037       0.000000
      0.000726       0.004814       0.000000
      0.000387       0.005386       0.000000
      0.000426       0.005409       0.000000
      0.000803       0.004774       0.000000
      0.000346       0.001178       0.000000
      0.000736       0.001813       0.000000
      0.000817       0.001715       0.000000
      0.000370       0.000974       0.000000
      0.000736       0.001813       0.000000
      0.001188       0.002566       0.000000
      0.001306       0.002542       0.000000
      0.000817       0.001715       0.000000
      0.000370       0.000974       0.000000
      0.000817       0.001715       0.000000
      0.000889       0.001590       0.000000
      0.000360       0.000700       0.000000
      0.000817       0.001715       0.000000
      0.001306       0.002542       0.000000
      0.001424       0.002505       0.000000
      0.000889       0.001590       0.000000
      0.001188       0.002566       0.000000
      0.001439       0.003306       0.000000
      0.001556       0.003319       0.000000
      0.001306       0.002542       0.000000
      0.001439       0.003306       0.000000
      0.001227       0.004037       0.000000
      0.001347       0.004085       0.000000
      0.001556       0.003319       0.000000
      0.001306       0.002542       0.000000
      0.001556       0.003319       0.000000
      0.001687       0.003333       0.000000
      0.001424       0.002505       0.000000
      0.001556       0.003319       0.000000
      0.001347       0.004085       0.000000
      0.001469       0.004155       0.000000
      0.001687       0.003333       0.000000
      0.001227       0.004037       0.000000
      0.000803       0.004774       0.000000
      0.000904       0.004891       0.000000
      0.001347       0.004085       0.000000
      0.000803       0.004774       0.000000
      0.000426       0.005409       0.000000
      0.000514       0.005622       0.000000
      0.000904       0.004891       0.000000
      0.001347       0.004085       0.000000
      0.000904       0.004891       0.000000
      0.001007       0.005052       0.000000
      0.001469       0.004155       0.000000
      0.000904       0.004891       0.000000
      0.000514       0.005622       0.000000
      0.000632       0.005928       0.000000
      0.001007       0.005052       0.000000
      0.000360       0.000700       0.000000
      0.000889       0.001590       0.000000
      0.000952       0.001502       0.000000
      0.000280       0.000389       0.000000
      0.000889       0.001590       0.000000
      0.001424       0.002505       0.000000
      0.001535       0.002500       0.000000
      0.000952       0.001502       0.000000
      0.000280       0.000389       0.000000
      0.000952       0.001502       0.000000
      0.001006       0.001470       0.000000
      0.000000       0.000000       0.000000
      0.000952       0.001502       0.000000
      0.001535       0.002500       0.000000
      0.001631       0.002556       0.000000
      0.001006       0.001470       0.000000
      0.001424       0.002505       0.000000
      0.001687       0.003333       0.000000
      0.001821       0.003347       0.000000
      0.001535       0.002500       0.000000
      0.001687       0.003333       0.000000
      0.001469       0.004155       0.000000
      0.001586       0.004199       0.000000
      0.001821       0.003347       0.000000
      0.001535       0.002500       0.000000
      0.001821       0.003347       0.000000
      0.001942       0.003358       0.000000
      0.001631       0.002556       0.000000
      0.001821       0.003347       0.000000
      0.001586       0.004199       0.000000
      0.001696       0.004180       0.000000
      0.001942       0.003358       0.000000
      0.001469       0.004155       0.000000
      0.001007       0.005052       0.000000
      0.001113       0.005209       0.000000
      0.001586       0.004199       0.000000
      0.001007       0.005052       0.000000
      0.000632       0.005928       0.000000
      0.000798       0.006300       0.000000
      0.001113       0.005209       0.000000
      0.001586       0.004199       0.000000
      0.001113       0.005209       0.000000
      0.001239       0.005347       0.000000
      0.001696       0.004180       0.000000
      0.001113       0.005209       0.000000
      0.000798       0.006300       0.000000
      0.001040       0.006762       0.000000
      0.001239       0.005347       0.000000
      0.001186       0.003287       0.000000
      0.001142       0.003836       0.000000
      0.001253       0.003718       0.000000
      0.001310       0.003295       0.000000
      0.001142       0.003836       0.000000
      0.001028       0.004279       0.000000
      0.001103       0.004117       0.000000
      0.001253       0.003718       0.000000
      0.000990       0.002303       0.000000
      0.001120       0.002742       0.000000
      0.001231       0.002872       0.000000
      0.001064       0.002471       0.000000
      0.001120       0.002742       0.000000
      0.001186       0.003287       0.000000
      0.001310       0.003295       0.000000
      0.001231       0.002872       0.000000
      0.001067       0.003281       0.000000
      0.001065       0.003629       0.000000
      0.001177       0.003572       0.000000
      0.001186       0.003287       0.000000
      0.001065       0.003629       0.000000
      0.001050       0.003933       0.000000
      0.001142       0.003836       0.000000
      0.001177       0.003572       0.000000
      0.001030       0.002639       0.000000
      0.001055       0.002936       0.000000
      0.001165       0.003004       0.000000
      0.001120       0.002742       0.000000
      0.001055       0.002936       0.000000
      0.001067       0.003281       0.000000
      0.001186       0.003287       0.000000
      0.001165       0.003004       0.000000
      0.000864       0.003275       0.000000
      0.000870       0.003481       0.000000
      0.000981       0.003473       0.000000
      0.000978       0.003278       0.000000
      0.000870       0.003481       0.000000
      0.000881       0.003678       0.000000
      0.000984       0.003659       0.000000
      0.000981       0.003473       0.000000
      0.000978       0.003278       0.000000
      0.000981       0.003473       0.000000
      0.001067       0.003458       0.000000
      0.001067       0.003281       0.000000
      0.000981       0.003473       0.000000
      0.000984       0.003659       0.000000
      0.001065       0.003629       0.000000
      0.001067       0.003458       0.000000
      0.000876       0.002877       0.000000
      0.000867       0.003071       0.000000
      0.000977       0.003084       0.000000
      0.000976       0.002901       0.000000
      0.000867       0.003071       0.000000
      0.000864       0.003275       0.000000
      0.000978       0.003278       0.000000
      0.000977       0.003084       0.000000
      0.000976       0.002901       0.000000
      0.000977       0.003084       0.000000
      0.001062       0.003105       0.000000
      0.001055       0.002936       0.000000
      0.000977       0.003084       0.000000
      0.000978       0.003278       0.000000
      0.001067       0.003281       0.000000
      0.001062       0.003105       0.000000
      0.000905       0.004550       0.000000
      0.000846       0.004952       0.000000
      0.000880       0.004644       0.000000
      0.001028       0.004279       0.000000
      0.000846       0.004952       0.000000
      0.000758       0.005287       0.000000
      0.000720       0.004964       0.000000
      0.000880       0.004644       0.000000
      0.001028       0.004279       0.000000
      0.000880       0.004644       0.000000
      0.000918       0.004481       0.000000
      0.001103       0.004117       0.000000
      0.000880       0.004644       0.000000
      0.000720       0.004964       0.000000
      0.000726       0.004814       0.000000
      0.000918       0.004481       0.000000
      0.000906       0.004025       0.000000
      0.000915       0.004309       0.000000
      0.001021       0.004187       0.000000
      0.001050       0.003933       0.000000
      0.000915       0.004309       0.000000
      0.000905       0.004550       0.000000
      0.000979       0.004404       0.000000
      0.001021       0.004187       0.000000
      0.001050       0.003933       0.000000
      0.001021       0.004187       0.000000
      0.001090       0.004070       0.000000
      0.001142       0.003836       0.000000
      0.001021       0.004187       0.000000
      0.000979       0.004404       0.000000
      0.001028       0.004279       0.000000
      0.001090       0.004070       0.000000
      0.000881       0.003678       0.000000
      0.000895       0.003860       0.000000
      0.000987       0.003830       0.000000
      0.000984       0.003659       0.000000
      0.000895       0.003860       0.000000
      0.000906       0.004025       0.000000
      0.000987       0.003984       0.000000
      0.000987       0.003830       0.000000
      0.000984       0.003659       0.000000
      0.000987       0.003830       0.000000
      0.001059       0.003787       0.000000
      0.001065       0.003629       0.000000
      0.000987       0.003830       0.000000
      0.000987       0.003984       0.000000
      0.001050       0.003933       0.000000
      0.001059       0.003787       0.000000
      0.000706       0.001304       0.000000
      0.000802       0.001631       0.000000
      0.000831       0.001940       0.000000
      0.000665       0.001623       0.000000
      0.000802       0.001631       0.000000
      0.000873       0.002025       0.000000
      0.000990       0.002303       0.000000
      0.000831       0.001940       0.000000
      0.000665       0.001623       0.000000
      0.000831       0.001940       0.000000
      0.000867       0.002103       0.000000
      0.000670       0.001769       0.000000
      0.000831       0.001940       0.000000
      0.000990       0.002303       0.000000
      0.001064       0.002471       0.000000
      0.000867       0.002103       0.000000
      0.000873       0.002025       0.000000
      0.000891       0.002261       0.000000
      0.000993       0.002390       0.000000
      0.000943       0.002175       0.000000
      0.000891       0.002261       0.000000
      0.000892       0.002538       0.000000
      0.001030       0.002639       0.000000
      0.000993       0.002390       0.000000
      0.000943       0.002175       0.000000
      0.000993       0.002390       0.000000
      0.001060       0.002510       0.000000
      0.000990       0.002303       0.000000
      0.000993       0.002390       0.000000
      0.001030       0.002639       0.000000
      0.001120       0.002742       0.000000
      0.001060       0.002510       0.000000
      0.000892       0.002538       0.000000
      0.000885       0.002699       0.000000
      0.000974       0.002734       0.000000
      0.000970       0.002584       0.000000
      0.000885       0.002699       0.000000
      0.000876       0.002877       0.000000
      0.000976       0.002901       0.000000
      0.000974       0.002734       0.000000
      0.000970       0.002584       0.000000
      0.000974       0.002734       0.000000
      0.001044       0.002781       0.000000
      0.001030       0.002639       0.000000
      0.000974       0.002734       0.000000
      0.000976       0.002901       0.000000
      0.001055       0.002936       0.000000
      0.001044       0.002781       0.000000
     -0.000043       0.000018       0.000000
     -0.000016       0.000014       0.000000
     -0.000015       0.000007       0.000000
     -0.000028       0.000025       0.000000
     -0.000016       0.000014       0.000000
      0.000020       0.000027       0.000000
     -0.000009       0.000016       0.000000
     -0.000015       0.000007       0.000000
     -0.000028       0.000025       0.000000
     -0.000015       0.000007       0.000000
     -0.000029       0.000005       0.000000