# vtk DataFile Version 2.0
time_10.vtk
ASCII
DATASET UNSTRUCTURED_GRID
POINTS  2220 float
      0.458579       0.641421       0.000000
      0.497369       0.671659       0.000000
      0.438243       0.730363       0.000000
      0.382149       0.701184       0.000000
      0.497369       0.671659       0.000000
      0.545805       0.692517       0.000000
      0.506084       0.750000       0.000000
      0.438243       0.730363       0.000000
      0.382149       0.701184       0.000000
      0.438243       0.730363       0.000000
      0.380813       0.787383       0.000000
      0.305719       0.760948       0.000000
      0.438243       0.730363       0.000000
      0.506084       0.750000       0.000000
      0.468251       0.804752       0.000000
      0.380813       0.787383       0.000000
      0.545805       0.692517       0.000000
      0.600000       0.700000       0.000000
      0.581017       0.756950       0.000000
      0.506084       0.750000       0.000000
      0.600000       0.700000       0.000000
      0.654195       0.692517       0.000000
      0.656527       0.750000       0.000000
      0.581017       0.756950       0.000000
      0.506084       0.750000       0.000000
      0.581017       0.756950       0.000000
      0.563060       0.810819       0.000000
      0.468251       0.804752       0.000000
      0.581017       0.756950       0.000000
      0.656527       0.750000       0.000000
      0.658747       0.804752       0.000000
      0.563060       0.810819       0.000000
      0.654195       0.692517       0.000000
      0.702631       0.671659       0.000000
      0.725999       0.730363       0.000000
      0.656527       0.750000       0.000000
      0.702631       0.671659       0.000000
      0.741421       0.641421       0.000000
      0.784518       0.701184       0.000000
      0.725999       0.730363       0.000000
      0.656527       0.750000       0.000000
      0.725999       0.730363       0.000000
      0.748697       0.787383       0.000000
      0.658747       0.804752       0.000000
      0.725999       0.730363       0.000000
      0.784518       0.701184       0.000000
      0.827614       0.760948       0.000000
      0.748697       0.787383       0.000000
      0.305719       0.760948       0.000000
      0.380813       0.787383       0.000000
      0.325006       0.842791       0.000000
      0.229289       0.820711       0.000000
      0.380813       0.787383       0.000000
      0.468251       0.804752       0.000000
      0.432173       0.856962       0.000000
      0.325006       0.842791       0.000000
      0.229289       0.820711       0.000000
      0.325006       0.842791       0.000000
      0.270755       0.896655       0.000000
      0.152860       0.880474       0.000000
      0.325006       0.842791       0.000000
      0.432173       0.856962       0.000000
      0.397732       0.906804       0.000000
      0.270755       0.896655       0.000000
      0.468251       0.804752       0.000000
      0.563060       0.810819       0.000000
      0.546050       0.861851       0.000000
      0.432173       0.856962       0.000000
      0.563060       0.810819       0.000000
      0.658747       0.804752       0.000000
      0.660865       0.856962       0.000000
      0.546050       0.861851       0.000000
      0.432173       0.856962       0.000000
      0.546050       0.861851       0.000000
      0.529912       0.910264       0.000000
      0.397732       0.906804       0.000000
      0.546050       0.861851       0.000000
      0.660865       0.856962       0.000000
      0.662887       0.906804       0.000000
      0.529912       0.910264       0.000000
      0.658747       0.804752       0.000000
      0.748697       0.787383       0.000000
      0.770753       0.842791       0.000000
      0.660865       0.856962       0.000000
      0.748697       0.787383       0.000000
      0.827614       0.760948       0.000000
      0.870711       0.820711       0.000000
      0.770753       0.842791       0.000000
      0.660865       0.856962       0.000000
      0.770753       0.842791       0.000000
      0.792195       0.896655       0.000000
      0.662887       0.906804       0.000000
      0.770753       0.842791       0.000000
      0.870711       0.820711       0.000000
      0.913807       0.880474       0.000000
      0.792195       0.896655       0.000000
      0.152860       0.880474       0.000000
      0.270755       0.896655       0.000000
      0.217995       0.949038       0.000000
      0.076430       0.940237       0.000000
      0.270755       0.896655       0.000000
      0.397732       0.906804       0.000000
      0.364819       0.954435       0.000000
      0.217995       0.949038       0.000000
      0.076430       0.940237       0.000000
      0.217995       0.949038       0.000000
      0.166667       1.000000       0.000000
      0.000000       1.000000       0.000000
      0.217995       0.949038       0.000000
      0.364819       0.954435       0.000000
      0.333333       1.000000       0.000000
      0.166667       1.000000       0.000000
      0.397732       0.906804       0.000000
      0.529912       0.910264       0.000000
      0.514582       0.956255       0.000000
      0.364819       0.954435       0.000000
      0.529912       0.910264       0.000000
      0.662887       0.906804       0.000000
      0.664819       0.954435       0.000000
      0.514582       0.956255       0.000000
      0.364819       0.954435       0.000000
      0.514582       0.956255       0.000000
      0.500000       1.000000       0.000000
      0.333333       1.000000       0.000000
      0.514582       0.956255       0.000000
      0.664819       0.954435       0.000000
      0.666667       1.000000       0.000000
      0.500000       1.000000       0.000000
      0.662887       0.906804       0.000000
      0.792195       0.896655       0.000000
      0.813047       0.949038       0.000000
      0.664819       0.954435       0.000000
      0.792195       0.896655       0.000000
      0.913807       0.880474       0.000000
      0.956904       0.940237       0.000000
      0.813047       0.949038       0.000000
      0.664819       0.954435       0.000000
      0.813047       0.949038       0.000000
      0.833333       1.000000       0.000000
      0.666667       1.000000       0.000000
      0.813047       0.949038       0.000000
      0.956904       0.940237       0.000000
      1.000000       1.000000       0.000000
      0.833333       1.000000       0.000000
      0.458579       0.358579       0.000000
      0.428341       0.397369       0.000000
      0.351758       0.356122       0.000000
      0.382149       0.298816       0.000000
      0.382149       0.298816       0.000000
      0.351758       0.356122       0.000000
      0.277372       0.316058       0.000000
      0.305719       0.239052       0.000000
      0.351758       0.356122       0.000000
      0.331305       0.424779       0.000000
      0.258747       0.404752       0.000000
      0.277372       0.316058       0.000000
      0.331305       0.424779       0.000000
      0.324066       0.500000       0.000000
      0.252241       0.500000       0.000000
      0.258747       0.404752       0.000000
      0.324066       0.500000       0.000000
      0.331305       0.575221       0.000000
      0.258747       0.595248       0.000000
      0.252241       0.500000       0.000000
      0.428341       0.602631       0.000000
      0.458579       0.641421       0.000000
      0.382149       0.701184       0.000000
      0.351758       0.643878       0.000000
      0.331305       0.575221       0.000000
      0.351758       0.643878       0.000000
      0.277372       0.683942       0.000000
      0.258747       0.595248       0.000000
      0.351758       0.643878       0.000000
      0.382149       0.701184       0.000000
      0.305719       0.760948       0.000000
      0.277372       0.683942       0.000000
      0.305719       0.239052       0.000000
      0.277372       0.316058       0.000000
      0.205089       0.277126       0.000000
      0.229289       0.179289       0.000000
      0.277372       0.316058       0.000000
      0.258747       0.404752       0.000000
      0.189557       0.385654       0.000000
      0.205089       0.277126       0.000000
      0.229289       0.179289       0.000000
      0.205089       0.277126       0.000000
      0.134820       0.239280       0.000000
      0.152860       0.119526       0.000000
      0.205089       0.277126       0.000000
      0.189557       0.385654       0.000000
      0.123505       0.367423       0.000000
      0.134820       0.239280       0.000000
      0.258747       0.404752       0.000000
      0.252241       0.500000       0.000000
      0.184198       0.500000       0.000000
      0.189557       0.385654       0.000000
      0.252241       0.500000       0.000000
      0.258747       0.595248       0.000000
      0.189557       0.614346       0.000000
      0.184198       0.500000       0.000000
      0.189557       0.385654       0.000000
      0.184198       0.500000       0.000000
      0.119648       0.500000       0.000000
      0.123505       0.367423       0.000000
      0.184198       0.500000       0.000000
      0.189557       0.614346       0.000000
      0.123505       0.632577       0.000000
      0.119648       0.500000       0.000000
      0.258747       0.595248       0.000000
      0.277372       0.683942       0.000000
      0.205089       0.722874       0.000000
      0.189557       0.614346       0.000000
      0.277372       0.683942       0.000000
      0.305719       0.760948       0.000000
      0.229289       0.820711       0.000000
      0.205089       0.722874       0.000000
      0.189557       0.614346       0.000000
      0.205089       0.722874       0.000000
      0.134820       0.760720       0.000000
      0.123505       0.632577       0.000000
[...]
POINT_DATA  2220
VECTORS U float 
      0.000558       0.005780       0.000000
      0.000364       0.006168       0.000000
      0.000148       0.005855       0.000000
      0.000385       0.005357       0.000000
      0.000364       0.006168       0.000000
      0.000190       0.006442       0.000000
      0.000004       0.006297       0.000000
      0.000148       0.005855       0.000000
      0.000385       0.005357       0.000000
      0.000148       0.005855       0.000000
      0.000128       0.005811       0.000000
      0.000425       0.005382       0.000000
      0.000148       0.005855       0.000000
      0.000004       0.006297       0.000000
     -0.000074       0.006237       0.000000
      0.000128       0.005811       0.000000
      0.000190       0.006442       0.000000
      0.000056       0.006600       0.000000
     -0.000051       0.006580       0.000000
      0.000004       0.006297       0.000000
      0.000056       0.006600       0.000000
     -0.000031       0.006673       0.000000
     -0.000074       0.006692       0.000000
     -0.000051       0.006580       0.000000
      0.000004       0.006297       0.000000
     -0.000051       0.006580       0.000000
     -0.000143       0.006558       0.000000
     -0.000074       0.006237       0.000000
     -0.000051       0.006580       0.000000
     -0.000074       0.006692       0.000000
     -0.000140       0.006700       0.000000
     -0.000143       0.006558       0.000000
     -0.000031       0.006673       0.000000
     -0.000082       0.006696       0.000000
     -0.000092       0.006711       0.000000
     -0.000074       0.006692       0.000000
     -0.000082       0.006696       0.000000
     -0.000112       0.006697       0.000000
     -0.000108       0.006699       0.000000
     -0.000092       0.006711       0.000000
     -0.000074       0.006692       0.000000
     -0.000092       0.006711       0.000000
     -0.000133       0.006723       0.000000
     -0.000140       0.006700       0.000000
     -0.000092       0.006711       0.000000
     -0.000108       0.006699       0.000000
     -0.000134       0.006708       0.000000
     -0.000133       0.006723       0.000000
      0.000425       0.005382       0.000000
      0.000128       0.005811       0.000000
      0.000167       0.005927       0.000000
      0.000513       0.005595       0.000000
      0.000128       0.005811       0.000000
     -0.000074       0.006237       0.000000
     -0.000096       0.006272       0.000000
      0.000167       0.005927       0.000000
      0.000513       0.005595       0.000000
      0.000167       0.005927       0.000000
      0.000237       0.006138       0.000000
      0.000630       0.005901       0.000000
      0.000167       0.005927       0.000000
     -0.000096       0.006272       0.000000
     -0.000085       0.006378       0.000000
      0.000237       0.006138       0.000000
     -0.000074       0.006237       0.000000
     -0.000143       0.006558       0.000000
     -0.000202       0.006564       0.000000
     -0.000096       0.006272       0.000000
     -0.000143       0.006558       0.000000
     -0.000140       0.006700       0.000000
     -0.000194       0.006706       0.000000
     -0.000202       0.006564       0.000000
     -0.000096       0.006272       0.000000
     -0.000202       0.006564       0.000000
     -0.000235       0.006598       0.000000
     -0.000085       0.006378       0.000000
     -0.000202       0.006564       0.000000
     -0.000194       0.006706       0.000000
     -0.000231       0.006714       0.000000
     -0.000235       0.006598       0.000000
     -0.000140       0.006700       0.000000
     -0.000133       0.006723       0.000000
     -0.000172       0.006728       0.000000
     -0.000194       0.006706       0.000000
     -0.000133       0.006723       0.000000
     -0.000134       0.006708       0.000000
     -0.000163       0.006714       0.000000
     -0.000172       0.006728       0.000000
     -0.000194       0.006706       0.000000
     -0.000172       0.006728       0.000000
     -0.000199       0.006730       0.000000
     -0.000231       0.006714       0.000000
     -0.000172       0.006728       0.000000
     -0.000163       0.006714       0.000000
     -0.000188       0.006720       0.000000
     -0.000199       0.006730       0.000000
      0.000630       0.005901       0.000000
      0.000237       0.006138       0.000000
      0.000338       0.006411       0.000000
      0.000796       0.006272       0.000000
      0.000237       0.006138       0.000000
     -0.000085       0.006378       0.000000
     -0.000050       0.006535       0.000000
      0.000338       0.006411       0.000000
      0.000796       0.006272       0.000000
      0.000338       0.006411       0.000000
      0.000476       0.006732       0.000000
      0.001037       0.006732       0.000000
      0.000338       0.006411       0.000000
     -0.000050       0.006535       0.000000
      0.000009       0.006732       0.000000
      0.000476       0.006732       0.000000
     -0.000085       0.006378       0.000000
     -0.000235       0.006598       0.000000
     -0.000248       0.006656       0.000000
     -0.000050       0.006535       0.000000
     -0.000235       0.006598       0.000000
     -0.000231       0.006714       0.000000
     -0.000252       0.006723       0.000000
     -0.000248       0.006656       0.000000
     -0.000050       0.006535       0.000000
     -0.000248       0.006656       0.000000
     -0.000245       0.006732       0.000000
      0.000009       0.006732       0.000000
     -0.000248       0.006656       0.000000
     -0.000252       0.006723       0.000000
     -0.000258       0.006732       0.000000
     -0.000245       0.006732       0.000000
     -0.000231       0.006714       0.000000
     -0.000199       0.006730       0.000000
     -0.000214       0.006731       0.000000
     -0.000252       0.006723       0.000000
     -0.000199       0.006730       0.000000
     -0.000188       0.006720       0.000000
     -0.000205       0.006728       0.000000
     -0.000214       0.006731       0.000000
     -0.000252       0.006723       0.000000
     -0.000214       0.006731       0.000000
     -0.000216       0.006732       0.000000
     -0.000258       0.006732       0.000000
     -0.000214       0.006731       0.000000
     -0.000205       0.006728       0.000000
     -0.000211       0.006732       0.000000
     -0.000216       0.006732       0.000000
      0.000501       0.000806       0.000000
      0.000701       0.001306       0.000000
      0.000666       0.001768       0.000000
      0.000332       0.001206       0.000000
      0.000332       0.001206       0.000000
      0.000666       0.001768       0.000000
      0.000733       0.001809       0.000000
      0.000345       0.001176       0.000000
      0.000666       0.001768       0.000000
      0.001057       0.002466       0.000000
      0.001180       0.002556       0.000000
      0.000733       0.001809       0.000000
      0.001057       0.002466       0.000000
      0.001297       0.003281       0.000000
      0.001427       0.003292       0.000000
      0.001180       0.002556       0.000000
      0.001297       0.003281       0.000000
      0.001097       0.004092       0.000000
      0.001220       0.004018       0.000000
      0.001427       0.003292       0.000000
      0.000753       0.005256       0.000000
      0.000558       0.005780       0.000000
      0.000385       0.005357       0.000000
      0.000723       0.004787       0.000000
      0.001097       0.004092       0.000000
      0.000723       0.004787       0.000000
      0.000800       0.004749       0.000000
      0.001220       0.004018       0.000000
      0.000723       0.004787       0.000000
      0.000385       0.005357       0.000000
      0.000425       0.005382       0.000000
      0.000800       0.004749       0.000000
      0.000345       0.001176       0.000000
      0.000733       0.001809       0.000000
      0.000813       0.001709       0.000000
      0.000369       0.000971       0.000000
      0.000733       0.001809       0.000000
      0.001180       0.002556       0.000000
      0.001298       0.002532       0.000000
      0.000813       0.001709       0.000000
      0.000369       0.000971       0.000000
      0.000813       0.001709       0.000000
      0.000885       0.001584       0.000000
      0.000359       0.000698       0.000000
      0.000813       0.001709       0.000000
      0.001298       0.002532       0.000000
      0.001416       0.002494       0.000000
      0.000885       0.001584       0.000000
      0.001180       0.002556       0.000000
      0.001427       0.003292       0.000000
      0.001545       0.003304       0.000000
      0.001298       0.002532       0.000000
      0.001427       0.003292       0.000000
      0.001220       0.004018       0.000000
      0.001339       0.004066       0.000000
      0.001545       0.003304       0.000000
      0.001298       0.002532       0.000000
      0.001545       0.003304       0.000000
      0.001675       0.003318       0.000000
      0.001416       0.002494       0.000000
      0.001545       0.003304       0.000000
      0.001339       0.004066       0.000000
      0.001460       0.004137       0.000000
      0.001675       0.003318       0.000000
      0.001220       0.004018       0.000000
      0.000800       0.004749       0.000000
      0.000900       0.004867       0.000000
      0.001339       0.004066       0.000000
      0.000800       0.004749       0.000000
      0.000425       0.005382       0.000000
      0.000513       0.005595       0.000000
      0.000900       0.004867       0.000000
      0.001339       0.004066       0.000000
      0.000900       0.004867       0.000000
      0.001003       0.005029       0.000000
      0.001460       0.004137       0.000000
      0.000900       0.004867       0.000000
      0.000513       0.005595       0.000000
      0.000630       0.005901       0.000000
      0.001003       0.005029       0.000000
      0.000359       0.000698       0.000000
      0.000885       0.001584       0.000000
      0.000947       0.001495       0.000000
      0.000280       0.000387       0.000000
      0.000885       0.001584       0.000000
      0.001416       0.002494       0.000000
      0.001526       0.002488       0.000000
      0.000947       0.001495       0.000000
      0.000280       0.000387       0.000000
      0.000947       0.001495       0.000000
      0.001002       0.001462       0.000000
      0.000000       0.000000       0.000000
      0.000947       0.001495       0.000000
      0.001526       0.002488       0.000000
      0.001622       0.002543       0.000000
      0.001002       0.001462       0.000000
      0.001416       0.002494       0.000000
      0.001675       0.003318       0.000000
      0.001809       0.003332       0.000000
      0.001526       0.002488       0.000000
      0.001675       0.003318       0.000000
      0.001460       0.004137       0.000000
      0.001578       0.004181       0.000000
      0.001809       0.003332       0.000000
      0.001526       0.002488       0.000000
      0.001809       0.003332       0.000000
      0.001930       0.003343       0.000000
      0.001622       0.002543       0.000000
      0.001809       0.003332       0.000000
      0.001578       0.004181       0.000000
      0.001687       0.004163       0.000000
      0.001930       0.003343       0.000000
      0.001460       0.004137       0.000000
      0.001003       0.005029       0.000000
      0.001109       0.005186       0.000000
      0.001578       0.004181       0.000000
      0.001003       0.005029       0.000000
      0.000630       0.005901       0.000000
      0.000796       0.006272       0.000000
      0.001109       0.005186       0.000000
      0.001578       0.004181       0.000000
      0.001109       0.005186       0.000000
      0.001235       0.005324       0.000000
      0.001687       0.004163       0.000000
      0.001109       0.005186       0.000000
      0.000796       0.006272       0.000000
      0.001037       0.006732       0.000000
      0.001235       0.005324       0.000000
      0.001174       0.003273       0.000000
      0.001133       0.003808       0.000000
      0.001243       0.003697       0.000000
      0.001297       0.003281       0.000000
      0.001133       0.003808       0.000000
      0.001021       0.004248       0.000000
      0.001097       0.004092       0.000000
      0.001243       0.003697       0.000000
      0.000984       0.002305       0.000000
      0.001111       0.002741       0.000000
      0.001221       0.002863       0.000000
      0.001057       0.002466       0.000000
      0.001111       0.002741       0.000000
      0.001174       0.003273       0.000000
      0.001297       0.003281       0.000000
      0.001221       0.002863       0.000000
      0.001057       0.003267       0.000000
      0.001056       0.003601       0.000000
      0.001165       0.003549       0.000000
      0.001174       0.003273       0.000000
      0.001056       0.003601       0.000000
      0.001041       0.003899       0.000000
      0.001133       0.003808       0.000000
      0.001165       0.003549       0.000000
      0.001022       0.002643       0.000000
      0.001046       0.002935       0.000000
      0.001154       0.002997       0.000000
      0.001111       0.002741       0.000000
      0.001046       0.002935       0.000000
      0.001057       0.003267       0.000000
      0.001174       0.003273       0.000000
      0.001154       0.002997       0.000000
      0.000864       0.003261       0.000000
      0.000868       0.003458       0.000000
      0.000975       0.003450       0.000000
      0.000972       0.003264       0.000000
      0.000868       0.003458       0.000000
      0.000878       0.003648       0.000000
      0.000978       0.003629       0.000000
      0.000975       0.003450       0.000000
      0.000972       0.003264       0.000000
      0.000975       0.003450       0.000000
      0.001058       0.003437       0.000000
      0.001057       0.003267       0.000000
      0.000975       0.003450       0.000000
      0.000978       0.003629       0.000000
      0.001056       0.003601       0.000000
      0.001058       0.003437       0.000000
      0.000872       0.002878       0.000000
      0.000866       0.003065       0.000000
      0.000971       0.003079       0.000000
      0.000969       0.002902       0.000000
      0.000866       0.003065       0.000000
      0.000864       0.003261       0.000000
      0.000972       0.003264       0.000000
      0.000971       0.003079       0.000000
      0.000969       0.002902       0.000000
      0.000971       0.003079       0.000000
      0.001053       0.003098       0.000000
      0.001046       0.002935       0.000000
      0.000971       0.003079       0.000000
      0.000972       0.003264       0.000000
      0.001057       0.003267       0.000000
      0.001053       0.003098       0.000000
      0.000897       0.004515       0.000000
      0.000840       0.004920       0.000000
      0.000876       0.004614       0.000000
      0.001021       0.004248       0.000000
      0.000840       0.004920       0.000000
      0.000753       0.005256       0.000000
      0.000716       0.004934       0.000000
      0.000876       0.004614       0.000000
      0.001021       0.004248       0.000000
      0.000876       0.004614       0.000000
      0.000914       0.004455       0.000000
      0.001097       0.004092       0.000000
      0.000876       0.004614       0.000000
      0.000716       0.004934       0.000000
      0.000723       0.004787       0.000000
      0.000914       0.004455       0.000000
      0.000898       0.003988       0.000000
      0.000906       0.004272       0.000000
      0.001013       0.004152       0.000000
      0.001041       0.003899       0.000000
      0.000906       0.004272       0.000000
      0.000897       0.004515       0.000000
      0.000972       0.004371       0.000000
      0.001013       0.004152       0.000000
      0.001041       0.003899       0.000000
      0.001013       0.004152       0.000000
      0.001083       0.004040       0.000000
      0.001133       0.003808       0.000000
      0.001013       0.004152       0.000000
      0.000972       0.004371       0.000000
      0.001021       0.004248       0.000000
      0.001083       0.004040       0.000000
      0.000878       0.003648       0.000000
      0.000889       0.003825       0.000000
      0.000979       0.003795       0.000000
      0.000978       0.003629       0.000000
      0.000889       0.003825       0.000000
      0.000898       0.003988       0.000000
      0.000979       0.003948       0.000000
      0.000979       0.003795       0.000000
      0.000978       0.003629       0.000000
      0.000979       0.003795       0.000000
      0.001050       0.003756       0.000000
      0.001056       0.003601       0.000000
      0.000979       0.003795       0.000000
      0.000979       0.003948       0.000000
      0.001041       0.003899       0.000000
      0.001050       0.003756       0.000000
      0.000701       0.001306       0.000000
      0.000795       0.001633       0.000000
      0.000826       0.001941       0.000000
      0.000661       0.001623       0.000000
      0.000795       0.001633       0.000000
      0.000865       0.002030       0.000000
      0.000984       0.002305       0.000000
      0.000826       0.001941       0.000000
      0.000661       0.001623       0.000000
      0.000826       0.001941       0.000000
      0.000863       0.002101       0.000000
      0.000666       0.001768       0.000000
      0.000826       0.001941       0.000000
      0.000984       0.002305       0.000000
      0.001057       0.002466       0.000000
      0.000863       0.002101       0.000000
      0.000865       0.002030       0.000000
      0.000883       0.002268       0.000000
      0.000985       0.002395       0.000000
      0.000937       0.002180       0.000000
      0.000883       0.002268       0.000000
      0.000884       0.002545       0.000000
      0.001022       0.002643       0.000000
      0.000985       0.002395       0.000000
      0.000937       0.002180       0.000000
      0.000985       0.002395       0.000000
      0.001053       0.002511       0.000000
      0.000984       0.002305       0.000000
      0.000985       0.002395       0.000000
      0.001022       0.002643       0.000000
      0.001111       0.002741       0.000000
      0.001053       0.002511       0.000000
      0.000884       0.002545       0.000000
      0.000879       0.002704       0.000000
      0.000967       0.002739       0.000000
      0.000962       0.002591       0.000000
      0.000879       0.002704       0.000000
      0.000872       0.002878       0.000000
      0.000969       0.002902       0.000000
      0.000967       0.002739       0.000000
      0.000962       0.002591       0.000000
      0.000967       0.002739       0.000000
      0.001036       0.002783       0.000000
      0.001022       0.002643       0.000000
      0.000967       0.002739       0.000000
      0.000969       0.002902       0.000000
      0.001046       0.002935       0.000000
      0.001036       0.002783       0.000000
     -0.000051       0.000018       0.000000
     -0.000021       0.000013       0.000000
     -0.000018       0.000008       0.000000
     -0.000032       0.000027       0.000000
     -0.000021       0.000013       0.000000
      0.000017       0.000027       0.000000
     -0.000011       0.000016       0.000000
     -0.000018       0.000008       0.000000
     -0.000032       0.000027       0.000000
     -0.000018       0.000008       0.000000
     -0.000031       0.000006       0.000000