# vtk DataFile Version 2.0
time_10.vtk
ASCII
DATASET UNSTRUCTURED_GRID
POINTS   576 float
      0.458579       0.641421       0.000000
      0.497369       0.671659       0.000000
      0.438243       0.730363       0.000000
      0.382149       0.701184       0.000000
      0.497369       0.671659       0.000000
      0.545805       0.692517       0.000000
      0.506084       0.750000       0.000000
      0.438243       0.730363       0.000000
      0.382149       0.701184       0.000000
      0.438243       0.730363       0.000000
      0.380813       0.787383       0.000000
      0.305719       0.760948       0.000000
      0.438243       0.730363       0.000000
      0.506084       0.750000       0.000000
      0.468251       0.804752       0.000000
      0.380813       0.787383       0.000000
      0.545805       0.692517       0.000000
      0.600000       0.700000       0.000000
      0.581017       0.756950       0.000000
      0.506084       0.750000       0.000000
      0.600000       0.700000       0.000000
      0.654195       0.692517       0.000000
      0.656527       0.750000       0.000000
      0.581017       0.756950       0.000000
      0.506084       0.750000       0.000000
      0.581017       0.756950       0.000000
      0.563060       0.810819       0.000000
      0.468251       0.804752       0.000000
      0.581017       0.756950       0.000000
      0.656527       0.750000       0.000000
      0.658747       0.804752       0.000000
      0.563060       0.810819       0.000000
      0.654195       0.692517       0.000000
      0.702631       0.671659       0.000000
      0.725999       0.730363       0.000000
      0.656527       0.750000       0.000000
      0.702631       0.671659       0.000000
      0.741421       0.641421       0.000000
      0.784518       0.701184       0.000000
      0.725999       0.730363       0.000000
      0.656527       0.750000       0.000000
      0.725999       0.730363       0.000000
      0.748697       0.787383       0.000000
      0.658747       0.804752       0.000000
      0.725999       0.730363       0.000000
      0.784518       0.701184       0.000000
      0.827614       0.760948       0.000000
      0.748697       0.787383       0.000000
      0.305719       0.760948       0.000000
      0.380813       0.787383       0.000000
      0.325006       0.842791       0.000000
      0.229289       0.820711       0.000000
      0.380813       0.787383       0.000000
      0.468251       0.804752       0.000000
      0.432173       0.856962       0.000000
      0.325006       0.842791       0.000000
      0.229289       0.820711       0.000000
      0.325006       0.842791       0.000000
      0.270755       0.896655       0.000000
      0.152860       0.880474       0.000000
      0.325006       0.842791       0.000000
      0.432173       0.856962       0.000000
      0.397732       0.906804       0.000000
      0.270755       0.896655       0.000000
      0.468251       0.804752       0.000000
      0.563060       0.810819       0.000000
      0.546050       0.861851       0.000000
      0.432173       0.856962       0.000000
      0.563060       0.810819       0.000000
      0.658747       0.804752       0.000000
      0.660865       0.856962       0.000000
      0.546050       0.861851       0.000000
      0.432173       0.856962       0.000000
      0.546050       0.861851       0.000000
      0.529912       0.910264       0.000000
      0.397732       0.906804       0.000000
      0.546050       0.861851       0.000000
      0.660865       0.856962       0.000000
      0.662887       0.906804       0.000000
      0.529912       0.910264       0.000000
      0.658747       0.804752       0.000000
      0.748697       0.787383       0.000000
      0.770753       0.842791       0.000000
      0.660865       0.856962       0.000000
      0.748697       0.787383       0.000000
      0.827614       0.760948       0.000000
      0.870711       0.820711       0.000000
      0.770753       0.842791       0.000000
      0.660865       0.856962       0.000000
      0.770753       0.842791       0.000000
      0.792195       0.896655       0.000000
      0.662887       0.906804       0.000000
      0.770753       0.842791       0.000000
      0.870711       0.820711       0.000000
      0.913807       0.880474       0.000000
      0.792195       0.896655       0.000000
      0.152860       0.880474       0.000000
      0.270755       0.896655       0.000000
      0.217995       0.949038       0.000000
      0.076430       0.940237       0.000000
      0.270755       0.896655       0.000000
      0.397732       0.906804       0.000000
      0.364819       0.954435       0.000000
      0.217995       0.949038       0.000000
      0.076430       0.940237       0.000000
      0.217995       0.949038       0.000000
      0.166667       1.000000       0.000000
      0.000000       1.000000       0.000000
      0.217995       0.949038       0.000000
      0.364819       0.954435       0.000000
      0.333333       1.000000       0.000000
      0.166667       1.000000       0.000000
      0.397732       0.906804       0.000000
      0.529912       0.910264       0.000000
      0.514582       0.956255       0.000000
      0.364819       0.954435       0.000000
      0.529912       0.910264       0.000000
      0.662887       0.906804       0.000000
      0.664819       0.954435       0.000000
      0.514582       0.956255       0.000000
      0.364819       0.954435       0.000000
      0.514582       0.956255       0.000000
      0.500000       1.000000       0.000000
      0.333333       1.000000       0.000000
      0.514582       0.956255       0.000000
      0.664819       0.954435       0.000000
      0.666667       1.000000       0.000000
      0.500000       1.000000       0.000000
      0.662887       0.906804       0.000000
      0.792195       0.896655       0.000000
      0.813047       0.949038       0.000000
      0.664819       0.954435       0.000000
      0.792195       0.896655       0.000000
      0.913807       0.880474       0.000000
      0.956904       0.940237       0.000000
      0.813047       0.949038       0.000000
      0.664819       0.954435       0.000000
      0.813047       0.949038       0.000000
      0.833333       1.000000       0.000000
      0.666667       1.000000       0.000000
      0.813047       0.949038       0.000000
      0.956904       0.940237       0.000000
      1.000000       1.000000       0.000000
      0.833333       1.000000       0.000000
      0.458579       0.358579       0.000000
      0.428341       0.397369       0.000000
      0.351758       0.356122       0.000000
      0.382149       0.298816       0.000000
      0.428341       0.397369       0.000000
      0.407483       0.445805       0.000000
      0.331305       0.424779       0.000000
      0.351758       0.356122       0.000000
      0.382149       0.298816       0.000000
      0.351758       0.356122       0.000000
      0.277372       0.316058       0.000000
      0.305719       0.239052       0.000000
      0.351758       0.356122       0.000000
      0.331305       0.424779       0.000000
      0.258747       0.404752       0.000000
      0.277372       0.316058       0.000000
      0.407483       0.445805       0.000000
      0.400000       0.500000       0.000000
      0.324066       0.500000       0.000000
      0.331305       0.424779       0.000000
      0.400000       0.500000       0.000000
      0.407483       0.554195       0.000000
      0.331305       0.575221       0.000000
      0.324066       0.500000       0.000000
      0.331305       0.424779       0.000000
      0.324066       0.500000       0.000000
      0.252241       0.500000       0.000000
      0.258747       0.404752       0.000000
      0.324066       0.500000       0.000000
      0.331305       0.575221       0.000000
      0.258747       0.595248       0.000000
      0.252241       0.500000       0.000000
      0.407483       0.554195       0.000000
      0.428341       0.602631       0.000000
      0.351758       0.643878       0.000000
      0.331305       0.575221       0.000000
      0.428341       0.602631       0.000000
      0.458579       0.641421       0.000000
      0.382149       0.701184       0.000000
      0.351758       0.643878       0.000000
      0.331305       0.575221       0.000000
      0.351758       0.643878       0.000000
      0.277372       0.683942       0.000000
      0.258747       0.595248       0.000000
      0.351758       0.643878       0.000000
      0.382149       0.701184       0.000000
      0.305719       0.760948       0.000000
      0.277372       0.683942       0.000000
      0.305719       0.239052       0.000000
      0.277372       0.316058       0.000000
      0.205089       0.277126       0.000000
      0.229289       0.179289       0.000000
      0.277372       0.316058       0.000000
      0.258747       0.404752       0.000000
      0.189557       0.385654       0.000000
      0.205089       0.277126       0.000000
      0.229289       0.179289       0.000000
      0.205089       0.277126       0.000000
      0.134820       0.239280       0.000000
      0.152860       0.119526       0.000000
      0.205089       0.277126       0.000000
      0.189557       0.385654       0.000000
      0.123505       0.367423       0.000000
      0.134820       0.239280       0.000000
      0.258747       0.404752       0.000000
      0.252241       0.500000       0.000000
      0.184198       0.500000       0.000000
      0.189557       0.385654       0.000000
      0.252241       0.500000       0.000000
      0.258747       0.595248       0.000000
      0.189557       0.614346       0.000000
      0.184198       0.500000       0.000000
      0.189557       0.385654       0.000000
      0.184198       0.500000       0.000000
      0.119648       0.500000       0.000000
      0.123505       0.367423       0.000000
[...]
POINT_DATA   576
VECTORS U float 
      0.000378       0.004909       0.000000
      0.000195       0.005262       0.000000
      0.000032       0.004998       0.000000
      0.000250       0.004553       0.000000
      0.000195       0.005262       0.000000
      0.000002       0.005498       0.000000
     -0.000111       0.005395       0.000000
      0.000032       0.004998       0.000000
      0.000250       0.004553       0.000000
      0.000032       0.004998       0.000000
      0.000058       0.004974       0.000000
      0.000317       0.004601       0.000000
      0.000032       0.004998       0.000000
     -0.000111       0.005395       0.000000
     -0.000123       0.005354       0.000000
      0.000058       0.004974       0.000000
      0.000002       0.005498       0.000000
     -0.000199       0.005594       0.000000
     -0.000187       0.005618       0.000000
     -0.000111       0.005395       0.000000
     -0.000199       0.005594       0.000000
     -0.000417       0.005544       0.000000
     -0.000259       0.005580       0.000000
     -0.000187       0.005618       0.000000
     -0.000111       0.005395       0.000000
     -0.000187       0.005618       0.000000
     -0.000185       0.005616       0.000000
     -0.000123       0.005354       0.000000
     -0.000187       0.005618       0.000000
     -0.000259       0.005580       0.000000
     -0.000196       0.005606       0.000000
     -0.000185       0.005616       0.000000
     -0.000417       0.005544       0.000000
     -0.000664       0.005348       0.000000
     -0.000393       0.005284       0.000000
     -0.000259       0.005580       0.000000
     -0.000664       0.005348       0.000000
     -0.000933       0.005022       0.000000
     -0.000628       0.004829       0.000000
     -0.000393       0.005284       0.000000
     -0.000259       0.005580       0.000000
     -0.000393       0.005284       0.000000
     -0.000284       0.005307       0.000000
     -0.000196       0.005606       0.000000
     -0.000393       0.005284       0.000000
     -0.000628       0.004829       0.000000
     -0.000505       0.004860       0.000000
     -0.000284       0.005307       0.000000
      0.000317       0.004601       0.000000
      0.000058       0.004974       0.000000
      0.000120       0.005083       0.000000
      0.000415       0.004802       0.000000
      0.000058       0.004974       0.000000
     -0.000123       0.005354       0.000000
     -0.000103       0.005389       0.000000
      0.000120       0.005083       0.000000
      0.000415       0.004802       0.000000
      0.000120       0.005083       0.000000
      0.000196       0.005269       0.000000
      0.000529       0.005074       0.000000
      0.000120       0.005083       0.000000
     -0.000103       0.005389       0.000000
     -0.000073       0.005480       0.000000
      0.000196       0.005269       0.000000
     -0.000123       0.005354       0.000000
     -0.000185       0.005616       0.000000
     -0.000179       0.005631       0.000000
     -0.000103       0.005389       0.000000
     -0.000185       0.005616       0.000000
     -0.000196       0.005606       0.000000
     -0.000163       0.005640       0.000000
     -0.000179       0.005631       0.000000
     -0.000103       0.005389       0.000000
     -0.000179       0.005631       0.000000
     -0.000173       0.005666       0.000000
     -0.000073       0.005480       0.000000
     -0.000179       0.005631       0.000000
     -0.000163       0.005640       0.000000
     -0.000144       0.005684       0.000000
     -0.000173       0.005666       0.000000
     -0.000196       0.005606       0.000000
     -0.000284       0.005307       0.000000
     -0.000226       0.005377       0.000000
     -0.000163       0.005640       0.000000
     -0.000284       0.005307       0.000000
     -0.000505       0.004860       0.000000
     -0.000439       0.004977       0.000000
     -0.000226       0.005377       0.000000
     -0.000163       0.005640       0.000000
     -0.000226       0.005377       0.000000
     -0.000196       0.005481       0.000000
     -0.000144       0.005684       0.000000
     -0.000226       0.005377       0.000000
     -0.000439       0.004977       0.000000
     -0.000420       0.005165       0.000000
     -0.000196       0.005481       0.000000
      0.000529       0.005074       0.000000
      0.000196       0.005269       0.000000
      0.000289       0.005507       0.000000
      0.000677       0.005396       0.000000
      0.000196       0.005269       0.000000
     -0.000073       0.005480       0.000000
     -0.000034       0.005614       0.000000
      0.000289       0.005507       0.000000
      0.000677       0.005396       0.000000
      0.000289       0.005507       0.000000
      0.000409       0.005782       0.000000
      0.000880       0.005782       0.000000
      0.000289       0.005507       0.000000
     -0.000034       0.005614       0.000000
      0.000016       0.005782       0.000000
      0.000409       0.005782       0.000000
     -0.000073       0.005480       0.000000
     -0.000173       0.005666       0.000000
     -0.000168       0.005717       0.000000
     -0.000034       0.005614       0.000000
     -0.000173       0.005666       0.000000
     -0.000144       0.005684       0.000000
     -0.000133       0.005732       0.000000
     -0.000168       0.005717       0.000000
     -0.000034       0.005614       0.000000
     -0.000168       0.005717       0.000000
     -0.000164       0.005782       0.000000
      0.000016       0.005782       0.000000
     -0.000168       0.005717       0.000000
     -0.000133       0.005732       0.000000
     -0.000129       0.005782       0.000000
     -0.000164       0.005782       0.000000
     -0.000144       0.005684       0.000000
     -0.000196       0.005481       0.000000
     -0.000187       0.005616       0.000000
     -0.000133       0.005732       0.000000
     -0.000196       0.005481       0.000000
     -0.000420       0.005165       0.000000
     -0.000456       0.005433       0.000000
     -0.000187       0.005616       0.000000
     -0.000133       0.005732       0.000000
     -0.000187       0.005616       0.000000
     -0.000200       0.005782       0.000000
     -0.000129       0.005782       0.000000
     -0.000187       0.005616       0.000000
     -0.000456       0.005433       0.000000
     -0.000548       0.005782       0.000000
     -0.000200       0.005782       0.000000
      0.000329       0.000753       0.000000
      0.000501       0.001217       0.000000
      0.000489       0.001594       0.000000
      0.000200       0.001095       0.000000
      0.000501       0.001217       0.000000
      0.000635       0.001883       0.000000
      0.000810       0.002186       0.000000
      0.000489       0.001594       0.000000
      0.000200       0.001095       0.000000
      0.000489       0.001594       0.000000
      0.000558       0.001593       0.000000
      0.000239       0.001045       0.000000
      0.000489       0.001594       0.000000
      0.000810       0.002186       0.000000
      0.000915       0.002220       0.000000
      0.000558       0.001593       0.000000
      0.000635       0.001883       0.000000
      0.000677       0.002810       0.000000
      0.000979       0.002824       0.000000
      0.000810       0.002186       0.000000
      0.000677       0.002810       0.000000
      0.000661       0.003746       0.000000
      0.000844       0.003458       0.000000
      0.000979       0.002824       0.000000
      0.000810       0.002186       0.000000
      0.000979       0.002824       0.000000
      0.001099       0.002833       0.000000
      0.000915       0.002220       0.000000
      0.000979       0.002824       0.000000
      0.000844       0.003458       0.000000
      0.000950       0.003439       0.000000
      0.001099       0.002833       0.000000
      0.000661       0.003746       0.000000
      0.000546       0.004426       0.000000
      0.000541       0.004046       0.000000
      0.000844       0.003458       0.000000
      0.000546       0.004426       0.000000
      0.000378       0.004909       0.000000
      0.000250       0.004553       0.000000
      0.000541       0.004046       0.000000
      0.000844       0.003458       0.000000
      0.000541       0.004046       0.000000
      0.000621       0.004053       0.000000
      0.000950       0.003439       0.000000
      0.000541       0.004046       0.000000
      0.000250       0.004553       0.000000
      0.000317       0.004601       0.000000
      0.000621       0.004053       0.000000
      0.000239       0.001045       0.000000
      0.000558       0.001593       0.000000
      0.000637       0.001485       0.000000
      0.000282       0.000852       0.000000
      0.000558       0.001593       0.000000
      0.000915       0.002220       0.000000
      0.001018       0.002182       0.000000
      0.000637       0.001485       0.000000
      0.000282       0.000852       0.000000
      0.000637       0.001485       0.000000
      0.000709       0.001361       0.000000
      0.000290       0.000605       0.000000
      0.000637       0.001485       0.000000
      0.001018       0.002182       0.000000
      0.001124       0.002140       0.000000
      0.000709       0.001361       0.000000
      0.000915       0.002220       0.000000
      0.001099       0.002833       0.000000
      0.001209       0.002844       0.000000
      0.001018       0.002182       0.000000
      0.001099       0.002833       0.000000
      0.000950       0.003439       0.000000
      0.001057       0.003498       0.000000
      0.001209       0.002844       0.000000
      0.001018       0.002182       0.000000
      0.001209       0.002844       0.000000
      0.001327       0.002857       0.000000
      0.001124       0.002140       0.000000
      0.001209       0.002844       0.000000
      0.001057       0.003498       0.000000
      0.001166       0.003569       0.000000
      0.001327       0.002857       0.000000
      0.000950       0.003439       0.000000
      0.000621       0.004053       0.000000
      0.000719       0.004177       0.000000
      0.001057       0.003498       0.000000
      0.000621       0.004053       0.000000
      0.000317       0.004601       0.000000
      0.000415       0.004802       0.000000
      0.000719       0.004177       0.000000
      0.001057       0.003498       0.000000
      0.000719       0.004177       0.000000
      0.000817       0.004332       0.000000
      0.001166       0.003569       0.000000
      0.000719       0.004177       0.000000
      0.000415       0.004802       0.000000
      0.000529       0.005074       0.000000
      0.000817       0.004332       0.000000
      0.000290       0.000605       0.000000
      0.000709       0.001361       0.000000
      0.000772       0.001269       0.000000
      0.000235       0.000332       0.000000
      0.000709       0.001361       0.000000
      0.001124       0.002140       0.000000
      0.001225       0.002125       0.000000
      0.000772       0.001269       0.000000
      0.000235       0.000332       0.000000
      0.000772       0.001269       0.000000
      0.000826       0.001226       0.000000
      0.000000       0.000000       0.000000
      0.000772       0.001269       0.000000
      0.001225       0.002125       0.000000
      0.001314       0.002157       0.000000
      0.000826       0.001226       0.000000
      0.001124       0.002140       0.000000
      0.001327       0.002857       0.000000
      0.001447       0.002870       0.000000
      0.001225       0.002125       0.000000
      0.001327       0.002857       0.000000
      0.001166       0.003569       0.000000
      0.001274       0.003619       0.000000
      0.001447       0.002870       0.000000
      0.001225       0.002125       0.000000
      0.001447       0.002870       0.000000
      0.001556       0.002880       0.000000
      0.001314       0.002157       0.000000
      0.001447       0.002870       0.000000
      0.001274       0.003619       0.000000
      0.001374       0.003618       0.000000
      0.001556       0.002880       0.000000
      0.001166       0.003569       0.000000
      0.000817       0.004332       0.000000
      0.000917       0.004480       0.000000
      0.001274       0.003619       0.000000
      0.000817       0.004332       0.000000
      0.000529       0.005074       0.000000
      0.000677       0.005396       0.000000
      0.000917       0.004480       0.000000
      0.001274       0.003619       0.000000
      0.000917       0.004480       0.000000
      0.001031       0.004610       0.000000
      0.001374       0.003618       0.000000
      0.000917       0.004480       0.000000
      0.000677       0.005396       0.000000
      0.000880       0.005782       0.000000
      0.001031       0.004610       0.000000
     -0.000876       0.000706       0.000000
     -0.000603       0.000381       0.000000
     -0.000322       0.000450       0.000000
     -0.000556       0.000907       0.000000
     -0.000603       0.000381       0.000000
     -0.000366       0.000187       0.000000
     -0.000203       0.000160       0.000000
     -0.000322       0.000450       0.000000
     -0.000556       0.000907       0.000000
     -0.000322       0.000450       0.000000
     -0.000189       0.000435       0.000000
     -0.000409       0.000885       0.000000
     -0.000322       0.000450       0.000000
     -0.000203       0.000160       0.000000
     -0.000122       0.000144       0.000000
     -0.000189       0.000435       0.000000
     -0.000366       0.000187       0.000000
     -0.000174       0.000134       0.000000
     -0.000155       0.000116       0.000000
     -0.000203       0.000160       0.000000
     -0.000174       0.000134       0.000000
     -0.000008       0.000214       0.000000
     -0.000110       0.000310       0.000000
     -0.000155       0.000116       0.000000
     -0.000203       0.000160       0.000000
     -0.000155       0.000116       0.000000
     -0.000143       0.000124       0.000000
     -0.000122       0.000144       0.000000
     -0.000155       0.000116       0.000000
     -0.000110       0.000310       0.000000
     -0.000125       0.000351       0.000000
     -0.000143       0.000124       0.000000
     -0.000008       0.000214       0.000000
      0.000158       0.000425       0.000000
      0.000002       0.000672       0.000000
     -0.000110       0.000310       0.000000
      0.000158       0.000425       0.000000
      0.000329       0.000753       0.000000
      0.000200       0.001095       0.000000
      0.000002       0.000672       0.000000
     -0.000110       0.000310       0.000000
      0.000002       0.000672       0.000000
      0.000009       0.000692       0.000000
     -0.000125       0.000351       0.000000
      0.000002       0.000672       0.000000
      0.000200       0.001095       0.000000
      0.000239       0.001045       0.000000
      0.000009       0.000692       0.000000
     -0.000409       0.000885       0.000000
     -0.000189       0.000435       0.000000
     -0.000101       0.000369       0.000000
     -0.000309       0.000773       0.000000
     -0.000189       0.000435       0.000000
     -0.000122       0.000144       0.000000
     -0.000067       0.000120       0.000000
     -0.000101       0.000369       0.000000
     -0.000309       0.000773       0.000000
     -0.000101       0.000369       0.000000
     -0.000038       0.000269       0.000000
     -0.000243       0.000591       0.000000
     -0.000101       0.000369       0.000000
     -0.000067       0.000120       0.000000
     -0.000028       0.000089       0.000000
     -0.000038       0.000269       0.000000
     -0.000122       0.000144       0.000000
     -0.000143       0.000124       0.000000
     -0.000124       0.000119       0.000000
     -0.000067       0.000120       0.000000
     -0.000143       0.000124       0.000000
     -0.000125       0.000351       0.000000
     -0.000111       0.000321       0.000000
     -0.000124       0.000119       0.000000
     -0.000067       0.000120       0.000000
     -0.000124       0.000119       0.000000
     -0.000098       0.000095       0.000000
     -0.000028       0.000089       0.000000
     -0.000124       0.000119       0.000000
     -0.000111       0.000321       0.000000
     -0.000084       0.000240       0.000000
     -0.000098       0.000095       0.000000
     -0.000125       0.000351       0.000000
      0.000009       0.000692       0.000000
      0.000037       0.000584       0.000000
     -0.000111       0.000321       0.000000
      0.000009       0.000692       0.000000
      0.000239       0.001045       0.000000
      0.000282       0.000852       0.000000
      0.000037       0.000584       0.000000
     -0.000111       0.000321       0.000000
      0.000037       0.000584       0.000000
      0.000055       0.000411       0.000000
     -0.000084       0.000240       0.000000
      0.000037       0.000584       0.000000
      0.000282       0.000852       0.000000
      0.000290       0.000605       0.000000
      0.000055       0.000411       0.000000
     -0.000243       0.000591       0.000000
     -0.000038       0.000269       0.000000
     -0.000002       0.000143       0.000000
     -0.000186       0.000332       0.000000
     -0.000038       0.000269       0.000000
     -0.000028       0.000089       0.000000
     -0.000004       0.000049       0.000000
     -0.000002       0.000143       0.000000
     -0.000186       0.000332       0.000000
     -0.000002       0.000143       0.000000
      0.000000       0.000000       0.000000
      0.000000       0.000000       0.000000
     -0.000002       0.000143       0.000000
     -0.000004       0.000049       0.000000
      0.000000       0.000000       0.000000
      0.000000       0.000000       0.000000
     -0.000028       0.000089       0.000000
     -0.000098       0.000095       0.000000
     -0.000060       0.000055       0.000000
     -0.000004       0.000049       0.000000
     -0.000098       0.000095       0.000000
     -0.000084       0.000240       0.000000
     -0.000047       0.000127       0.000000
     -0.000060       0.000055       0.000000
     -0.000004       0.000049       0.000000
     -0.000060       0.000055       0.000000
      0.000000       0.000000       0.000000
      0.000000       0.000000       0.000000
     -0.000060       0.000055       0.000000
     -0.000047       0.000127       0.000000
      0.000000       0.000000       0.000000
      0.000000       0.000000       0.000000
     -0.000084       0.000240       0.000000
      0.000055       0.000411       0.000000
      0.000047       0.000207       0.000000
     -0.000047       0.000127       0.000000
      0.000055       0.000411       0.000000
      0.000290       0.000605       0.000000
      0.000235       0.000332       0.000000
      0.000047       0.000207       0.000000
     -0.000047       0.000127       0.000000
      0.000047       0.000207       0.000000
      0.000000       0.000000       0.000000
      0.000000       0.000000       0.000000
      0.000047       0.000207       0.000000
      0.000235       0.000332       0.000000
      0.000000       0.000000       0.000000
      0.000000       0.000000       0.000000
     -0.000876       0.000706       0.000000
     -0.001174       0.001178       0.000000
     -0.000970       0.001405       0.000000
     -0.000556       0.000907       0.000000
     -0.001174       0.001178       0.000000
     -0.001435       0.001868       0.000000
     -0.001474       0.002042       0.000000
     -0.000970       0.001405       0.000000
     -0.000556       0.000907       0.000000
     -0.000970       0.001405       0.000000
     -0.000846       0.001429       0.000000