# vtk DataFile Version 2.0
time_10.vtk
ASCII
DATASET UNSTRUCTURED_GRID
POINTS  1044 float
      0.458579       0.641421       0.000000
      0.497369       0.671659       0.000000
      0.438243       0.730363       0.000000
      0.382149       0.701184       0.000000
      0.497369       0.671659       0.000000
      0.545805       0.692517       0.000000
      0.506084       0.750000       0.000000
      0.438243       0.730363       0.000000
      0.382149       0.701184       0.000000
      0.438243       0.730363       0.000000
      0.380813       0.787383       0.000000
      0.305719       0.760948       0.000000
      0.438243       0.730363       0.000000
      0.506084       0.750000       0.000000
      0.468251       0.804752       0.000000
      0.380813       0.787383       0.000000
      0.545805       0.692517       0.000000
      0.600000       0.700000       0.000000
      0.581017       0.756950       0.000000
      0.506084       0.750000       0.000000
      0.600000       0.700000       0.000000
      0.654195       0.692517       0.000000
      0.656527       0.750000       0.000000
      0.581017       0.756950       0.000000
      0.506084       0.750000       0.000000
      0.581017       0.756950       0.000000
      0.563060       0.810819       0.000000
      0.468251       0.804752       0.000000
      0.581017       0.756950       0.000000
      0.656527       0.750000       0.000000
      0.658747       0.804752       0.000000
      0.563060       0.810819       0.000000
      0.654195       0.692517       0.000000
      0.702631       0.671659       0.000000
      0.725999       0.730363       0.000000
      0.656527       0.750000       0.000000
      0.702631       0.671659       0.000000
      0.741421       0.641421       0.000000
      0.784518       0.701184       0.000000
      0.725999       0.730363       0.000000
      0.656527       0.750000       0.000000
      0.725999       0.730363       0.000000
      0.748697       0.787383       0.000000
      0.658747       0.804752       0.000000
      0.725999       0.730363       0.000000
      0.784518       0.701184       0.000000
      0.827614       0.760948       0.000000
      0.748697       0.787383       0.000000
      0.305719       0.760948       0.000000
      0.380813       0.787383       0.000000
      0.325006       0.842791       0.000000
      0.229289       0.820711       0.000000
      0.380813       0.787383       0.000000
      0.468251       0.804752       0.000000
      0.432173       0.856962       0.000000
      0.325006       0.842791       0.000000
      0.229289       0.820711       0.000000
      0.325006       0.842791       0.000000
      0.270755       0.896655       0.000000
      0.152860       0.880474       0.000000
      0.325006       0.842791       0.000000
      0.432173       0.856962       0.000000
      0.397732       0.906804       0.000000
      0.270755       0.896655       0.000000
      0.468251       0.804752       0.000000
      0.563060       0.810819       0.000000
      0.546050       0.861851       0.000000
      0.432173       0.856962       0.000000
      0.563060       0.810819       0.000000
      0.658747       0.804752       0.000000
      0.660865       0.856962       0.000000
      0.546050       0.861851       0.000000
      0.432173       0.856962       0.000000
      0.546050       0.861851       0.000000
      0.529912       0.910264       0.000000
      0.397732       0.906804       0.000000
      0.546050       0.861851       0.000000
      0.660865       0.856962       0.000000
      0.662887       0.906804       0.000000
      0.529912       0.910264       0.000000
      0.658747       0.804752       0.000000
      0.748697       0.787383       0.000000
      0.770753       0.842791       0.000000
      0.660865       0.856962       0.000000
      0.748697       0.787383       0.000000
      0.827614       0.760948       0.000000
      0.870711       0.820711       0.000000
      0.770753       0.842791       0.000000
      0.660865       0.856962       0.000000
      0.770753       0.842791       0.000000
      0.792195       0.896655       0.000000
      0.662887       0.906804       0.000000
      0.770753       0.842791       0.000000
      0.870711       0.820711       0.000000
      0.913807       0.880474       0.000000
      0.792195       0.896655       0.000000
      0.152860       0.880474       0.000000
      0.270755       0.896655       0.000000
      0.217995       0.949038       0.000000
      0.076430       0.940237       0.000000
      0.270755       0.896655       0.000000
      0.397732       0.906804       0.000000
      0.364819       0.954435       0.000000
      0.217995       0.949038       0.000000
      0.076430       0.940237       0.000000
      0.217995       0.949038       0.000000
      0.166667       1.000000       0.000000
      0.000000       1.000000       0.000000
      0.217995       0.949038       0.000000
      0.364819       0.954435       0.000000
      0.333333       1.000000       0.000000
      0.166667       1.000000       0.000000
      0.397732       0.906804       0.000000
      0.529912       0.910264       0.000000
      0.514582       0.956255       0.000000
      0.364819       0.954435       0.000000
      0.529912       0.910264       0.000000
      0.662887       0.906804       0.000000
      0.664819       0.954435       0.000000
      0.514582       0.956255       0.000000
      0.364819       0.954435       0.000000
      0.514582       0.956255       0.000000
      0.500000       1.000000       0.000000
      0.333333       1.000000       0.000000
      0.514582       0.956255       0.000000
      0.664819       0.954435       0.000000
      0.666667       1.000000       0.000000
      0.500000       1.000000       0.000000
      0.662887       0.906804       0.000000
      0.792195       0.896655       0.000000
      0.813047       0.949038       0.000000
      0.664819       0.954435       0.000000
      0.792195       0.896655       0.000000
      0.913807       0.880474       0.000000
      0.956904       0.940237       0.000000
      0.813047       0.949038       0.000000
      0.664819       0.954435       0.000000
      0.813047       0.949038       0.000000
      0.833333       1.000000       0.000000
      0.666667       1.000000       0.000000
      0.813047       0.949038       0.000000
      0.956904       0.940237       0.000000
      1.000000       1.000000       0.000000
      0.833333       1.000000       0.000000
      0.458579       0.358579       0.000000
      0.428341       0.397369       0.000000
      0.351758       0.356122       0.000000
      0.382149       0.298816       0.000000
      0.428341       0.397369       0.000000
      0.407483       0.445805       0.000000
      0.331305       0.424779       0.000000
      0.351758       0.356122       0.000000
      0.382149       0.298816       0.000000
      0.351758       0.356122       0.000000
      0.277372       0.316058       0.000000
      0.305719       0.239052       0.000000
      0.351758       0.356122       0.000000
      0.331305       0.424779       0.000000
      0.258747       0.404752       0.000000
      0.277372       0.316058       0.000000
      0.331305       0.424779       0.000000
      0.324066       0.500000       0.000000
      0.252241       0.500000       0.000000
      0.258747       0.404752       0.000000
      0.324066       0.500000       0.000000
      0.331305       0.575221       0.000000
      0.258747       0.595248       0.000000
      0.252241       0.500000       0.000000
      0.428341       0.602631       0.000000
      0.458579       0.641421       0.000000
      0.382149       0.701184       0.000000
      0.351758       0.643878       0.000000
      0.331305       0.575221       0.000000
      0.351758       0.643878       0.000000
      0.277372       0.683942       0.000000
      0.258747       0.595248       0.000000
      0.351758       0.643878       0.000000
      0.382149       0.701184       0.000000
      0.305719       0.760948       0.000000
      0.277372       0.683942       0.000000
      0.305719       0.239052       0.000000
      0.277372       0.316058       0.000000
      0.205089       0.277126       0.000000
      0.229289       0.179289       0.000000
      0.277372       0.316058       0.000000
      0.258747       0.404752       0.000000
      0.189557       0.385654       0.000000
      0.205089       0.277126       0.000000
      0.229289       0.179289       0.000000
      0.205089       0.277126       0.000000
      0.134820       0.239280       0.000000
      0.152860       0.119526       0.000000
      0.205089       0.277126       0.000000
      0.189557       0.385654       0.000000
      0.123505       0.367423       0.000000
      0.134820       0.239280       0.000000
      0.258747       0.404752       0.000000
      0.252241       0.500000       0.000000
      0.184198       0.500000       0.000000
      0.189557       0.385654       0.000000
      0.252241       0.500000       0.000000
      0.258747       0.595248       0.000000
      0.189557       0.614346       0.000000
      0.184198       0.500000       0.000000
      0.189557       0.385654       0.000000
      0.184198       0.500000       0.000000
      0.119648       0.500000       0.000000
      0.123505       0.367423       0.000000
      0.184198       0.500000       0.000000
      0.189557       0.614346       0.000000
      0.123505       0.632577       0.000000
      0.119648       0.500000       0.000000
      0.258747       0.595248       0.000000
      0.277372       0.683942       0.000000
      0.205089       0.722874       0.000000
      0.189557       0.614346       0.000000
      0.277372       0.683942       0.000000
      0.305719       0.760948       0.000000
      0.229289       0.820711       0.000000
      0.205089       0.722874       0.000000
[...]
POINT_DATA  1044
VECTORS U float 
      0.000443       0.005749       0.000000
      0.000228       0.006133       0.000000
      0.000039       0.005836       0.000000
      0.000284       0.005335       0.000000
      0.000228       0.006133       0.000000
      0.000007       0.006391       0.000000
     -0.000121       0.006277       0.000000
      0.000039       0.005836       0.000000
      0.000284       0.005335       0.000000
      0.000039       0.005836       0.000000
      0.000057       0.005798       0.000000
      0.000350       0.005364       0.000000
      0.000039       0.005836       0.000000
     -0.000121       0.006277       0.000000
     -0.000142       0.006226       0.000000
      0.000057       0.005798       0.000000
      0.000007       0.006391       0.000000
     -0.000218       0.006498       0.000000
     -0.000207       0.006525       0.000000
     -0.000121       0.006277       0.000000
     -0.000218       0.006498       0.000000
     -0.000465       0.006450       0.000000
     -0.000290       0.006489       0.000000
     -0.000207       0.006525       0.000000
     -0.000121       0.006277       0.000000
     -0.000207       0.006525       0.000000
     -0.000207       0.006519       0.000000
     -0.000142       0.006226       0.000000
     -0.000207       0.006525       0.000000
     -0.000290       0.006489       0.000000
     -0.000217       0.006513       0.000000
     -0.000207       0.006519       0.000000
     -0.000465       0.006450       0.000000
     -0.000747       0.006247       0.000000
     -0.000439       0.006173       0.000000
     -0.000290       0.006489       0.000000
     -0.000747       0.006247       0.000000
     -0.001062       0.005905       0.000000
     -0.000701       0.005677       0.000000
     -0.000439       0.006173       0.000000
     -0.000290       0.006489       0.000000
     -0.000439       0.006173       0.000000
     -0.000308       0.006188       0.000000
     -0.000217       0.006513       0.000000
     -0.000439       0.006173       0.000000
     -0.000701       0.005677       0.000000
     -0.000547       0.005686       0.000000
     -0.000308       0.006188       0.000000
      0.000350       0.005364       0.000000
      0.000057       0.005798       0.000000
      0.000120       0.005908       0.000000
      0.000454       0.005572       0.000000
      0.000057       0.005798       0.000000
     -0.000142       0.006226       0.000000
     -0.000125       0.006258       0.000000
      0.000120       0.005908       0.000000
      0.000454       0.005572       0.000000
      0.000120       0.005908       0.000000
      0.000199       0.006108       0.000000
      0.000577       0.005869       0.000000
      0.000120       0.005908       0.000000
     -0.000125       0.006258       0.000000
     -0.000096       0.006353       0.000000
      0.000199       0.006108       0.000000
     -0.000142       0.006226       0.000000
     -0.000207       0.006519       0.000000
     -0.000203       0.006531       0.000000
     -0.000125       0.006258       0.000000
     -0.000207       0.006519       0.000000
     -0.000217       0.006513       0.000000
     -0.000178       0.006545       0.000000
     -0.000203       0.006531       0.000000
     -0.000125       0.006258       0.000000
     -0.000203       0.006531       0.000000
     -0.000198       0.006564       0.000000
     -0.000096       0.006353       0.000000
     -0.000203       0.006531       0.000000
     -0.000178       0.006545       0.000000
     -0.000154       0.006586       0.000000
     -0.000198       0.006564       0.000000
     -0.000217       0.006513       0.000000
     -0.000308       0.006188       0.000000
     -0.000237       0.006255       0.000000
     -0.000178       0.006545       0.000000
     -0.000308       0.006188       0.000000
     -0.000547       0.005686       0.000000
     -0.000463       0.005797       0.000000
     -0.000237       0.006255       0.000000
     -0.000178       0.006545       0.000000
     -0.000237       0.006255       0.000000
     -0.000199       0.006360       0.000000
     -0.000154       0.006586       0.000000
     -0.000237       0.006255       0.000000
     -0.000463       0.005797       0.000000
     -0.000439       0.005996       0.000000
     -0.000199       0.006360       0.000000
      0.000577       0.005869       0.000000
      0.000199       0.006108       0.000000
      0.000300       0.006371       0.000000
      0.000743       0.006232       0.000000
      0.000199       0.006108       0.000000
     -0.000096       0.006353       0.000000
     -0.000057       0.006497       0.000000
      0.000300       0.006371       0.000000
      0.000743       0.006232       0.000000
      0.000300       0.006371       0.000000
      0.000433       0.006682       0.000000
      0.000979       0.006682       0.000000
      0.000300       0.006371       0.000000
     -0.000057       0.006497       0.000000
     -0.000003       0.006682       0.000000
      0.000433       0.006682       0.000000
     -0.000096       0.006353       0.000000
     -0.000198       0.006564       0.000000
     -0.000194       0.006615       0.000000
     -0.000057       0.006497       0.000000
     -0.000198       0.006564       0.000000
     -0.000154       0.006586       0.000000
     -0.000142       0.006633       0.000000
     -0.000194       0.006615       0.000000
     -0.000057       0.006497       0.000000
     -0.000194       0.006615       0.000000
     -0.000192       0.006682       0.000000
     -0.000003       0.006682       0.000000
     -0.000194       0.006615       0.000000
     -0.000142       0.006633       0.000000
     -0.000137       0.006682       0.000000
     -0.000192       0.006682       0.000000
     -0.000154       0.006586       0.000000
     -0.000199       0.006360       0.000000
     -0.000187       0.006503       0.000000
     -0.000142       0.006633       0.000000
     -0.000199       0.006360       0.000000
     -0.000439       0.005996       0.000000
     -0.000480       0.006293       0.000000
     -0.000187       0.006503       0.000000
     -0.000142       0.006633       0.000000
     -0.000187       0.006503       0.000000
     -0.000200       0.006682       0.000000
     -0.000137       0.006682       0.000000
     -0.000187       0.006503       0.000000
     -0.000480       0.006293       0.000000
     -0.000583       0.006682       0.000000
     -0.000200       0.006682       0.000000
      0.000390       0.000806       0.000000
      0.000598       0.001308       0.000000
      0.000566       0.001765       0.000000
      0.000231       0.001200       0.000000
      0.000598       0.001308       0.000000
      0.000767       0.002030       0.000000
      0.000957       0.002461       0.000000
      0.000566       0.001765       0.000000
      0.000231       0.001200       0.000000
      0.000566       0.001765       0.000000
      0.000644       0.001799       0.000000
      0.000270       0.001164       0.000000
      0.000566       0.001765       0.000000
      0.000957       0.002461       0.000000
      0.001083       0.002545       0.000000
      0.000644       0.001799       0.000000
      0.000957       0.002461       0.000000
      0.001195       0.003265       0.000000
      0.001325       0.003275       0.000000
      0.001083       0.002545       0.000000
      0.001195       0.003265       0.000000
      0.000996       0.004066       0.000000
      0.001122       0.003996       0.000000
      0.001325       0.003275       0.000000
      0.000649       0.005225       0.000000
      0.000443       0.005749       0.000000
      0.000284       0.005335       0.000000
      0.000622       0.004759       0.000000
      0.000996       0.004066       0.000000
      0.000622       0.004759       0.000000
      0.000711       0.004728       0.000000
      0.001122       0.003996       0.000000
      0.000622       0.004759       0.000000
      0.000284       0.005335       0.000000
      0.000350       0.005364       0.000000
      0.000711       0.004728       0.000000
      0.000270       0.001164       0.000000
      0.000644       0.001799       0.000000
      0.000736       0.001695       0.000000
      0.000316       0.000960       0.000000
      0.000644       0.001799       0.000000
      0.001083       0.002545       0.000000
      0.001204       0.002516       0.000000
      0.000736       0.001695       0.000000
      0.000316       0.000960       0.000000
      0.000736       0.001695       0.000000
      0.000817       0.001566       0.000000
      0.000324       0.000688       0.000000
      0.000736       0.001695       0.000000
      0.001204       0.002516       0.000000
      0.001325       0.002474       0.000000
      0.000817       0.001566       0.000000
      0.001083       0.002545       0.000000
      0.001325       0.003275       0.000000
      0.001444       0.003286       0.000000
      0.001204       0.002516       0.000000
      0.001325       0.003275       0.000000
      0.001122       0.003996       0.000000
      0.001244       0.004047       0.000000
      0.001444       0.003286       0.000000
      0.001204       0.002516       0.000000
      0.001444       0.003286       0.000000
      0.001576       0.003299       0.000000
      0.001325       0.002474       0.000000
      0.001444       0.003286       0.000000
      0.001244       0.004047       0.000000
      0.001368       0.004118       0.000000
      0.001576       0.003299       0.000000
      0.001122       0.003996       0.000000
      0.000711       0.004728       0.000000
      0.000821       0.004847       0.000000
      0.001244       0.004047       0.000000
      0.000711       0.004728       0.000000
      0.000350       0.005364       0.000000
      0.000454       0.005572       0.000000
      0.000821       0.004847       0.000000
      0.001244       0.004047       0.000000
      0.000821       0.004847       0.000000
      0.000930       0.005008       0.000000
      0.001368       0.004118       0.000000
      0.000821       0.004847       0.000000
      0.000454       0.005572       0.000000
      0.000577       0.005869       0.000000
      0.000930       0.005008       0.000000
      0.000324       0.000688       0.000000
      0.000817       0.001566       0.000000
      0.000888       0.001471       0.000000
      0.000263       0.000380       0.000000
      0.000817       0.001566       0.000000
      0.001325       0.002474       0.000000
      0.001438       0.002463       0.000000
      0.000888       0.001471       0.000000
      0.000263       0.000380       0.000000
      0.000888       0.001471       0.000000
      0.000950       0.001428       0.000000
      0.000000       0.000000       0.000000
      0.000888       0.001471       0.000000
      0.001438       0.002463       0.000000
      0.001537       0.002510       0.000000
      0.000950       0.001428       0.000000
      0.001325       0.002474       0.000000
      0.001576       0.003299       0.000000
      0.001711       0.003312       0.000000
      0.001438       0.002463       0.000000
      0.001576       0.003299       0.000000
      0.001368       0.004118       0.000000
      0.001488       0.004164       0.000000
      0.001711       0.003312       0.000000
      0.001438       0.002463       0.000000
      0.001711       0.003312       0.000000
      0.001833       0.003322       0.000000
      0.001537       0.002510       0.000000
      0.001711       0.003312       0.000000
      0.001488       0.004164       0.000000
      0.001599       0.004151       0.000000
      0.001833       0.003322       0.000000
      0.001368       0.004118       0.000000
      0.000930       0.005008       0.000000
      0.001040       0.005164       0.000000
      0.001488       0.004164       0.000000
      0.000930       0.005008       0.000000
      0.000577       0.005869       0.000000
      0.000743       0.006232       0.000000
      0.001040       0.005164       0.000000
      0.001488       0.004164       0.000000
      0.001040       0.005164       0.000000
      0.001167       0.005304       0.000000
      0.001599       0.004151       0.000000
      0.001040       0.005164       0.000000
      0.000743       0.006232       0.000000
      0.000979       0.006682       0.000000
      0.001167       0.005304       0.000000
      0.001073       0.003257       0.000000
      0.001032       0.003782       0.000000
      0.001141       0.003675       0.000000
      0.001195       0.003265       0.000000
      0.001032       0.003782       0.000000
      0.000921       0.004218       0.000000
      0.000996       0.004066       0.000000
      0.001141       0.003675       0.000000
      0.000767       0.002030       0.000000
      0.000788       0.002543       0.000000
      0.001011       0.002736       0.000000
      0.000885       0.002303       0.000000
      0.000885       0.002303       0.000000
      0.001011       0.002736       0.000000
      0.001120       0.002853       0.000000
      0.000957       0.002461       0.000000
      0.001011       0.002736       0.000000
      0.001073       0.003257       0.000000
      0.001195       0.003265       0.000000
      0.001120       0.002853       0.000000
      0.000959       0.003251       0.000000
      0.000957       0.003578       0.000000
      0.001065       0.003528       0.000000
      0.001073       0.003257       0.000000
      0.000957       0.003578       0.000000
      0.000942       0.003871       0.000000
      0.001032       0.003782       0.000000
      0.001065       0.003528       0.000000
      0.000788       0.002543       0.000000
      0.000777       0.002871       0.000000
      0.000948       0.002927       0.000000
      0.000924       0.002640       0.000000
      0.000924       0.002640       0.000000
      0.000948       0.002927       0.000000
      0.001054       0.002987       0.000000
      0.001011       0.002736       0.000000
      0.000948       0.002927       0.000000
      0.000959       0.003251       0.000000
      0.001073       0.003257       0.000000
      0.001054       0.002987       0.000000
      0.000770       0.003246       0.000000
      0.000774       0.003439       0.000000
      0.000878       0.003430       0.000000
      0.000876       0.003248       0.000000
      0.000774       0.003439       0.000000
      0.000782       0.003625       0.000000
      0.000880       0.003605       0.000000
      0.000878       0.003430       0.000000
      0.000876       0.003248       0.000000
      0.000878       0.003430       0.000000
      0.000960       0.003417       0.000000
      0.000959       0.003251       0.000000
      0.000878       0.003430       0.000000
      0.000880       0.003605       0.000000
      0.000957       0.003578       0.000000
      0.000960       0.003417       0.000000
      0.000777       0.002871       0.000000
      0.000772       0.003054       0.000000
      0.000874       0.003068       0.000000
      0.000873       0.002895       0.000000
      0.000772       0.003054       0.000000
      0.000770       0.003246       0.000000
      0.000876       0.003248       0.000000
      0.000874       0.003068       0.000000
      0.000873       0.002895       0.000000
      0.000874       0.003068       0.000000
      0.000955       0.003086       0.000000
      0.000948       0.002927       0.000000
      0.000874       0.003068       0.000000
      0.000876       0.003248       0.000000
      0.000959       0.003251       0.000000
      0.000955       0.003086       0.000000
      0.000797       0.004483       0.000000
      0.000738       0.004889       0.000000
      0.000773       0.004582       0.000000
      0.000921       0.004218       0.000000
      0.000738       0.004889       0.000000
      0.000649       0.005225       0.000000
      0.000611       0.004903       0.000000
      0.000773       0.004582       0.000000
      0.000921       0.004218       0.000000
      0.000773       0.004582       0.000000
      0.000813       0.004427       0.000000
      0.000996       0.004066       0.000000
      0.000773       0.004582       0.000000
      0.000611       0.004903       0.000000
      0.000622       0.004759       0.000000
      0.000813       0.004427       0.000000
      0.000801       0.003960       0.000000
      0.000807       0.004242       0.000000
      0.000913       0.004122       0.000000
      0.000942       0.003871       0.000000
      0.000807       0.004242       0.000000
      0.000797       0.004483       0.000000
      0.000872       0.004339       0.000000
      0.000913       0.004122       0.000000
      0.000942       0.003871       0.000000
      0.000913       0.004122       0.000000
      0.000983       0.004012       0.000000
      0.001032       0.003782       0.000000
      0.000913       0.004122       0.000000
      0.000872       0.004339       0.000000
      0.000921       0.004218       0.000000
      0.000983       0.004012       0.000000
      0.000782       0.003625       0.000000
      0.000792       0.003799       0.000000
      0.000882       0.003769       0.000000
      0.000880       0.003605       0.000000
      0.000792       0.003799       0.000000
      0.000801       0.003960       0.000000
      0.000880       0.003919       0.000000
      0.000882       0.003769       0.000000
      0.000880       0.003605       0.000000
      0.000882       0.003769       0.000000
      0.000951       0.003730       0.000000
      0.000957       0.003578       0.000000
      0.000882       0.003769       0.000000
      0.000880       0.003919       0.000000
      0.000942       0.003871       0.000000
      0.000951       0.003730       0.000000
     -0.000998       0.000723       0.000000
     -0.000678       0.000383       0.000000
     -0.000361       0.000461       0.000000
     -0.000622       0.000958       0.000000
     -0.000678       0.000383       0.000000
     -0.000407       0.000183       0.000000
     -0.000227       0.000153       0.000000
     -0.000361       0.000461       0.000000
     -0.000622       0.000958       0.000000
     -0.000361       0.000461       0.000000
     -0.000205       0.000454       0.000000
     -0.000442       0.000958       0.000000
     -0.000361       0.000461       0.000000
     -0.000227       0.000153       0.000000
     -0.000135       0.000139       0.000000
     -0.000205       0.000454       0.000000
     -0.000407       0.000183       0.000000
     -0.000189       0.000131       0.000000
     -0.000169       0.000111       0.000000
     -0.000227       0.000153       0.000000
     -0.000189       0.000131       0.000000
     -0.000001       0.000221       0.000000
     -0.000116       0.000325       0.000000
     -0.000169       0.000111       0.000000
     -0.000227       0.000153       0.000000
     -0.000169       0.000111       0.000000
     -0.000157       0.000123       0.000000
     -0.000135       0.000139       0.000000
     -0.000169       0.000111       0.000000
     -0.000116       0.000325       0.000000
     -0.000138       0.000375       0.000000
     -0.000157       0.000123       0.000000
     -0.000001       0.000221       0.000000
      0.000189       0.000449       0.000000
      0.000009       0.000725       0.000000
     -0.000116       0.000325       0.000000
      0.000189       0.000449       0.000000
      0.000390       0.000806       0.000000
      0.000231       0.001200       0.000000
      0.000009       0.000725       0.000000
     -0.000116       0.000325       0.000000
      0.000009       0.000725       0.000000
      0.000010       0.000757       0.000000
     -0.000138       0.000375       0.000000
      0.000009       0.000725       0.000000
      0.000231       0.001200       0.000000
      0.000270       0.001164       0.000000