# vtk DataFile Version 2.0
time_10.vtk
ASCII
DATASET UNSTRUCTURED_GRID
POINTS  2316 float
      0.458579       0.641421       0.000000
      0.497369       0.671659       0.000000
      0.438243       0.730363       0.000000
      0.382149       0.701184       0.000000
      0.497369       0.671659       0.000000
      0.545805       0.692517       0.000000
      0.506084       0.750000       0.000000
      0.438243       0.730363       0.000000
      0.382149       0.701184       0.000000
      0.438243       0.730363       0.000000
      0.380813       0.787383       0.000000
      0.305719       0.760948       0.000000
      0.438243       0.730363       0.000000
      0.506084       0.750000       0.000000
      0.468251       0.804752       0.000000
      0.380813       0.787383       0.000000
      0.545805       0.692517       0.000000
      0.600000       0.700000       0.000000
      0.581017       0.756950       0.000000
      0.506084       0.750000       0.000000
      0.600000       0.700000       0.000000
      0.654195       0.692517       0.000000
      0.656527       0.750000       0.000000
      0.581017       0.756950       0.000000
      0.506084       0.750000       0.000000
      0.581017       0.756950       0.000000
      0.563060       0.810819       0.000000
      0.468251       0.804752       0.000000
      0.581017       0.756950       0.000000
      0.656527       0.750000       0.000000
      0.658747       0.804752       0.000000
      0.563060       0.810819       0.000000
      0.654195       0.692517       0.000000
      0.702631       0.671659       0.000000
      0.725999       0.730363       0.000000
      0.656527       0.750000       0.000000
      0.702631       0.671659       0.000000
      0.741421       0.641421       0.000000
      0.784518       0.701184       0.000000
      0.725999       0.730363       0.000000
      0.656527       0.750000       0.000000
      0.725999       0.730363       0.000000
      0.748697       0.787383       0.000000
      0.658747       0.804752       0.000000
      0.725999       0.730363       0.000000
      0.784518       0.701184       0.000000
      0.827614       0.760948       0.000000
      0.748697       0.787383       0.000000
      0.305719       0.760948       0.000000
      0.380813       0.787383       0.000000
      0.325006       0.842791       0.000000
      0.229289       0.820711       0.000000
      0.380813       0.787383       0.000000
      0.468251       0.804752       0.000000
      0.432173       0.856962       0.000000
      0.325006       0.842791       0.000000
      0.229289       0.820711       0.000000
      0.325006       0.842791       0.000000
      0.270755       0.896655       0.000000
      0.152860       0.880474       0.000000
      0.325006       0.842791       0.000000
      0.432173       0.856962       0.000000
      0.397732       0.906804       0.000000
      0.270755       0.896655       0.000000
      0.468251       0.804752       0.000000
      0.563060       0.810819       0.000000
      0.546050       0.861851       0.000000
      0.432173       0.856962       0.000000
      0.563060       0.810819       0.000000
      0.658747       0.804752       0.000000
      0.660865       0.856962       0.000000
      0.546050       0.861851       0.000000
      0.432173       0.856962       0.000000
      0.546050       0.861851       0.000000
      0.529912       0.910264       0.000000
      0.397732       0.906804       0.000000
      0.546050       0.861851       0.000000
      0.660865       0.856962       0.000000
      0.662887       0.906804       0.000000
      0.529912       0.910264       0.000000
      0.658747       0.804752       0.000000
      0.748697       0.787383       0.000000
      0.770753       0.842791       0.000000
      0.660865       0.856962       0.000000
      0.748697       0.787383       0.000000
      0.827614       0.760948       0.000000
      0.870711       0.820711       0.000000
      0.770753       0.842791       0.000000
      0.660865       0.856962       0.000000
      0.770753       0.842791       0.000000
      0.792195       0.896655       0.000000
      0.662887       0.906804       0.000000
      0.770753       0.842791       0.000000
      0.870711       0.820711       0.000000
      0.913807       0.880474       0.000000
      0.792195       0.896655       0.000000
      0.152860       0.880474       0.000000
      0.270755       0.896655       0.000000
      0.217995       0.949038       0.000000
      0.076430       0.940237       0.000000
      0.270755       0.896655       0.000000
      0.397732       0.906804       0.000000
      0.364819       0.954435       0.000000
      0.217995       0.949038       0.000000
      0.076430       0.940237       0.000000
      0.217995       0.949038       0.000000
      0.166667       1.000000       0.000000
      0.000000       1.000000       0.000000
      0.217995       0.949038       0.000000
      0.364819       0.954435       0.000000
      0.333333       1.000000       0.000000
      0.166667       1.000000       0.000000
      0.397732       0.906804       0.000000
      0.529912       0.910264       0.000000
      0.514582       0.956255       0.000000
      0.364819       0.954435       0.000000
      0.529912       0.910264       0.000000
      0.662887       0.906804       0.000000
      0.664819       0.954435       0.000000
      0.514582       0.956255       0.000000
      0.364819       0.954435       0.000000
      0.514582       0.956255       0.000000
      0.500000       1.000000       0.000000
      0.333333       1.000000       0.000000
      0.514582       0.956255       0.000000
      0.664819       0.954435       0.000000
      0.666667       1.000000       0.000000
      0.500000       1.000000       0.000000
      0.662887       0.906804       0.000000
      0.792195       0.896655       0.000000
      0.813047       0.949038       0.000000
      0.664819       0.954435       0.000000
      0.792195       0.896655       0.000000
      0.913807       0.880474       0.000000
      0.956904       0.940237       0.000000
      0.813047       0.949038       0.000000
      0.664819       0.954435       0.000000
      0.813047       0.949038       0.000000
      0.833333       1.000000       0.000000
      0.666667       1.000000       0.000000
      0.813047       0.949038       0.000000
      0.956904       0.940237       0.000000
      1.000000       1.000000       0.000000
      0.833333       1.000000       0.000000
      0.458579       0.358579       0.000000
      0.428341       0.397369       0.000000
      0.351758       0.356122       0.000000
      0.382149       0.298816       0.000000
      0.382149       0.298816       0.000000
      0.351758       0.356122       0.000000
      0.277372       0.316058       0.000000
      0.305719       0.239052       0.000000
      0.351758       0.356122       0.000000
      0.331305       0.424779       0.000000
      0.258747       0.404752       0.000000
      0.277372       0.316058       0.000000
      0.428341       0.602631       0.000000
      0.458579       0.641421       0.000000
      0.382149       0.701184       0.000000
      0.351758       0.643878       0.000000
      0.331305       0.575221       0.000000
      0.351758       0.643878       0.000000
      0.277372       0.683942       0.000000
      0.258747       0.595248       0.000000
      0.351758       0.643878       0.000000
      0.382149       0.701184       0.000000
      0.305719       0.760948       0.000000
      0.277372       0.683942       0.000000
      0.305719       0.239052       0.000000
      0.277372       0.316058       0.000000
      0.205089       0.277126       0.000000
      0.229289       0.179289       0.000000
      0.277372       0.316058       0.000000
      0.258747       0.404752       0.000000
      0.189557       0.385654       0.000000
      0.205089       0.277126       0.000000
      0.229289       0.179289       0.000000
      0.205089       0.277126       0.000000
      0.134820       0.239280       0.000000
      0.152860       0.119526       0.000000
      0.205089       0.277126       0.000000
      0.189557       0.385654       0.000000
      0.123505       0.367423       0.000000
      0.134820       0.239280       0.000000
      0.258747       0.404752       0.000000
      0.252241       0.500000       0.000000
      0.184198       0.500000       0.000000
      0.189557       0.385654       0.000000
      0.252241       0.500000       0.000000
      0.258747       0.595248       0.000000
      0.189557       0.614346       0.000000
      0.184198       0.500000       0.000000
      0.189557       0.385654       0.000000
      0.184198       0.500000       0.000000
      0.119648       0.500000       0.000000
      0.123505       0.367423       0.000000
      0.184198       0.500000       0.000000
      0.189557       0.614346       0.000000
      0.123505       0.632577       0.000000
      0.119648       0.500000       0.000000
      0.258747       0.595248       0.000000
      0.277372       0.683942       0.000000
      0.205089       0.722874       0.000000
      0.189557       0.614346       0.000000
      0.277372       0.683942       0.000000
      0.305719       0.760948       0.000000
      0.229289       0.820711       0.000000
      0.205089       0.722874       0.000000
      0.189557       0.614346       0.000000
      0.205089       0.722874       0.000000
      0.134820       0.760720       0.000000
      0.123505       0.632577       0.000000
      0.205089       0.722874       0.000000
      0.229289       0.820711       0.000000
      0.152860       0.880474       0.000000
      0.134820       0.760720       0.000000
      0.152860       0.119526       0.000000
      0.134820       0.239280       0.000000
      0.066483       0.202474       0.000000
      0.076430       0.059763       0.000000
[...]
POINT_DATA  2316
VECTORS U float 
      0.000568       0.005896       0.000000
      0.000371       0.006282       0.000000
      0.000152       0.005968       0.000000
      0.000390       0.005468       0.000000
      0.000371       0.006282       0.000000
      0.000194       0.006555       0.000000
      0.000008       0.006411       0.000000
      0.000152       0.005968       0.000000
      0.000390       0.005468       0.000000
      0.000152       0.005968       0.000000
      0.000129       0.005920       0.000000
      0.000427       0.005485       0.000000
      0.000152       0.005968       0.000000
      0.000008       0.006411       0.000000
     -0.000073       0.006349       0.000000
      0.000129       0.005920       0.000000
      0.000194       0.006555       0.000000
      0.000060       0.006712       0.000000
     -0.000048       0.006693       0.000000
      0.000008       0.006411       0.000000
      0.000060       0.006712       0.000000
     -0.000027       0.006783       0.000000
     -0.000071       0.006803       0.000000
     -0.000048       0.006693       0.000000
      0.000008       0.006411       0.000000
     -0.000048       0.006693       0.000000
     -0.000142       0.006670       0.000000
     -0.000073       0.006349       0.000000
     -0.000048       0.006693       0.000000
     -0.000071       0.006803       0.000000
     -0.000138       0.006811       0.000000
     -0.000142       0.006670       0.000000
     -0.000027       0.006783       0.000000
     -0.000077       0.006807       0.000000
     -0.000089       0.006822       0.000000
     -0.000071       0.006803       0.000000
     -0.000077       0.006807       0.000000
     -0.000103       0.006808       0.000000
     -0.000103       0.006813       0.000000
     -0.000089       0.006822       0.000000
     -0.000071       0.006803       0.000000
     -0.000089       0.006822       0.000000
     -0.000131       0.006834       0.000000
     -0.000138       0.006811       0.000000
     -0.000089       0.006822       0.000000
     -0.000103       0.006813       0.000000
     -0.000131       0.006822       0.000000
     -0.000131       0.006834       0.000000
      0.000427       0.005485       0.000000
      0.000129       0.005920       0.000000
      0.000166       0.006033       0.000000
      0.000514       0.005694       0.000000
      0.000129       0.005920       0.000000
     -0.000073       0.006349       0.000000
     -0.000097       0.006383       0.000000
      0.000166       0.006033       0.000000
      0.000514       0.005694       0.000000
      0.000166       0.006033       0.000000
      0.000235       0.006244       0.000000
      0.000632       0.006000       0.000000
      0.000166       0.006033       0.000000
     -0.000097       0.006383       0.000000
     -0.000088       0.006488       0.000000
      0.000235       0.006244       0.000000
     -0.000073       0.006349       0.000000
     -0.000142       0.006670       0.000000
     -0.000202       0.006676       0.000000
     -0.000097       0.006383       0.000000
     -0.000142       0.006670       0.000000
     -0.000138       0.006811       0.000000
     -0.000194       0.006817       0.000000
     -0.000202       0.006676       0.000000
     -0.000097       0.006383       0.000000
     -0.000202       0.006676       0.000000
     -0.000236       0.006709       0.000000
     -0.000088       0.006488       0.000000
     -0.000202       0.006676       0.000000
     -0.000194       0.006817       0.000000
     -0.000232       0.006824       0.000000
     -0.000236       0.006709       0.000000
     -0.000138       0.006811       0.000000
     -0.000131       0.006834       0.000000
     -0.000171       0.006840       0.000000
     -0.000194       0.006817       0.000000
     -0.000131       0.006834       0.000000
     -0.000131       0.006822       0.000000
     -0.000162       0.006829       0.000000
     -0.000171       0.006840       0.000000
     -0.000194       0.006817       0.000000
     -0.000171       0.006840       0.000000
     -0.000199       0.006842       0.000000
     -0.000232       0.006824       0.000000
     -0.000171       0.006840       0.000000
     -0.000162       0.006829       0.000000
     -0.000188       0.006835       0.000000
     -0.000199       0.006842       0.000000
      0.000632       0.006000       0.000000
      0.000235       0.006244       0.000000
      0.000335       0.006518       0.000000
      0.000799       0.006375       0.000000
      0.000235       0.006244       0.000000
     -0.000088       0.006488       0.000000
     -0.000054       0.006644       0.000000
      0.000335       0.006518       0.000000
      0.000799       0.006375       0.000000
      0.000335       0.006518       0.000000
      0.000474       0.006842       0.000000
      0.001043       0.006842       0.000000
      0.000335       0.006518       0.000000
     -0.000054       0.006644       0.000000
      0.000005       0.006842       0.000000
      0.000474       0.006842       0.000000
     -0.000088       0.006488       0.000000
     -0.000236       0.006709       0.000000
     -0.000250       0.006766       0.000000
     -0.000054       0.006644       0.000000
     -0.000236       0.006709       0.000000
     -0.000232       0.006824       0.000000
     -0.000253       0.006833       0.000000
     -0.000250       0.006766       0.000000
     -0.000054       0.006644       0.000000
     -0.000250       0.006766       0.000000
     -0.000248       0.006842       0.000000
      0.000005       0.006842       0.000000
     -0.000250       0.006766       0.000000
     -0.000253       0.006833       0.000000
     -0.000259       0.006842       0.000000
     -0.000248       0.006842       0.000000
     -0.000232       0.006824       0.000000
     -0.000199       0.006842       0.000000
     -0.000215       0.006842       0.000000
     -0.000253       0.006833       0.000000
     -0.000199       0.006842       0.000000
     -0.000188       0.006835       0.000000
     -0.000204       0.006841       0.000000
     -0.000215       0.006842       0.000000
     -0.000253       0.006833       0.000000
     -0.000215       0.006842       0.000000
     -0.000217       0.006842       0.000000
     -0.000259       0.006842       0.000000
     -0.000215       0.006842       0.000000
     -0.000204       0.006841       0.000000
     -0.000209       0.006842       0.000000
     -0.000217       0.006842       0.000000
      0.000512       0.000799       0.000000
      0.000718       0.001294       0.000000
      0.000675       0.001769       0.000000
      0.000338       0.001205       0.000000
      0.000338       0.001205       0.000000
      0.000675       0.001769       0.000000
      0.000742       0.001824       0.000000
      0.000348       0.001182       0.000000
      0.000675       0.001769       0.000000
      0.001078       0.002478       0.000000
      0.001206       0.002590       0.000000
      0.000742       0.001824       0.000000
      0.000770       0.005378       0.000000
      0.000568       0.005896       0.000000
      0.000390       0.005468       0.000000
      0.000732       0.004895       0.000000
      0.001118       0.004189       0.000000
      0.000732       0.004895       0.000000
      0.000809       0.004843       0.000000
      0.001245       0.004092       0.000000
      0.000732       0.004895       0.000000
      0.000390       0.005468       0.000000
      0.000427       0.005485       0.000000
      0.000809       0.004843       0.000000
      0.000348       0.001182       0.000000
      0.000742       0.001824       0.000000
      0.000825       0.001729       0.000000
      0.000372       0.000980       0.000000
      0.000742       0.001824       0.000000
      0.001206       0.002590       0.000000
      0.001327       0.002571       0.000000
      0.000825       0.001729       0.000000
      0.000372       0.000980       0.000000
      0.000825       0.001729       0.000000
      0.000898       0.001607       0.000000
      0.000361       0.000707       0.000000
      0.000825       0.001729       0.000000
      0.001327       0.002571       0.000000
      0.001446       0.002535       0.000000
      0.000898       0.001607       0.000000
      0.001206       0.002590       0.000000
      0.001472       0.003346       0.000000
      0.001587       0.003358       0.000000
      0.001327       0.002571       0.000000
      0.001472       0.003346       0.000000
      0.001245       0.004092       0.000000
      0.001367       0.004135       0.000000
      0.001587       0.003358       0.000000
      0.001327       0.002571       0.000000
      0.001587       0.003358       0.000000
      0.001717       0.003372       0.000000
      0.001446       0.002535       0.000000
      0.001587       0.003358       0.000000
      0.001367       0.004135       0.000000
      0.001490       0.004203       0.000000
      0.001717       0.003372       0.000000
      0.001245       0.004092       0.000000
      0.000809       0.004843       0.000000
      0.000911       0.004954       0.000000
      0.001367       0.004135       0.000000
      0.000809       0.004843       0.000000
      0.000427       0.005485       0.000000
      0.000514       0.005694       0.000000
      0.000911       0.004954       0.000000
      0.001367       0.004135       0.000000
      0.000911       0.004954       0.000000
      0.001015       0.005114       0.000000
      0.001490       0.004203       0.000000
      0.000911       0.004954       0.000000
      0.000514       0.005694       0.000000
      0.000632       0.006000       0.000000
      0.001015       0.005114       0.000000
      0.000361       0.000707       0.000000
      0.000898       0.001607       0.000000
      0.000961       0.001520       0.000000
      0.000282       0.000393       0.000000
      0.000898       0.001607       0.000000
      0.001446       0.002535       0.000000
      0.001557       0.002531       0.000000
      0.000961       0.001520       0.000000
      0.000282       0.000393       0.000000
      0.000961       0.001520       0.000000
      0.001016       0.001488       0.000000
      0.000000       0.000000       0.000000
      0.000961       0.001520       0.000000
      0.001557       0.002531       0.000000
      0.001654       0.002590       0.000000
      0.001016       0.001488       0.000000
      0.001446       0.002535       0.000000
      0.001717       0.003372       0.000000
      0.001852       0.003386       0.000000
      0.001557       0.002531       0.000000
      0.001717       0.003372       0.000000
      0.001490       0.004203       0.000000
      0.001608       0.004246       0.000000
      0.001852       0.003386       0.000000
      0.001557       0.002531       0.000000
      0.001852       0.003386       0.000000
      0.001974       0.003397       0.000000
      0.001654       0.002590       0.000000
      0.001852       0.003386       0.000000
      0.001608       0.004246       0.000000
      0.001718       0.004223       0.000000
      0.001974       0.003397       0.000000
      0.001490       0.004203       0.000000
      0.001015       0.005114       0.000000
      0.001121       0.005269       0.000000
      0.001608       0.004246       0.000000
      0.001015       0.005114       0.000000
      0.000632       0.006000       0.000000
      0.000799       0.006375       0.000000
      0.001121       0.005269       0.000000
      0.001608       0.004246       0.000000
      0.001121       0.005269       0.000000
      0.001248       0.005407       0.000000
      0.001718       0.004223       0.000000
      0.001121       0.005269       0.000000
      0.000799       0.006375       0.000000
      0.001043       0.006842       0.000000
      0.001248       0.005407       0.000000
      0.001168       0.003923       0.000000
      0.001042       0.004373       0.000000
      0.001118       0.004189       0.000000
      0.001281       0.003777       0.000000
      0.001004       0.002290       0.000000
      0.001144       0.002735       0.000000
      0.001258       0.002892       0.000000
      0.001078       0.002478       0.000000
      0.000856       0.003311       0.000000
      0.000865       0.003554       0.000000
      0.000996       0.003546       0.000000
      0.000991       0.003314       0.000000
      0.000865       0.003554       0.000000
      0.000888       0.003779       0.000000
      0.001003       0.003760       0.000000
      0.000996       0.003546       0.000000
      0.000991       0.003314       0.000000
      0.000996       0.003546       0.000000
      0.001095       0.003525       0.000000
      0.001094       0.003318       0.000000
      0.000996       0.003546       0.000000
      0.001003       0.003760       0.000000
      0.001092       0.003719       0.000000
      0.001095       0.003525       0.000000
      0.000884       0.002853       0.000000
      0.000865       0.003071       0.000000
      0.000992       0.003084       0.000000
      0.000995       0.002876       0.000000
      0.000865       0.003071       0.000000
      0.000856       0.003311       0.000000
      0.000991       0.003314       0.000000
      0.000992       0.003084       0.000000
      0.000995       0.002876       0.000000
      0.000992       0.003084       0.000000
      0.001089       0.003112       0.000000
      0.001081       0.002923       0.000000
      0.000992       0.003084       0.000000
      0.000991       0.003314       0.000000
      0.001094       0.003318       0.000000
      0.001089       0.003112       0.000000
      0.000929       0.004659       0.000000
      0.000863       0.005050       0.000000
      0.000891       0.004734       0.000000
      0.001042       0.004373       0.000000
      0.000863       0.005050       0.000000
      0.000770       0.005378       0.000000
      0.000728       0.005052       0.000000
      0.000891       0.004734       0.000000
      0.001042       0.004373       0.000000
      0.000891       0.004734       0.000000
      0.000926       0.004560       0.000000
      0.001118       0.004189       0.000000
      0.000891       0.004734       0.000000
      0.000728       0.005052       0.000000
      0.000732       0.004895       0.000000
      0.000926       0.004560       0.000000
      0.000929       0.004145       0.000000
      0.000941       0.004426       0.000000
      0.001042       0.004296       0.000000
      0.001074       0.004043       0.000000
      0.000941       0.004426       0.000000
      0.000929       0.004659       0.000000
      0.000997       0.004509       0.000000
      0.001042       0.004296       0.000000
      0.001074       0.004043       0.000000
      0.001042       0.004296       0.000000
      0.001109       0.004163       0.000000
      0.001168       0.003923       0.000000
      0.001042       0.004296       0.000000
      0.000997       0.004509       0.000000
      0.001042       0.004373       0.000000
      0.001109       0.004163       0.000000
      0.000888       0.003779       0.000000
      0.000911       0.003975       0.000000
      0.001009       0.003945       0.000000
      0.001003       0.003760       0.000000
      0.000911       0.003975       0.000000
      0.000929       0.004145       0.000000
      0.001011       0.004104       0.000000
      0.001009       0.003945       0.000000
      0.001003       0.003760       0.000000
      0.001009       0.003945       0.000000
      0.001085       0.003892       0.000000
      0.001092       0.003719       0.000000
      0.001009       0.003945       0.000000
      0.001011       0.004104       0.000000
      0.001074       0.004043       0.000000
      0.001085       0.003892       0.000000
      0.000718       0.001294       0.000000
      0.000818       0.001615       0.000000
      0.000841       0.001930       0.000000
      0.000673       0.001616       0.000000
      0.000818       0.001615       0.000000
      0.000896       0.001998       0.000000
      0.001004       0.002290       0.000000
      0.000841       0.001930       0.000000
      0.000673       0.001616       0.000000
      0.000841       0.001930       0.000000
      0.000876       0.002105       0.000000
      0.000675       0.001769       0.000000
      0.000841       0.001930       0.000000
      0.001004       0.002290       0.000000
      0.001078       0.002478       0.000000
      0.000876       0.002105       0.000000
      0.000896       0.001998       0.000000
      0.000917       0.002225       0.000000
      0.001013       0.002361       0.000000
      0.000961       0.002152       0.000000
      0.000917       0.002225       0.000000
      0.000915       0.002499       0.000000
      0.001054       0.002608       0.000000
      0.001013       0.002361       0.000000
      0.000961       0.002152       0.000000
      0.001013       0.002361       0.000000
      0.001078       0.002497       0.000000
      0.001004       0.002290       0.000000
      0.001013       0.002361       0.000000
      0.001054       0.002608       0.000000
      0.001144       0.002735       0.000000
      0.001078       0.002497       0.000000
      0.000915       0.002499       0.000000
      0.000903       0.002663       0.000000
      0.000996       0.002698       0.000000
      0.000993       0.002545       0.000000
      0.000903       0.002663       0.000000
      0.000884       0.002853       0.000000
      0.000995       0.002876       0.000000
      0.000996       0.002698       0.000000
      0.000993       0.002545       0.000000
      0.000996       0.002698       0.000000
      0.001069       0.002755       0.000000
      0.001054       0.002608       0.000000
      0.000996       0.002698       0.000000
      0.000995       0.002876       0.000000
      0.001081       0.002923       0.000000
      0.001069       0.002755       0.000000
      0.001078       0.002478       0.000000
      0.001258       0.002892       0.000000
      0.001331       0.002955       0.000000
      0.001144       0.002564       0.000000
      0.001258       0.002892       0.000000
      0.001349       0.003335       0.000000
      0.001416       0.003341       0.000000
      0.001331       0.002955       0.000000
      0.001144       0.002564       0.000000
      0.001331       0.002955       0.000000
      0.001391       0.002976       0.000000
      0.001206       0.002590       0.000000
      0.001331       0.002955       0.000000
      0.001416       0.003341       0.000000
      0.001472       0.003346       0.000000
      0.001391       0.002976       0.000000
      0.001349       0.003335       0.000000
      0.001281       0.003777       0.000000
      0.001353       0.003724       0.000000
      0.001416       0.003341       0.000000
      0.001281       0.003777       0.000000
      0.001118       0.004189       0.000000
      0.001184       0.004110       0.000000
      0.001353       0.003724       0.000000
      0.001416       0.003341       0.000000
      0.001353       0.003724       0.000000
      0.001412       0.003713       0.000000
      0.001472       0.003346       0.000000
      0.001353       0.003724       0.000000
      0.001184       0.004110       0.000000
      0.001245       0.004092       0.000000
      0.001412       0.003713       0.000000
      0.001224       0.003325       0.000000
      0.001211       0.003641       0.000000
      0.001284       0.003589       0.000000
      0.001299       0.003331       0.000000
      0.001211       0.003641       0.000000
      0.001168       0.003923       0.000000
      0.001233       0.003834       0.000000
      0.001284       0.003589       0.000000
      0.001299       0.003331       0.000000
      0.001284       0.003589       0.000000
      0.001333       0.003558       0.000000