# vtk DataFile Version 2.0
time_10.vtk
ASCII
DATASET UNSTRUCTURED_GRID
POINTS   576 float
      0.458579       0.641421       0.000000
      0.497369       0.671659       0.000000
      0.438243       0.730363       0.000000
      0.382149       0.701184       0.000000
      0.497369       0.671659       0.000000
      0.545805       0.692517       0.000000
      0.506084       0.750000       0.000000
      0.438243       0.730363       0.000000
      0.382149       0.701184       0.000000
      0.438243       0.730363       0.000000
      0.380813       0.787383       0.000000
      0.305719       0.760948       0.000000
      0.438243       0.730363       0.000000
      0.506084       0.750000       0.000000
      0.468251       0.804752       0.000000
      0.380813       0.787383       0.000000
      0.545805       0.692517       0.000000
      0.600000       0.700000       0.000000
      0.581017       0.756950       0.000000
      0.506084       0.750000       0.000000
      0.600000       0.700000       0.000000
      0.654195       0.692517       0.000000
      0.656527       0.750000       0.000000
      0.581017       0.756950       0.000000
      0.506084       0.750000       0.000000
      0.581017       0.756950       0.000000
      0.563060       0.810819       0.000000
      0.468251       0.804752       0.000000
      0.581017       0.756950       0.000000
      0.656527       0.750000       0.000000
      0.658747       0.804752       0.000000
      0.563060       0.810819       0.000000
      0.654195       0.692517       0.000000
      0.702631       0.671659       0.000000
      0.725999       0.730363       0.000000
      0.656527       0.750000       0.000000
      0.702631       0.671659       0.000000
      0.741421       0.641421       0.000000
      0.784518       0.701184       0.000000
      0.725999       0.730363       0.000000
      0.656527       0.750000       0.000000
      0.725999       0.730363       0.000000
      0.748697       0.787383       0.000000
      0.658747       0.804752       0.000000
      0.725999       0.730363       0.000000
      0.784518       0.701184       0.000000
      0.827614       0.760948       0.000000
      0.748697       0.787383       0.000000
      0.305719       0.760948       0.000000
      0.380813       0.787383       0.000000
      0.325006       0.842791       0.000000
      0.229289       0.820711       0.000000
      0.380813       0.787383       0.000000
      0.468251       0.804752       0.000000
      0.432173       0.856962       0.000000
      0.325006       0.842791       0.000000
      0.229289       0.820711       0.000000
      0.325006       0.842791       0.000000
      0.270755       0.896655       0.000000
      0.152860       0.880474       0.000000
      0.325006       0.842791       0.000000
      0.432173       0.856962       0.000000
      0.397732       0.906804       0.000000
      0.270755       0.896655       0.000000
      0.468251       0.804752       0.000000
      0.563060       0.810819       0.000000
      0.546050       0.861851       0.000000
      0.432173       0.856962       0.000000
      0.563060       0.810819       0.000000
      0.658747       0.804752       0.000000
      0.660865       0.856962       0.000000
      0.546050       0.861851       0.000000
      0.432173       0.856962       0.000000
      0.546050       0.861851       0.000000
      0.529912       0.910264       0.000000
      0.397732       0.906804       0.000000
      0.546050       0.861851       0.000000
      0.660865       0.856962       0.000000
      0.662887       0.906804       0.000000
      0.529912       0.910264       0.000000
      0.658747       0.804752       0.000000
      0.748697       0.787383       0.000000
      0.770753       0.842791       0.000000
      0.660865       0.856962       0.000000
      0.748697       0.787383       0.000000
      0.827614       0.760948       0.000000
      0.870711       0.820711       0.000000
      0.770753       0.842791       0.000000
      0.660865       0.856962       0.000000
      0.770753       0.842791       0.000000
      0.792195       0.896655       0.000000
      0.662887       0.906804       0.000000
      0.770753       0.842791       0.000000
      0.870711       0.820711       0.000000
      0.913807       0.880474       0.000000
      0.792195       0.896655       0.000000
      0.152860       0.880474       0.000000
      0.270755       0.896655       0.000000
      0.217995       0.949038       0.000000
      0.076430       0.940237       0.000000
      0.270755       0.896655       0.000000
      0.397732       0.906804       0.000000
      0.364819       0.954435       0.000000
      0.217995       0.949038       0.000000
      0.076430       0.940237       0.000000
      0.217995       0.949038       0.000000
      0.166667       1.000000       0.000000
      0.000000       1.000000       0.000000
      0.217995       0.949038       0.000000
      0.364819       0.954435       0.000000
      0.333333       1.000000       0.000000
      0.166667       1.000000       0.000000
      0.397732       0.906804       0.000000
      0.529912       0.910264       0.000000
      0.514582       0.956255       0.000000
      0.364819       0.954435       0.000000
      0.529912       0.910264       0.000000
      0.662887       0.906804       0.000000
      0.664819       0.954435       0.000000
      0.514582       0.956255       0.000000
      0.364819       0.954435       0.000000
      0.514582       0.956255       0.000000
      0.500000       1.000000       0.000000
      0.333333       1.000000       0.000000
      0.514582       0.956255       0.000000
      0.664819       0.954435       0.000000
      0.666667       1.000000       0.000000
      0.500000       1.000000       0.000000
      0.662887       0.906804       0.000000
      0.792195       0.896655       0.000000
      0.813047       0.949038       0.000000
      0.664819       0.954435       0.000000
      0.792195       0.896655       0.000000
      0.913807       0.880474       0.000000
      0.956904       0.940237       0.000000
      0.813047       0.949038       0.000000
      0.664819       0.954435       0.000000
      0.813047       0.949038       0.000000
      0.833333       1.000000       0.000000
      0.666667       1.000000       0.000000
      0.813047       0.949038       0.000000
      0.956904       0.940237       0.000000
      1.000000       1.000000       0.000000
      0.833333       1.000000       0.000000
      0.458579       0.358579       0.000000
      0.428341       0.397369       0.000000
      0.351758       0.356122       0.000000
      0.382149       0.298816       0.000000
      0.428341       0.397369       0.000000
      0.407483       0.445805       0.000000
      0.331305       0.424779       0.000000
      0.351758       0.356122       0.000000
      0.382149       0.298816       0.000000
      0.351758       0.356122       0.000000
      0.277372       0.316058       0.000000
      0.305719       0.239052       0.000000
      0.351758       0.356122       0.000000
      0.331305       0.424779       0.000000
      0.258747       0.404752       0.000000
      0.277372       0.316058       0.000000
      0.407483       0.445805       0.000000
      0.400000       0.500000       0.000000
      0.324066       0.500000       0.000000
      0.331305       0.424779       0.000000
      0.400000       0.500000       0.000000
      0.407483       0.554195       0.000000
      0.331305       0.575221       0.000000
      0.324066       0.500000       0.000000
      0.331305       0.424779       0.000000
      0.324066       0.500000       0.000000
      0.252241       0.500000       0.000000
      0.258747       0.404752       0.000000
      0.324066       0.500000       0.000000
      0.331305       0.575221       0.000000
      0.258747       0.595248       0.000000
      0.252241       0.500000       0.000000
      0.407483       0.554195       0.000000
      0.428341       0.602631       0.000000
      0.351758       0.643878       0.000000
      0.331305       0.575221       0.000000
      0.428341       0.602631       0.000000
      0.458579       0.641421       0.000000
      0.382149       0.701184       0.000000
      0.351758       0.643878       0.000000
      0.331305       0.575221       0.000000
      0.351758       0.643878       0.000000
      0.277372       0.683942       0.000000
      0.258747       0.595248       0.000000
      0.351758       0.643878       0.000000
      0.382149       0.701184       0.000000
      0.305719       0.760948       0.000000
      0.277372       0.683942       0.000000
      0.305719       0.239052       0.000000
      0.277372       0.316058       0.000000
      0.205089       0.277126       0.000000
      0.229289       0.179289       0.000000
      0.277372       0.316058       0.000000
      0.258747       0.404752       0.000000
      0.189557       0.385654       0.000000
      0.205089       0.277126       0.000000
      0.229289       0.179289       0.000000
      0.205089       0.277126       0.000000
      0.134820       0.239280       0.000000
      0.152860       0.119526       0.000000
      0.205089       0.277126       0.000000
      0.189557       0.385654       0.000000
      0.123505       0.367423       0.000000
      0.134820       0.239280       0.000000
      0.258747       0.404752       0.000000
      0.252241       0.500000       0.000000
      0.184198       0.500000       0.000000
      0.189557       0.385654       0.000000
      0.252241       0.500000       0.000000
      0.258747       0.595248       0.000000
      0.189557       0.614346       0.000000
      0.184198       0.500000       0.000000
      0.189557       0.385654       0.000000
      0.184198       0.500000       0.000000
      0.119648       0.500000       0.000000
      0.123505       0.367423       0.000000
[...]
POINT_DATA   576
VECTORS U float 
      0.000369       0.004792       0.000000
      0.000190       0.005139       0.000000
      0.000032       0.004880       0.000000
      0.000245       0.004444       0.000000
      0.000190       0.005139       0.000000
      0.000001       0.005371       0.000000
     -0.000109       0.005270       0.000000
      0.000032       0.004880       0.000000
      0.000245       0.004444       0.000000
      0.000032       0.004880       0.000000
      0.000057       0.004858       0.000000
      0.000311       0.004494       0.000000
      0.000032       0.004880       0.000000
     -0.000109       0.005270       0.000000
     -0.000121       0.005230       0.000000
      0.000057       0.004858       0.000000
      0.000001       0.005371       0.000000
     -0.000195       0.005466       0.000000
     -0.000183       0.005489       0.000000
     -0.000109       0.005270       0.000000
     -0.000195       0.005466       0.000000
     -0.000409       0.005416       0.000000
     -0.000254       0.005451       0.000000
     -0.000183       0.005489       0.000000
     -0.000109       0.005270       0.000000
     -0.000183       0.005489       0.000000
     -0.000182       0.005487       0.000000
     -0.000121       0.005230       0.000000
     -0.000183       0.005489       0.000000
     -0.000254       0.005451       0.000000
     -0.000193       0.005477       0.000000
     -0.000182       0.005487       0.000000
     -0.000409       0.005416       0.000000
     -0.000651       0.005224       0.000000
     -0.000385       0.005160       0.000000
     -0.000254       0.005451       0.000000
     -0.000651       0.005224       0.000000
     -0.000913       0.004903       0.000000
     -0.000616       0.004714       0.000000
     -0.000385       0.005160       0.000000
     -0.000254       0.005451       0.000000
     -0.000385       0.005160       0.000000
     -0.000279       0.005184       0.000000
     -0.000193       0.005477       0.000000
     -0.000385       0.005160       0.000000
     -0.000616       0.004714       0.000000
     -0.000497       0.004746       0.000000
     -0.000279       0.005184       0.000000
      0.000311       0.004494       0.000000
      0.000057       0.004858       0.000000
      0.000119       0.004966       0.000000
      0.000407       0.004692       0.000000
      0.000057       0.004858       0.000000
     -0.000121       0.005230       0.000000
     -0.000101       0.005265       0.000000
      0.000119       0.004966       0.000000
      0.000407       0.004692       0.000000
      0.000119       0.004966       0.000000
      0.000194       0.005149       0.000000
      0.000520       0.004959       0.000000
      0.000119       0.004966       0.000000
     -0.000101       0.005265       0.000000
     -0.000070       0.005355       0.000000
      0.000194       0.005149       0.000000
     -0.000121       0.005230       0.000000
     -0.000182       0.005487       0.000000
     -0.000176       0.005503       0.000000
     -0.000101       0.005265       0.000000
     -0.000182       0.005487       0.000000
     -0.000193       0.005477       0.000000
     -0.000161       0.005512       0.000000
     -0.000176       0.005503       0.000000
     -0.000101       0.005265       0.000000
     -0.000176       0.005503       0.000000
     -0.000169       0.005537       0.000000
     -0.000070       0.005355       0.000000
     -0.000176       0.005503       0.000000
     -0.000161       0.005512       0.000000
     -0.000141       0.005554       0.000000
     -0.000169       0.005537       0.000000
     -0.000193       0.005477       0.000000
     -0.000279       0.005184       0.000000
     -0.000223       0.005253       0.000000
     -0.000161       0.005512       0.000000
     -0.000279       0.005184       0.000000
     -0.000497       0.004746       0.000000
     -0.000432       0.004862       0.000000
     -0.000223       0.005253       0.000000
     -0.000161       0.005512       0.000000
     -0.000223       0.005253       0.000000
     -0.000193       0.005356       0.000000
     -0.000141       0.005554       0.000000
     -0.000223       0.005253       0.000000
     -0.000432       0.004862       0.000000
     -0.000414       0.005047       0.000000
     -0.000193       0.005356       0.000000
      0.000520       0.004959       0.000000
      0.000194       0.005149       0.000000
      0.000286       0.005382       0.000000
      0.000665       0.005275       0.000000
      0.000194       0.005149       0.000000
     -0.000070       0.005355       0.000000
     -0.000032       0.005486       0.000000
      0.000286       0.005382       0.000000
      0.000665       0.005275       0.000000
      0.000286       0.005382       0.000000
      0.000403       0.005652       0.000000
      0.000863       0.005652       0.000000
      0.000286       0.005382       0.000000
     -0.000032       0.005486       0.000000
      0.000018       0.005652       0.000000
      0.000403       0.005652       0.000000
     -0.000070       0.005355       0.000000
     -0.000169       0.005537       0.000000
     -0.000164       0.005588       0.000000
     -0.000032       0.005486       0.000000
     -0.000169       0.005537       0.000000
     -0.000141       0.005554       0.000000
     -0.000131       0.005602       0.000000
     -0.000164       0.005588       0.000000
     -0.000032       0.005486       0.000000
     -0.000164       0.005588       0.000000
     -0.000161       0.005652       0.000000
      0.000018       0.005652       0.000000
     -0.000164       0.005588       0.000000
     -0.000131       0.005602       0.000000
     -0.000127       0.005652       0.000000
     -0.000161       0.005652       0.000000
     -0.000141       0.005554       0.000000
     -0.000193       0.005356       0.000000
     -0.000185       0.005489       0.000000
     -0.000131       0.005602       0.000000
     -0.000193       0.005356       0.000000
     -0.000414       0.005047       0.000000
     -0.000450       0.005310       0.000000
     -0.000185       0.005489       0.000000
     -0.000131       0.005602       0.000000
     -0.000185       0.005489       0.000000
     -0.000199       0.005652       0.000000
     -0.000127       0.005652       0.000000
     -0.000185       0.005489       0.000000
     -0.000450       0.005310       0.000000
     -0.000539       0.005652       0.000000
     -0.000199       0.005652       0.000000
      0.000321       0.000742       0.000000
      0.000488       0.001198       0.000000
      0.000478       0.001565       0.000000
      0.000195       0.001076       0.000000
      0.000488       0.001198       0.000000
      0.000618       0.001852       0.000000
      0.000790       0.002142       0.000000
      0.000478       0.001565       0.000000
      0.000195       0.001076       0.000000
      0.000478       0.001565       0.000000
      0.000545       0.001561       0.000000
      0.000234       0.001025       0.000000
      0.000478       0.001565       0.000000
      0.000790       0.002142       0.000000
      0.000892       0.002172       0.000000
      0.000545       0.001561       0.000000
      0.000618       0.001852       0.000000
      0.000661       0.002747       0.000000
      0.000952       0.002760       0.000000
      0.000790       0.002142       0.000000
      0.000661       0.002747       0.000000
      0.000644       0.003650       0.000000
      0.000822       0.003375       0.000000
      0.000952       0.002760       0.000000
      0.000790       0.002142       0.000000
      0.000952       0.002760       0.000000
      0.001069       0.002769       0.000000
      0.000892       0.002172       0.000000
      0.000952       0.002760       0.000000
      0.000822       0.003375       0.000000
      0.000926       0.003360       0.000000
      0.001069       0.002769       0.000000
      0.000644       0.003650       0.000000
      0.000532       0.004317       0.000000
      0.000528       0.003948       0.000000
      0.000822       0.003375       0.000000
      0.000532       0.004317       0.000000
      0.000369       0.004792       0.000000
      0.000245       0.004444       0.000000
      0.000528       0.003948       0.000000
      0.000822       0.003375       0.000000
      0.000528       0.003948       0.000000
      0.000607       0.003959       0.000000
      0.000926       0.003360       0.000000
      0.000528       0.003948       0.000000
      0.000245       0.004444       0.000000
      0.000311       0.004494       0.000000
      0.000607       0.003959       0.000000
      0.000234       0.001025       0.000000
      0.000545       0.001561       0.000000
      0.000622       0.001453       0.000000
      0.000276       0.000835       0.000000
      0.000545       0.001561       0.000000
      0.000892       0.002172       0.000000
      0.000993       0.002134       0.000000
      0.000622       0.001453       0.000000
      0.000276       0.000835       0.000000
      0.000622       0.001453       0.000000
      0.000693       0.001331       0.000000
      0.000285       0.000592       0.000000
      0.000622       0.001453       0.000000
      0.000993       0.002134       0.000000
      0.001096       0.002092       0.000000
      0.000693       0.001331       0.000000
      0.000892       0.002172       0.000000
      0.001069       0.002769       0.000000
      0.001177       0.002780       0.000000
      0.000993       0.002134       0.000000
      0.001069       0.002769       0.000000
      0.000926       0.003360       0.000000
      0.001031       0.003419       0.000000
      0.001177       0.002780       0.000000
      0.000993       0.002134       0.000000
      0.001177       0.002780       0.000000
      0.001293       0.002793       0.000000
      0.001096       0.002092       0.000000
      0.001177       0.002780       0.000000
      0.001031       0.003419       0.000000
      0.001138       0.003490       0.000000
      0.001293       0.002793       0.000000
      0.000926       0.003360       0.000000
      0.000607       0.003959       0.000000
      0.000703       0.004082       0.000000
      0.001031       0.003419       0.000000
      0.000607       0.003959       0.000000
      0.000311       0.004494       0.000000
      0.000407       0.004692       0.000000
      0.000703       0.004082       0.000000
      0.001031       0.003419       0.000000
      0.000703       0.004082       0.000000
      0.000800       0.004235       0.000000
      0.001138       0.003490       0.000000
      0.000703       0.004082       0.000000
      0.000407       0.004692       0.000000
      0.000520       0.004959       0.000000
      0.000800       0.004235       0.000000
      0.000285       0.000592       0.000000
      0.000693       0.001331       0.000000
      0.000754       0.001240       0.000000
      0.000230       0.000325       0.000000
      0.000693       0.001331       0.000000
      0.001096       0.002092       0.000000
      0.001195       0.002076       0.000000
      0.000754       0.001240       0.000000
      0.000230       0.000325       0.000000
      0.000754       0.001240       0.000000
      0.000808       0.001197       0.000000
      0.000000       0.000000       0.000000
      0.000754       0.001240       0.000000
      0.001195       0.002076       0.000000
      0.001283       0.002107       0.000000
      0.000808       0.001197       0.000000
      0.001096       0.002092       0.000000
      0.001293       0.002793       0.000000
      0.001411       0.002806       0.000000
      0.001195       0.002076       0.000000
      0.001293       0.002793       0.000000
      0.001138       0.003490       0.000000
      0.001244       0.003539       0.000000
      0.001411       0.002806       0.000000
      0.001195       0.002076       0.000000
      0.001411       0.002806       0.000000
      0.001518       0.002816       0.000000
      0.001283       0.002107       0.000000
      0.001411       0.002806       0.000000
      0.001244       0.003539       0.000000
      0.001342       0.003540       0.000000
      0.001518       0.002816       0.000000
      0.001138       0.003490       0.000000
      0.000800       0.004235       0.000000
      0.000898       0.004381       0.000000
      0.001244       0.003539       0.000000
      0.000800       0.004235       0.000000
      0.000520       0.004959       0.000000
      0.000665       0.005275       0.000000
      0.000898       0.004381       0.000000
      0.001244       0.003539       0.000000
      0.000898       0.004381       0.000000
      0.001009       0.004509       0.000000
      0.001342       0.003540       0.000000
      0.000898       0.004381       0.000000
      0.000665       0.005275       0.000000
      0.000863       0.005652       0.000000
      0.001009       0.004509       0.000000
     -0.000857       0.000696       0.000000
     -0.000590       0.000376       0.000000
     -0.000316       0.000444       0.000000
     -0.000546       0.000893       0.000000
     -0.000590       0.000376       0.000000
     -0.000359       0.000186       0.000000
     -0.000199       0.000159       0.000000
     -0.000316       0.000444       0.000000
     -0.000546       0.000893       0.000000
     -0.000316       0.000444       0.000000
     -0.000186       0.000428       0.000000
     -0.000402       0.000869       0.000000
     -0.000316       0.000444       0.000000
     -0.000199       0.000159       0.000000
     -0.000120       0.000142       0.000000
     -0.000186       0.000428       0.000000
     -0.000359       0.000186       0.000000
     -0.000171       0.000133       0.000000
     -0.000152       0.000115       0.000000
     -0.000199       0.000159       0.000000
     -0.000171       0.000133       0.000000
     -0.000008       0.000212       0.000000
     -0.000108       0.000306       0.000000
     -0.000152       0.000115       0.000000
     -0.000199       0.000159       0.000000
     -0.000152       0.000115       0.000000
     -0.000140       0.000123       0.000000
     -0.000120       0.000142       0.000000
     -0.000152       0.000115       0.000000
     -0.000108       0.000306       0.000000
     -0.000123       0.000346       0.000000
     -0.000140       0.000123       0.000000
     -0.000008       0.000212       0.000000
      0.000154       0.000419       0.000000
      0.000001       0.000662       0.000000
     -0.000108       0.000306       0.000000
      0.000154       0.000419       0.000000
      0.000321       0.000742       0.000000
      0.000195       0.001076       0.000000
      0.000001       0.000662       0.000000
     -0.000108       0.000306       0.000000
      0.000001       0.000662       0.000000
      0.000009       0.000680       0.000000
     -0.000123       0.000346       0.000000
      0.000001       0.000662       0.000000
      0.000195       0.001076       0.000000
      0.000234       0.001025       0.000000
      0.000009       0.000680       0.000000
     -0.000402       0.000869       0.000000
     -0.000186       0.000428       0.000000
     -0.000100       0.000364       0.000000
     -0.000304       0.000759       0.000000
     -0.000186       0.000428       0.000000
     -0.000120       0.000142       0.000000
     -0.000066       0.000119       0.000000
     -0.000100       0.000364       0.000000
     -0.000304       0.000759       0.000000
     -0.000100       0.000364       0.000000
     -0.000038       0.000265       0.000000
     -0.000239       0.000579       0.000000
     -0.000100       0.000364       0.000000
     -0.000066       0.000119       0.000000
     -0.000027       0.000088       0.000000
     -0.000038       0.000265       0.000000
     -0.000120       0.000142       0.000000
     -0.000140       0.000123       0.000000
     -0.000122       0.000118       0.000000
     -0.000066       0.000119       0.000000
     -0.000140       0.000123       0.000000
     -0.000123       0.000346       0.000000
     -0.000109       0.000316       0.000000
     -0.000122       0.000118       0.000000
     -0.000066       0.000119       0.000000
     -0.000122       0.000118       0.000000
     -0.000096       0.000094       0.000000
     -0.000027       0.000088       0.000000
     -0.000122       0.000118       0.000000
     -0.000109       0.000316       0.000000
     -0.000082       0.000236       0.000000
     -0.000096       0.000094       0.000000
     -0.000123       0.000346       0.000000
      0.000009       0.000680       0.000000
      0.000036       0.000574       0.000000
     -0.000109       0.000316       0.000000
      0.000009       0.000680       0.000000
      0.000234       0.001025       0.000000
      0.000276       0.000835       0.000000
      0.000036       0.000574       0.000000
     -0.000109       0.000316       0.000000
      0.000036       0.000574       0.000000
      0.000054       0.000403       0.000000
     -0.000082       0.000236       0.000000
      0.000036       0.000574       0.000000
      0.000276       0.000835       0.000000
      0.000285       0.000592       0.000000
      0.000054       0.000403       0.000000
     -0.000239       0.000579       0.000000
     -0.000038       0.000265       0.000000
     -0.000002       0.000140       0.000000
     -0.000183       0.000326       0.000000
     -0.000038       0.000265       0.000000
     -0.000027       0.000088       0.000000
     -0.000004       0.000049       0.000000
     -0.000002       0.000140       0.000000
     -0.000183       0.000326       0.000000
     -0.000002       0.000140       0.000000
      0.000000       0.000000       0.000000
      0.000000       0.000000       0.000000
     -0.000002       0.000140       0.000000
     -0.000004       0.000049       0.000000
      0.000000       0.000000       0.000000
      0.000000       0.000000       0.000000
     -0.000027       0.000088       0.000000
     -0.000096       0.000094       0.000000
     -0.000059       0.000055       0.000000
     -0.000004       0.000049       0.000000
     -0.000096       0.000094       0.000000
     -0.000082       0.000236       0.000000
     -0.000046       0.000125       0.000000
     -0.000059       0.000055       0.000000
     -0.000004       0.000049       0.000000
     -0.000059       0.000055       0.000000
      0.000000       0.000000       0.000000
      0.000000       0.000000       0.000000
     -0.000059       0.000055       0.000000
     -0.000046       0.000125       0.000000
      0.000000       0.000000       0.000000
      0.000000       0.000000       0.000000
     -0.000082       0.000236       0.000000
      0.000054       0.000403       0.000000
      0.000047       0.000203       0.000000
     -0.000046       0.000125       0.000000
      0.000054       0.000403       0.000000
      0.000285       0.000592       0.000000
      0.000230       0.000325       0.000000
      0.000047       0.000203       0.000000
     -0.000046       0.000125       0.000000
      0.000047       0.000203       0.000000
      0.000000       0.000000       0.000000
      0.000000       0.000000       0.000000
      0.000047       0.000203       0.000000
      0.000230       0.000325       0.000000
      0.000000       0.000000       0.000000
      0.000000       0.000000       0.000000
     -0.000857       0.000696       0.000000
     -0.001148       0.001161       0.000000
     -0.000949       0.001382       0.000000
     -0.000546       0.000893       0.000000
     -0.001148       0.001161       0.000000
     -0.001401       0.001838       0.000000
     -0.001440       0.002005       0.000000
     -0.000949       0.001382       0.000000
     -0.000546       0.000893       0.000000
     -0.000949       0.001382       0.000000
     -0.000829       0.001403       0.000000