# vtk DataFile Version 2.0
time_10.vtk
ASCII
DATASET UNSTRUCTURED_GRID
POINTS   576 float
      0.458579       0.641421       0.000000
      0.497369       0.671659       0.000000
      0.438243       0.730363       0.000000
      0.382149       0.701184       0.000000
      0.497369       0.671659       0.000000
      0.545805       0.692517       0.000000
      0.506084       0.750000       0.000000
      0.438243       0.730363       0.000000
      0.382149       0.701184       0.000000
      0.438243       0.730363       0.000000
      0.380813       0.787383       0.000000
      0.305719       0.760948       0.000000
      0.438243       0.730363       0.000000
      0.506084       0.750000       0.000000
      0.468251       0.804752       0.000000
      0.380813       0.787383       0.000000
      0.545805       0.692517       0.000000
      0.600000       0.700000       0.000000
      0.581017       0.756950       0.000000
      0.506084       0.750000       0.000000
      0.600000       0.700000       0.000000
      0.654195       0.692517       0.000000
      0.656527       0.750000       0.000000
      0.581017       0.756950       0.000000
      0.506084       0.750000       0.000000
      0.581017       0.756950       0.000000
      0.563060       0.810819       0.000000
      0.468251       0.804752       0.000000
      0.581017       0.756950       0.000000
      0.656527       0.750000       0.000000
      0.658747       0.804752       0.000000
      0.563060       0.810819       0.000000
      0.654195       0.692517       0.000000
      0.702631       0.671659       0.000000
      0.725999       0.730363       0.000000
      0.656527       0.750000       0.000000
      0.702631       0.671659       0.000000
      0.741421       0.641421       0.000000
      0.784518       0.701184       0.000000
      0.725999       0.730363       0.000000
      0.656527       0.750000       0.000000
      0.725999       0.730363       0.000000
      0.748697       0.787383       0.000000
      0.658747       0.804752       0.000000
      0.725999       0.730363       0.000000
      0.784518       0.701184       0.000000
      0.827614       0.760948       0.000000
      0.748697       0.787383       0.000000
      0.305719       0.760948       0.000000
      0.380813       0.787383       0.000000
      0.325006       0.842791       0.000000
      0.229289       0.820711       0.000000
      0.380813       0.787383       0.000000
      0.468251       0.804752       0.000000
      0.432173       0.856962       0.000000
      0.325006       0.842791       0.000000
      0.229289       0.820711       0.000000
      0.325006       0.842791       0.000000
      0.270755       0.896655       0.000000
      0.152860       0.880474       0.000000
      0.325006       0.842791       0.000000
      0.432173       0.856962       0.000000
      0.397732       0.906804       0.000000
      0.270755       0.896655       0.000000
      0.468251       0.804752       0.000000
      0.563060       0.810819       0.000000
      0.546050       0.861851       0.000000
      0.432173       0.856962       0.000000
      0.563060       0.810819       0.000000
      0.658747       0.804752       0.000000
      0.660865       0.856962       0.000000
      0.546050       0.861851       0.000000
      0.432173       0.856962       0.000000
      0.546050       0.861851       0.000000
      0.529912       0.910264       0.000000
      0.397732       0.906804       0.000000
      0.546050       0.861851       0.000000
      0.660865       0.856962       0.000000
      0.662887       0.906804       0.000000
      0.529912       0.910264       0.000000
      0.658747       0.804752       0.000000
      0.748697       0.787383       0.000000
      0.770753       0.842791       0.000000
      0.660865       0.856962       0.000000
      0.748697       0.787383       0.000000
      0.827614       0.760948       0.000000
      0.870711       0.820711       0.000000
      0.770753       0.842791       0.000000
      0.660865       0.856962       0.000000
      0.770753       0.842791       0.000000
      0.792195       0.896655       0.000000
      0.662887       0.906804       0.000000
      0.770753       0.842791       0.000000
      0.870711       0.820711       0.000000
      0.913807       0.880474       0.000000
      0.792195       0.896655       0.000000
      0.152860       0.880474       0.000000
      0.270755       0.896655       0.000000
      0.217995       0.949038       0.000000
      0.076430       0.940237       0.000000
      0.270755       0.896655       0.000000
      0.397732       0.906804       0.000000
      0.364819       0.954435       0.000000
      0.217995       0.949038       0.000000
      0.076430       0.940237       0.000000
      0.217995       0.949038       0.000000
      0.166667       1.000000       0.000000
      0.000000       1.000000       0.000000
      0.217995       0.949038       0.000000
      0.364819       0.954435       0.000000
      0.333333       1.000000       0.000000
      0.166667       1.000000       0.000000
      0.397732       0.906804       0.000000
      0.529912       0.910264       0.000000
      0.514582       0.956255       0.000000
      0.364819       0.954435       0.000000
      0.529912       0.910264       0.000000
      0.662887       0.906804       0.000000
      0.664819       0.954435       0.000000
      0.514582       0.956255       0.000000
      0.364819       0.954435       0.000000
      0.514582       0.956255       0.000000
      0.500000       1.000000       0.000000
      0.333333       1.000000       0.000000
      0.514582       0.956255       0.000000
      0.664819       0.954435       0.000000
      0.666667       1.000000       0.000000
      0.500000       1.000000       0.000000
      0.662887       0.906804       0.000000
      0.792195       0.896655       0.000000
      0.813047       0.949038       0.000000
      0.664819       0.954435       0.000000
      0.792195       0.896655       0.000000
      0.913807       0.880474       0.000000
      0.956904       0.940237       0.000000
      0.813047       0.949038       0.000000
      0.664819       0.954435       0.000000
      0.813047       0.949038       0.000000
      0.833333       1.000000       0.000000
      0.666667       1.000000       0.000000
      0.813047       0.949038       0.000000
      0.956904       0.940237       0.000000
      1.000000       1.000000       0.000000
      0.833333       1.000000       0.000000
      0.458579       0.358579       0.000000
      0.428341       0.397369       0.000000
      0.351758       0.356122       0.000000
      0.382149       0.298816       0.000000
      0.428341       0.397369       0.000000
      0.407483       0.445805       0.000000
      0.331305       0.424779       0.000000
      0.351758       0.356122       0.000000
      0.382149       0.298816       0.000000
      0.351758       0.356122       0.000000
      0.277372       0.316058       0.000000
      0.305719       0.239052       0.000000
      0.351758       0.356122       0.000000
      0.331305       0.424779       0.000000
      0.258747       0.404752       0.000000
      0.277372       0.316058       0.000000
      0.407483       0.445805       0.000000
      0.400000       0.500000       0.000000
      0.324066       0.500000       0.000000
      0.331305       0.424779       0.000000
      0.400000       0.500000       0.000000
      0.407483       0.554195       0.000000
      0.331305       0.575221       0.000000
      0.324066       0.500000       0.000000
      0.331305       0.424779       0.000000
      0.324066       0.500000       0.000000
      0.252241       0.500000       0.000000
      0.258747       0.404752       0.000000
      0.324066       0.500000       0.000000
      0.331305       0.575221       0.000000
      0.258747       0.595248       0.000000
      0.252241       0.500000       0.000000
      0.407483       0.554195       0.000000
      0.428341       0.602631       0.000000
      0.351758       0.643878       0.000000
      0.331305       0.575221       0.000000
      0.428341       0.602631       0.000000
      0.458579       0.641421       0.000000
      0.382149       0.701184       0.000000
      0.351758       0.643878       0.000000
      0.331305       0.575221       0.000000
      0.351758       0.643878       0.000000
      0.277372       0.683942       0.000000
      0.258747       0.595248       0.000000
      0.351758       0.643878       0.000000
      0.382149       0.701184       0.000000
      0.305719       0.760948       0.000000
      0.277372       0.683942       0.000000
      0.305719       0.239052       0.000000
      0.277372       0.316058       0.000000
      0.205089       0.277126       0.000000
      0.229289       0.179289       0.000000
      0.277372       0.316058       0.000000
      0.258747       0.404752       0.000000
      0.189557       0.385654       0.000000
      0.205089       0.277126       0.000000
      0.229289       0.179289       0.000000
      0.205089       0.277126       0.000000
      0.134820       0.239280       0.000000
      0.152860       0.119526       0.000000
      0.205089       0.277126       0.000000
      0.189557       0.385654       0.000000
      0.123505       0.367423       0.000000
      0.134820       0.239280       0.000000
      0.258747       0.404752       0.000000
      0.252241       0.500000       0.000000
      0.184198       0.500000       0.000000
      0.189557       0.385654       0.000000
      0.252241       0.500000       0.000000
      0.258747       0.595248       0.000000
      0.189557       0.614346       0.000000
      0.184198       0.500000       0.000000
      0.189557       0.385654       0.000000
      0.184198       0.500000       0.000000
      0.119648       0.500000       0.000000
      0.123505       0.367423       0.000000
[...]
POINT_DATA   576
VECTORS U float 
      0.000405       0.005256       0.000000
      0.000209       0.005624       0.000000
      0.000035       0.005346       0.000000
      0.000265       0.004875       0.000000
      0.000209       0.005624       0.000000
      0.000003       0.005871       0.000000
     -0.000116       0.005763       0.000000
      0.000035       0.005346       0.000000
      0.000265       0.004875       0.000000
      0.000035       0.005346       0.000000
      0.000059       0.005317       0.000000
      0.000333       0.004919       0.000000
      0.000035       0.005346       0.000000
     -0.000116       0.005763       0.000000
     -0.000131       0.005718       0.000000
      0.000059       0.005317       0.000000
      0.000003       0.005871       0.000000
     -0.000209       0.005971       0.000000
     -0.000196       0.005997       0.000000
     -0.000116       0.005763       0.000000
     -0.000209       0.005971       0.000000
     -0.000440       0.005920       0.000000
     -0.000273       0.005957       0.000000
     -0.000196       0.005997       0.000000
     -0.000116       0.005763       0.000000
     -0.000196       0.005997       0.000000
     -0.000195       0.005993       0.000000
     -0.000131       0.005718       0.000000
     -0.000196       0.005997       0.000000
     -0.000273       0.005957       0.000000
     -0.000206       0.005983       0.000000
     -0.000195       0.005993       0.000000
     -0.000440       0.005920       0.000000
     -0.000702       0.005716       0.000000
     -0.000414       0.005648       0.000000
     -0.000273       0.005957       0.000000
     -0.000702       0.005716       0.000000
     -0.000990       0.005377       0.000000
     -0.000663       0.005170       0.000000
     -0.000414       0.005648       0.000000
     -0.000273       0.005957       0.000000
     -0.000414       0.005648       0.000000
     -0.000297       0.005670       0.000000
     -0.000206       0.005983       0.000000
     -0.000414       0.005648       0.000000
     -0.000663       0.005170       0.000000
     -0.000529       0.005197       0.000000
     -0.000297       0.005670       0.000000
      0.000333       0.004919       0.000000
      0.000059       0.005317       0.000000
      0.000122       0.005428       0.000000
      0.000434       0.005124       0.000000
      0.000059       0.005317       0.000000
     -0.000131       0.005718       0.000000
     -0.000111       0.005753       0.000000
      0.000122       0.005428       0.000000
      0.000434       0.005124       0.000000
      0.000122       0.005428       0.000000
      0.000201       0.005622       0.000000
      0.000554       0.005409       0.000000
      0.000122       0.005428       0.000000
     -0.000111       0.005753       0.000000
     -0.000081       0.005847       0.000000
      0.000201       0.005622       0.000000
     -0.000131       0.005718       0.000000
     -0.000195       0.005993       0.000000
     -0.000189       0.006008       0.000000
     -0.000111       0.005753       0.000000
     -0.000195       0.005993       0.000000
     -0.000206       0.005983       0.000000
     -0.000170       0.006018       0.000000
     -0.000189       0.006008       0.000000
     -0.000111       0.005753       0.000000
     -0.000189       0.006008       0.000000
     -0.000183       0.006043       0.000000
     -0.000081       0.005847       0.000000
     -0.000189       0.006008       0.000000
     -0.000170       0.006018       0.000000
     -0.000149       0.006062       0.000000
     -0.000183       0.006043       0.000000
     -0.000206       0.005983       0.000000
     -0.000297       0.005670       0.000000
     -0.000234       0.005741       0.000000
     -0.000170       0.006018       0.000000
     -0.000297       0.005670       0.000000
     -0.000529       0.005197       0.000000
     -0.000456       0.005315       0.000000
     -0.000234       0.005741       0.000000
     -0.000170       0.006018       0.000000
     -0.000234       0.005741       0.000000
     -0.000201       0.005848       0.000000
     -0.000149       0.006062       0.000000
     -0.000234       0.005741       0.000000
     -0.000456       0.005315       0.000000
     -0.000435       0.005511       0.000000
     -0.000201       0.005848       0.000000
      0.000554       0.005409       0.000000
      0.000201       0.005622       0.000000
      0.000298       0.005871       0.000000
      0.000709       0.005749       0.000000
      0.000201       0.005622       0.000000
     -0.000081       0.005847       0.000000
     -0.000041       0.005986       0.000000
      0.000298       0.005871       0.000000
      0.000709       0.005749       0.000000
      0.000298       0.005871       0.000000
      0.000423       0.006162       0.000000
      0.000926       0.006162       0.000000
      0.000298       0.005871       0.000000
     -0.000041       0.005986       0.000000
      0.000011       0.006162       0.000000
      0.000423       0.006162       0.000000
     -0.000081       0.005847       0.000000
     -0.000183       0.006043       0.000000
     -0.000178       0.006096       0.000000
     -0.000041       0.005986       0.000000
     -0.000183       0.006043       0.000000
     -0.000149       0.006062       0.000000
     -0.000137       0.006111       0.000000
     -0.000178       0.006096       0.000000
     -0.000041       0.005986       0.000000
     -0.000178       0.006096       0.000000
     -0.000175       0.006162       0.000000
      0.000011       0.006162       0.000000
     -0.000178       0.006096       0.000000
     -0.000137       0.006111       0.000000
     -0.000133       0.006162       0.000000
     -0.000175       0.006162       0.000000
     -0.000149       0.006062       0.000000
     -0.000201       0.005848       0.000000
     -0.000191       0.005988       0.000000
     -0.000137       0.006111       0.000000
     -0.000201       0.005848       0.000000
     -0.000435       0.005511       0.000000
     -0.000473       0.005794       0.000000
     -0.000191       0.005988       0.000000
     -0.000137       0.006111       0.000000
     -0.000191       0.005988       0.000000
     -0.000205       0.006162       0.000000
     -0.000133       0.006162       0.000000
     -0.000191       0.005988       0.000000
     -0.000473       0.005794       0.000000
     -0.000570       0.006162       0.000000
     -0.000205       0.006162       0.000000
      0.000354       0.000782       0.000000
      0.000540       0.001266       0.000000
      0.000523       0.001675       0.000000
      0.000213       0.001146       0.000000
      0.000540       0.001266       0.000000
      0.000686       0.001967       0.000000
      0.000871       0.002311       0.000000
      0.000523       0.001675       0.000000
      0.000213       0.001146       0.000000
      0.000523       0.001675       0.000000
      0.000596       0.001685       0.000000
      0.000253       0.001099       0.000000
      0.000523       0.001675       0.000000
      0.000871       0.002311       0.000000
      0.000984       0.002359       0.000000
      0.000596       0.001685       0.000000
      0.000686       0.001967       0.000000
      0.000722       0.002995       0.000000
      0.001061       0.003010       0.000000
      0.000871       0.002311       0.000000
      0.000722       0.002995       0.000000
      0.000713       0.004035       0.000000
      0.000907       0.003704       0.000000
      0.001061       0.003010       0.000000
      0.000871       0.002311       0.000000
      0.001061       0.003010       0.000000
      0.001187       0.003019       0.000000
      0.000984       0.002359       0.000000
      0.001061       0.003010       0.000000
      0.000907       0.003704       0.000000
      0.001021       0.003671       0.000000
      0.001187       0.003019       0.000000
      0.000713       0.004035       0.000000
      0.000588       0.004751       0.000000
      0.000576       0.004337       0.000000
      0.000907       0.003704       0.000000
      0.000588       0.004751       0.000000
      0.000405       0.005256       0.000000
      0.000265       0.004875       0.000000
      0.000576       0.004337       0.000000
      0.000907       0.003704       0.000000
      0.000576       0.004337       0.000000
      0.000661       0.004333       0.000000
      0.001021       0.003671       0.000000
      0.000576       0.004337       0.000000
      0.000265       0.004875       0.000000
      0.000333       0.004919       0.000000
      0.000661       0.004333       0.000000
      0.000253       0.001099       0.000000
      0.000596       0.001685       0.000000
      0.000679       0.001576       0.000000
      0.000297       0.000900       0.000000
      0.000596       0.001685       0.000000
      0.000984       0.002359       0.000000
      0.001095       0.002324       0.000000
      0.000679       0.001576       0.000000
      0.000297       0.000900       0.000000
      0.000679       0.001576       0.000000
      0.000756       0.001449       0.000000
      0.000306       0.000641       0.000000
      0.000679       0.001576       0.000000
      0.001095       0.002324       0.000000
      0.001207       0.002281       0.000000
      0.000756       0.001449       0.000000
      0.000984       0.002359       0.000000
      0.001187       0.003019       0.000000
      0.001303       0.003031       0.000000
      0.001095       0.002324       0.000000
      0.001187       0.003019       0.000000
      0.001021       0.003671       0.000000
      0.001134       0.003729       0.000000
      0.001303       0.003031       0.000000
      0.001095       0.002324       0.000000
      0.001303       0.003031       0.000000
      0.001428       0.003044       0.000000
      0.001207       0.002281       0.000000
      0.001303       0.003031       0.000000
      0.001134       0.003729       0.000000
      0.001250       0.003801       0.000000
      0.001428       0.003044       0.000000
      0.001021       0.003671       0.000000
      0.000661       0.004333       0.000000
      0.000764       0.004458       0.000000
      0.001134       0.003729       0.000000
      0.000661       0.004333       0.000000
      0.000333       0.004919       0.000000
      0.000434       0.005124       0.000000
      0.000764       0.004458       0.000000
      0.001134       0.003729       0.000000
      0.000764       0.004458       0.000000
      0.000867       0.004617       0.000000
      0.001250       0.003801       0.000000
      0.000764       0.004458       0.000000
      0.000434       0.005124       0.000000
      0.000554       0.005409       0.000000
      0.000867       0.004617       0.000000
      0.000306       0.000641       0.000000
      0.000756       0.001449       0.000000
      0.000822       0.001354       0.000000
      0.000248       0.000353       0.000000
      0.000756       0.001449       0.000000
      0.001207       0.002281       0.000000
      0.001313       0.002267       0.000000
      0.000822       0.001354       0.000000
      0.000248       0.000353       0.000000
      0.000822       0.001354       0.000000
      0.000879       0.001311       0.000000
      0.000000       0.000000       0.000000
      0.000822       0.001354       0.000000
      0.001313       0.002267       0.000000
      0.001407       0.002304       0.000000
      0.000879       0.001311       0.000000
      0.001207       0.002281       0.000000
      0.001428       0.003044       0.000000
      0.001554       0.003057       0.000000
      0.001313       0.002267       0.000000
      0.001428       0.003044       0.000000
      0.001250       0.003801       0.000000
      0.001363       0.003850       0.000000
      0.001554       0.003057       0.000000
      0.001313       0.002267       0.000000
      0.001554       0.003057       0.000000
      0.001670       0.003067       0.000000
      0.001407       0.002304       0.000000
      0.001554       0.003057       0.000000
      0.001363       0.003850       0.000000
      0.001469       0.003846       0.000000
      0.001670       0.003067       0.000000
      0.001250       0.003801       0.000000
      0.000867       0.004617       0.000000
      0.000972       0.004770       0.000000
      0.001363       0.003850       0.000000
      0.000867       0.004617       0.000000
      0.000554       0.005409       0.000000
      0.000709       0.005749       0.000000
      0.000972       0.004770       0.000000
      0.001363       0.003850       0.000000
      0.000972       0.004770       0.000000
      0.001091       0.004905       0.000000
      0.001469       0.003846       0.000000
      0.000972       0.004770       0.000000
      0.000709       0.005749       0.000000
      0.000926       0.006162       0.000000
      0.001091       0.004905       0.000000
     -0.000930       0.000729       0.000000
     -0.000637       0.000391       0.000000
     -0.000340       0.000465       0.000000
     -0.000587       0.000945       0.000000
     -0.000637       0.000391       0.000000
     -0.000385       0.000191       0.000000
     -0.000214       0.000162       0.000000
     -0.000340       0.000465       0.000000
     -0.000587       0.000945       0.000000
     -0.000340       0.000465       0.000000
     -0.000198       0.000451       0.000000
     -0.000428       0.000927       0.000000
     -0.000340       0.000465       0.000000
     -0.000214       0.000162       0.000000
     -0.000127       0.000146       0.000000
     -0.000198       0.000451       0.000000
     -0.000385       0.000191       0.000000
     -0.000182       0.000136       0.000000
     -0.000162       0.000117       0.000000
     -0.000214       0.000162       0.000000
     -0.000182       0.000136       0.000000
     -0.000006       0.000220       0.000000
     -0.000113       0.000319       0.000000
     -0.000162       0.000117       0.000000
     -0.000214       0.000162       0.000000
     -0.000162       0.000117       0.000000
     -0.000149       0.000126       0.000000
     -0.000127       0.000146       0.000000
     -0.000162       0.000117       0.000000
     -0.000113       0.000319       0.000000
     -0.000131       0.000364       0.000000
     -0.000149       0.000126       0.000000
     -0.000006       0.000220       0.000000
      0.000170       0.000439       0.000000
      0.000005       0.000699       0.000000
     -0.000113       0.000319       0.000000
      0.000170       0.000439       0.000000
      0.000354       0.000782       0.000000
      0.000213       0.001146       0.000000
      0.000005       0.000699       0.000000
     -0.000113       0.000319       0.000000
      0.000005       0.000699       0.000000
      0.000010       0.000723       0.000000
     -0.000131       0.000364       0.000000
      0.000005       0.000699       0.000000
      0.000213       0.001146       0.000000
      0.000253       0.001099       0.000000
      0.000010       0.000723       0.000000
     -0.000428       0.000927       0.000000
     -0.000198       0.000451       0.000000
     -0.000104       0.000385       0.000000
     -0.000321       0.000813       0.000000
     -0.000198       0.000451       0.000000
     -0.000127       0.000146       0.000000
     -0.000069       0.000123       0.000000
     -0.000104       0.000385       0.000000
     -0.000321       0.000813       0.000000
     -0.000104       0.000385       0.000000
     -0.000038       0.000281       0.000000
     -0.000252       0.000622       0.000000
     -0.000104       0.000385       0.000000
     -0.000069       0.000123       0.000000
     -0.000028       0.000091       0.000000
     -0.000038       0.000281       0.000000
     -0.000127       0.000146       0.000000
     -0.000149       0.000126       0.000000
     -0.000130       0.000122       0.000000
     -0.000069       0.000123       0.000000
     -0.000149       0.000126       0.000000
     -0.000131       0.000364       0.000000
     -0.000117       0.000334       0.000000
     -0.000130       0.000122       0.000000
     -0.000069       0.000123       0.000000
     -0.000130       0.000122       0.000000
     -0.000103       0.000098       0.000000
     -0.000028       0.000091       0.000000
     -0.000130       0.000122       0.000000
     -0.000117       0.000334       0.000000
     -0.000089       0.000250       0.000000
     -0.000103       0.000098       0.000000
     -0.000131       0.000364       0.000000
      0.000010       0.000723       0.000000
      0.000038       0.000613       0.000000
     -0.000117       0.000334       0.000000
      0.000010       0.000723       0.000000
      0.000253       0.001099       0.000000
      0.000297       0.000900       0.000000
      0.000038       0.000613       0.000000
     -0.000117       0.000334       0.000000
      0.000038       0.000613       0.000000
      0.000056       0.000432       0.000000
     -0.000089       0.000250       0.000000
      0.000038       0.000613       0.000000
      0.000297       0.000900       0.000000
      0.000306       0.000641       0.000000
      0.000056       0.000432       0.000000
     -0.000252       0.000622       0.000000
     -0.000038       0.000281       0.000000
     -0.000000       0.000149       0.000000
     -0.000194       0.000349       0.000000
     -0.000038       0.000281       0.000000
     -0.000028       0.000091       0.000000
     -0.000003       0.000051       0.000000
     -0.000000       0.000149       0.000000
     -0.000194       0.000349       0.000000
     -0.000000       0.000149       0.000000
      0.000000       0.000000       0.000000
      0.000000       0.000000       0.000000
     -0.000000       0.000149       0.000000
     -0.000003       0.000051       0.000000
      0.000000       0.000000       0.000000
      0.000000       0.000000       0.000000
     -0.000028       0.000091       0.000000
     -0.000103       0.000098       0.000000
     -0.000063       0.000057       0.000000
     -0.000003       0.000051       0.000000
     -0.000103       0.000098       0.000000
     -0.000089       0.000250       0.000000
     -0.000050       0.000133       0.000000
     -0.000063       0.000057       0.000000
     -0.000003       0.000051       0.000000
     -0.000063       0.000057       0.000000
      0.000000       0.000000       0.000000
      0.000000       0.000000       0.000000
     -0.000063       0.000057       0.000000
     -0.000050       0.000133       0.000000
      0.000000       0.000000       0.000000
      0.000000       0.000000       0.000000
     -0.000089       0.000250       0.000000
      0.000056       0.000432       0.000000
      0.000049       0.000218       0.000000
     -0.000050       0.000133       0.000000
      0.000056       0.000432       0.000000
      0.000306       0.000641       0.000000
      0.000248       0.000353       0.000000
      0.000049       0.000218       0.000000
     -0.000050       0.000133       0.000000
      0.000049       0.000218       0.000000
      0.000000       0.000000       0.000000
      0.000000       0.000000       0.000000
      0.000049       0.000218       0.000000
      0.000248       0.000353       0.000000
      0.000000       0.000000       0.000000
      0.000000       0.000000       0.000000
     -0.000930       0.000729       0.000000
     -0.001252       0.001221       0.000000
     -0.001028       0.001468       0.000000
     -0.000587       0.000945       0.000000
     -0.001252       0.001221       0.000000
     -0.001537       0.001941       0.000000
     -0.001572       0.002141       0.000000
     -0.001028       0.001468       0.000000
     -0.000587       0.000945       0.000000
     -0.001028       0.001468       0.000000
     -0.000893       0.001502       0.000000