# vtk DataFile Version 2.0
time_10.vtk
ASCII
DATASET UNSTRUCTURED_GRID
POINTS  2100 float
      0.458579       0.641421       0.000000
      0.497369       0.671659       0.000000
      0.438243       0.730363       0.000000
      0.382149       0.701184       0.000000
      0.497369       0.671659       0.000000
      0.545805       0.692517       0.000000
      0.506084       0.750000       0.000000
      0.438243       0.730363       0.000000
      0.382149       0.701184       0.000000
      0.438243       0.730363       0.000000
      0.380813       0.787383       0.000000
      0.305719       0.760948       0.000000
      0.438243       0.730363       0.000000
      0.506084       0.750000       0.000000
      0.468251       0.804752       0.000000
      0.380813       0.787383       0.000000
      0.545805       0.692517       0.000000
      0.600000       0.700000       0.000000
      0.581017       0.756950       0.000000
      0.506084       0.750000       0.000000
      0.600000       0.700000       0.000000
      0.654195       0.692517       0.000000
      0.656527       0.750000       0.000000
      0.581017       0.756950       0.000000
      0.506084       0.750000       0.000000
      0.581017       0.756950       0.000000
      0.563060       0.810819       0.000000
      0.468251       0.804752       0.000000
      0.581017       0.756950       0.000000
      0.656527       0.750000       0.000000
      0.658747       0.804752       0.000000
      0.563060       0.810819       0.000000
      0.654195       0.692517       0.000000
      0.702631       0.671659       0.000000
      0.725999       0.730363       0.000000
      0.656527       0.750000       0.000000
      0.702631       0.671659       0.000000
      0.741421       0.641421       0.000000
      0.784518       0.701184       0.000000
      0.725999       0.730363       0.000000
      0.656527       0.750000       0.000000
      0.725999       0.730363       0.000000
      0.748697       0.787383       0.000000
      0.658747       0.804752       0.000000
      0.725999       0.730363       0.000000
      0.784518       0.701184       0.000000
      0.827614       0.760948       0.000000
      0.748697       0.787383       0.000000
      0.305719       0.760948       0.000000
      0.380813       0.787383       0.000000
      0.325006       0.842791       0.000000
      0.229289       0.820711       0.000000
      0.380813       0.787383       0.000000
      0.468251       0.804752       0.000000
      0.432173       0.856962       0.000000
      0.325006       0.842791       0.000000
      0.229289       0.820711       0.000000
      0.325006       0.842791       0.000000
      0.270755       0.896655       0.000000
      0.152860       0.880474       0.000000
      0.325006       0.842791       0.000000
      0.432173       0.856962       0.000000
      0.397732       0.906804       0.000000
      0.270755       0.896655       0.000000
      0.468251       0.804752       0.000000
      0.563060       0.810819       0.000000
      0.546050       0.861851       0.000000
      0.432173       0.856962       0.000000
      0.563060       0.810819       0.000000
      0.658747       0.804752       0.000000
      0.660865       0.856962       0.000000
      0.546050       0.861851       0.000000
      0.432173       0.856962       0.000000
      0.546050       0.861851       0.000000
      0.529912       0.910264       0.000000
      0.397732       0.906804       0.000000
      0.546050       0.861851       0.000000
      0.660865       0.856962       0.000000
      0.662887       0.906804       0.000000
      0.529912       0.910264       0.000000
      0.658747       0.804752       0.000000
      0.748697       0.787383       0.000000
      0.770753       0.842791       0.000000
      0.660865       0.856962       0.000000
      0.748697       0.787383       0.000000
      0.827614       0.760948       0.000000
      0.870711       0.820711       0.000000
      0.770753       0.842791       0.000000
      0.660865       0.856962       0.000000
      0.770753       0.842791       0.000000
      0.792195       0.896655       0.000000
      0.662887       0.906804       0.000000
      0.770753       0.842791       0.000000
      0.870711       0.820711       0.000000
      0.913807       0.880474       0.000000
      0.792195       0.896655       0.000000
      0.152860       0.880474       0.000000
      0.270755       0.896655       0.000000
      0.217995       0.949038       0.000000
      0.076430       0.940237       0.000000
      0.270755       0.896655       0.000000
      0.397732       0.906804       0.000000
      0.364819       0.954435       0.000000
      0.217995       0.949038       0.000000
      0.076430       0.940237       0.000000
      0.217995       0.949038       0.000000
      0.166667       1.000000       0.000000
      0.000000       1.000000       0.000000
      0.217995       0.949038       0.000000
      0.364819       0.954435       0.000000
      0.333333       1.000000       0.000000
      0.166667       1.000000       0.000000
      0.397732       0.906804       0.000000
      0.529912       0.910264       0.000000
      0.514582       0.956255       0.000000
      0.364819       0.954435       0.000000
      0.529912       0.910264       0.000000
      0.662887       0.906804       0.000000
      0.664819       0.954435       0.000000
      0.514582       0.956255       0.000000
      0.364819       0.954435       0.000000
      0.514582       0.956255       0.000000
      0.500000       1.000000       0.000000
      0.333333       1.000000       0.000000
      0.514582       0.956255       0.000000
      0.664819       0.954435       0.000000
      0.666667       1.000000       0.000000
      0.500000       1.000000       0.000000
      0.662887       0.906804       0.000000
      0.792195       0.896655       0.000000
      0.813047       0.949038       0.000000
      0.664819       0.954435       0.000000
      0.792195       0.896655       0.000000
      0.913807       0.880474       0.000000
      0.956904       0.940237       0.000000
      0.813047       0.949038       0.000000
      0.664819       0.954435       0.000000
      0.813047       0.949038       0.000000
      0.833333       1.000000       0.000000
      0.666667       1.000000       0.000000
      0.813047       0.949038       0.000000
      0.956904       0.940237       0.000000
      1.000000       1.000000       0.000000
      0.833333       1.000000       0.000000
      0.458579       0.358579       0.000000
      0.428341       0.397369       0.000000
      0.351758       0.356122       0.000000
      0.382149       0.298816       0.000000
      0.382149       0.298816       0.000000
      0.351758       0.356122       0.000000
      0.277372       0.316058       0.000000
      0.305719       0.239052       0.000000
      0.351758       0.356122       0.000000
      0.331305       0.424779       0.000000
      0.258747       0.404752       0.000000
      0.277372       0.316058       0.000000
      0.331305       0.424779       0.000000
      0.324066       0.500000       0.000000
      0.252241       0.500000       0.000000
      0.258747       0.404752       0.000000
      0.324066       0.500000       0.000000
      0.331305       0.575221       0.000000
      0.258747       0.595248       0.000000
      0.252241       0.500000       0.000000
      0.428341       0.602631       0.000000
      0.458579       0.641421       0.000000
      0.382149       0.701184       0.000000
      0.351758       0.643878       0.000000
      0.331305       0.575221       0.000000
      0.351758       0.643878       0.000000
      0.277372       0.683942       0.000000
      0.258747       0.595248       0.000000
      0.351758       0.643878       0.000000
      0.382149       0.701184       0.000000
      0.305719       0.760948       0.000000
      0.277372       0.683942       0.000000
      0.305719       0.239052       0.000000
      0.277372       0.316058       0.000000
      0.205089       0.277126       0.000000
      0.229289       0.179289       0.000000
      0.277372       0.316058       0.000000
      0.258747       0.404752       0.000000
      0.189557       0.385654       0.000000
      0.205089       0.277126       0.000000
      0.229289       0.179289       0.000000
      0.205089       0.277126       0.000000
      0.134820       0.239280       0.000000
      0.152860       0.119526       0.000000
      0.205089       0.277126       0.000000
      0.189557       0.385654       0.000000
      0.123505       0.367423       0.000000
      0.134820       0.239280       0.000000
      0.258747       0.404752       0.000000
      0.252241       0.500000       0.000000
      0.184198       0.500000       0.000000
      0.189557       0.385654       0.000000
      0.252241       0.500000       0.000000
      0.258747       0.595248       0.000000
      0.189557       0.614346       0.000000
      0.184198       0.500000       0.000000
      0.189557       0.385654       0.000000
      0.184198       0.500000       0.000000
      0.119648       0.500000       0.000000
      0.123505       0.367423       0.000000
      0.184198       0.500000       0.000000
      0.189557       0.614346       0.000000
      0.123505       0.632577       0.000000
      0.119648       0.500000       0.000000
      0.258747       0.595248       0.000000
      0.277372       0.683942       0.000000
      0.205089       0.722874       0.000000
      0.189557       0.614346       0.000000
      0.277372       0.683942       0.000000
      0.305719       0.760948       0.000000
      0.229289       0.820711       0.000000
      0.205089       0.722874       0.000000
      0.189557       0.614346       0.000000
      0.205089       0.722874       0.000000
      0.134820       0.760720       0.000000
      0.123505       0.632577       0.000000
[...]
POINT_DATA  2100
VECTORS U float 
      0.000478       0.005797       0.000000
      0.000274       0.006193       0.000000
      0.000060       0.005874       0.000000
      0.000303       0.005367       0.000000
      0.000274       0.006193       0.000000
      0.000077       0.006478       0.000000
     -0.000097       0.006332       0.000000
      0.000060       0.005874       0.000000
      0.000303       0.005367       0.000000
      0.000060       0.005874       0.000000
      0.000051       0.005822       0.000000
      0.000348       0.005385       0.000000
      0.000060       0.005874       0.000000
     -0.000097       0.006332       0.000000
     -0.000152       0.006264       0.000000
      0.000051       0.005822       0.000000
      0.000077       0.006478       0.000000
     -0.000108       0.006646       0.000000
     -0.000175       0.006636       0.000000
     -0.000097       0.006332       0.000000
     -0.000108       0.006646       0.000000
     -0.000296       0.006718       0.000000
     -0.000237       0.006745       0.000000
     -0.000175       0.006636       0.000000
     -0.000097       0.006332       0.000000
     -0.000175       0.006636       0.000000
     -0.000220       0.006606       0.000000
     -0.000152       0.006264       0.000000
     -0.000175       0.006636       0.000000
     -0.000237       0.006745       0.000000
     -0.000213       0.006735       0.000000
     -0.000220       0.006606       0.000000
     -0.000296       0.006718       0.000000
     -0.000516       0.006715       0.000000
     -0.000326       0.006680       0.000000
     -0.000237       0.006745       0.000000
     -0.000516       0.006715       0.000000
     -0.000791       0.006662       0.000000
     -0.000471       0.006476       0.000000
     -0.000326       0.006680       0.000000
     -0.000237       0.006745       0.000000
     -0.000326       0.006680       0.000000
     -0.000221       0.006631       0.000000
     -0.000213       0.006735       0.000000
     -0.000326       0.006680       0.000000
     -0.000471       0.006476       0.000000
     -0.000298       0.006340       0.000000
     -0.000221       0.006631       0.000000
      0.000348       0.005385       0.000000
      0.000051       0.005822       0.000000
      0.000096       0.005929       0.000000
      0.000438       0.005590       0.000000
      0.000051       0.005822       0.000000
     -0.000152       0.006264       0.000000
     -0.000158       0.006288       0.000000
      0.000096       0.005929       0.000000
      0.000438       0.005590       0.000000
      0.000096       0.005929       0.000000
      0.000168       0.006130       0.000000
      0.000555       0.005889       0.000000
      0.000096       0.005929       0.000000
     -0.000158       0.006288       0.000000
     -0.000141       0.006380       0.000000
      0.000168       0.006130       0.000000
     -0.000152       0.006264       0.000000
     -0.000220       0.006606       0.000000
     -0.000244       0.006597       0.000000
     -0.000158       0.006288       0.000000
     -0.000220       0.006606       0.000000
     -0.000213       0.006735       0.000000
     -0.000201       0.006722       0.000000
     -0.000244       0.006597       0.000000
     -0.000158       0.006288       0.000000
     -0.000244       0.006597       0.000000
     -0.000256       0.006614       0.000000
     -0.000141       0.006380       0.000000
     -0.000244       0.006597       0.000000
     -0.000201       0.006722       0.000000
     -0.000193       0.006714       0.000000
     -0.000256       0.006614       0.000000
     -0.000213       0.006735       0.000000
     -0.000221       0.006631       0.000000
     -0.000161       0.006604       0.000000
     -0.000201       0.006722       0.000000
     -0.000221       0.006631       0.000000
     -0.000298       0.006340       0.000000
     -0.000219       0.006292       0.000000
     -0.000161       0.006604       0.000000
     -0.000201       0.006722       0.000000
     -0.000161       0.006604       0.000000
     -0.000129       0.006607       0.000000
     -0.000193       0.006714       0.000000
     -0.000161       0.006604       0.000000
     -0.000219       0.006292       0.000000
     -0.000206       0.006347       0.000000
     -0.000129       0.006607       0.000000
      0.000555       0.005889       0.000000
      0.000168       0.006130       0.000000
      0.000267       0.006396       0.000000
      0.000719       0.006255       0.000000
      0.000168       0.006130       0.000000
     -0.000141       0.006380       0.000000
     -0.000105       0.006525       0.000000
      0.000267       0.006396       0.000000
      0.000719       0.006255       0.000000
      0.000267       0.006396       0.000000
      0.000402       0.006712       0.000000
      0.000959       0.006712       0.000000
      0.000267       0.006396       0.000000
     -0.000105       0.006525       0.000000
     -0.000050       0.006712       0.000000
      0.000402       0.006712       0.000000
     -0.000141       0.006380       0.000000
     -0.000256       0.006614       0.000000
     -0.000261       0.006653       0.000000
     -0.000105       0.006525       0.000000
     -0.000256       0.006614       0.000000
     -0.000193       0.006714       0.000000
     -0.000189       0.006712       0.000000
     -0.000261       0.006653       0.000000
     -0.000105       0.006525       0.000000
     -0.000261       0.006653       0.000000
     -0.000261       0.006712       0.000000
     -0.000050       0.006712       0.000000
     -0.000261       0.006653       0.000000
     -0.000189       0.006712       0.000000
     -0.000186       0.006712       0.000000
     -0.000261       0.006712       0.000000
     -0.000193       0.006714       0.000000
     -0.000129       0.006607       0.000000
     -0.000115       0.006644       0.000000
     -0.000189       0.006712       0.000000
     -0.000129       0.006607       0.000000
     -0.000206       0.006347       0.000000
     -0.000236       0.006496       0.000000
     -0.000115       0.006644       0.000000
     -0.000189       0.006712       0.000000
     -0.000115       0.006644       0.000000
     -0.000114       0.006712       0.000000
     -0.000186       0.006712       0.000000
     -0.000115       0.006644       0.000000
     -0.000236       0.006496       0.000000
     -0.000296       0.006712       0.000000
     -0.000114       0.006712       0.000000
      0.000428       0.000795       0.000000
      0.000632       0.001299       0.000000
      0.000596       0.001765       0.000000
      0.000259       0.001200       0.000000
      0.000259       0.001200       0.000000
      0.000596       0.001765       0.000000
      0.000668       0.001806       0.000000
      0.000284       0.001170       0.000000
      0.000596       0.001765       0.000000
      0.000990       0.002463       0.000000
      0.001114       0.002554       0.000000
      0.000668       0.001806       0.000000
      0.000990       0.002463       0.000000
      0.001232       0.003281       0.000000
      0.001360       0.003289       0.000000
      0.001114       0.002554       0.000000
      0.001232       0.003281       0.000000
      0.001025       0.004096       0.000000
      0.001147       0.004015       0.000000
      0.001360       0.003289       0.000000
      0.000680       0.005270       0.000000
      0.000478       0.005797       0.000000
      0.000303       0.005367       0.000000
      0.000646       0.004792       0.000000
      0.001025       0.004096       0.000000
      0.000646       0.004792       0.000000
      0.000723       0.004749       0.000000
      0.001147       0.004015       0.000000
      0.000646       0.004792       0.000000
      0.000303       0.005367       0.000000
      0.000348       0.005385       0.000000
      0.000723       0.004749       0.000000
      0.000284       0.001170       0.000000
      0.000668       0.001806       0.000000
      0.000755       0.001703       0.000000
      0.000324       0.000966       0.000000
      0.000668       0.001806       0.000000
      0.001114       0.002554       0.000000
      0.001233       0.002527       0.000000
      0.000755       0.001703       0.000000
      0.000324       0.000966       0.000000
      0.000755       0.001703       0.000000
      0.000834       0.001575       0.000000
      0.000329       0.000692       0.000000
      0.000755       0.001703       0.000000
      0.001233       0.002527       0.000000
      0.001353       0.002485       0.000000
      0.000834       0.001575       0.000000
      0.001114       0.002554       0.000000
      0.001360       0.003289       0.000000
      0.001477       0.003298       0.000000
      0.001233       0.002527       0.000000
      0.001360       0.003289       0.000000
      0.001147       0.004015       0.000000
      0.001266       0.004060       0.000000
      0.001477       0.003298       0.000000
      0.001233       0.002527       0.000000
      0.001477       0.003298       0.000000
      0.001607       0.003309       0.000000
      0.001353       0.002485       0.000000
      0.001477       0.003298       0.000000
      0.001266       0.004060       0.000000
      0.001387       0.004127       0.000000
      0.001607       0.003309       0.000000
      0.001147       0.004015       0.000000
      0.000723       0.004749       0.000000
      0.000824       0.004862       0.000000
      0.001266       0.004060       0.000000
      0.000723       0.004749       0.000000
      0.000348       0.005385       0.000000
      0.000438       0.005590       0.000000
      0.000824       0.004862       0.000000
      0.001266       0.004060       0.000000
      0.000824       0.004862       0.000000
      0.000927       0.005020       0.000000
      0.001387       0.004127       0.000000
      0.000824       0.004862       0.000000
      0.000438       0.005590       0.000000
      0.000555       0.005889       0.000000
      0.000927       0.005020       0.000000
      0.000329       0.000692       0.000000
      0.000834       0.001575       0.000000
      0.000902       0.001481       0.000000
      0.000265       0.000382       0.000000
      0.000834       0.001575       0.000000
      0.001353       0.002485       0.000000
      0.001464       0.002475       0.000000
      0.000902       0.001481       0.000000
      0.000265       0.000382       0.000000
      0.000902       0.001481       0.000000
      0.000962       0.001440       0.000000
      0.000000       0.000000       0.000000
      0.000902       0.001481       0.000000
      0.001464       0.002475       0.000000
      0.001562       0.002525       0.000000
      0.000962       0.001440       0.000000
      0.001353       0.002485       0.000000
      0.001607       0.003309       0.000000
      0.001741       0.003320       0.000000
      0.001464       0.002475       0.000000
      0.001607       0.003309       0.000000
      0.001387       0.004127       0.000000
      0.001504       0.004169       0.000000
      0.001741       0.003320       0.000000
      0.001464       0.002475       0.000000
      0.001741       0.003320       0.000000
      0.001862       0.003328       0.000000
      0.001562       0.002525       0.000000
      0.001741       0.003320       0.000000
      0.001504       0.004169       0.000000
      0.001612       0.004149       0.000000
      0.001862       0.003328       0.000000
      0.001387       0.004127       0.000000
      0.000927       0.005020       0.000000
      0.001032       0.005173       0.000000
      0.001504       0.004169       0.000000
      0.000927       0.005020       0.000000
      0.000555       0.005889       0.000000
      0.000719       0.006255       0.000000
      0.001032       0.005173       0.000000
      0.001504       0.004169       0.000000
      0.001032       0.005173       0.000000
      0.001157       0.005310       0.000000
      0.001612       0.004149       0.000000
      0.001032       0.005173       0.000000
      0.000719       0.006255       0.000000
      0.000959       0.006712       0.000000
      0.001157       0.005310       0.000000
      0.001109       0.003274       0.000000
      0.001065       0.003817       0.000000
      0.001175       0.003700       0.000000
      0.001232       0.003281       0.000000
      0.001065       0.003817       0.000000
      0.000950       0.004258       0.000000
      0.001025       0.004096       0.000000
      0.001175       0.003700       0.000000
      0.000916       0.002298       0.000000
      0.001045       0.002735       0.000000
      0.001155       0.002861       0.000000
      0.000990       0.002463       0.000000
      0.001045       0.002735       0.000000
      0.001109       0.003274       0.000000
      0.001232       0.003281       0.000000
      0.001155       0.002861       0.000000
      0.000991       0.003268       0.000000
      0.000989       0.003612       0.000000
      0.001100       0.003555       0.000000
      0.001109       0.003274       0.000000
      0.000989       0.003612       0.000000
      0.000974       0.003913       0.000000
      0.001065       0.003817       0.000000
      0.001100       0.003555       0.000000
      0.000956       0.002633       0.000000
      0.000980       0.002928       0.000000
      0.001089       0.002994       0.000000
      0.001045       0.002735       0.000000
      0.000980       0.002928       0.000000
      0.000991       0.003268       0.000000
      0.001109       0.003274       0.000000
      0.001089       0.002994       0.000000
      0.000792       0.003263       0.000000
      0.000796       0.003466       0.000000
      0.000906       0.003458       0.000000
      0.000904       0.003265       0.000000
      0.000796       0.003466       0.000000
      0.000807       0.003661       0.000000
      0.000909       0.003642       0.000000
      0.000906       0.003458       0.000000
      0.000904       0.003265       0.000000
      0.000906       0.003458       0.000000
      0.000992       0.003443       0.000000
      0.000991       0.003268       0.000000
      0.000906       0.003458       0.000000
      0.000909       0.003642       0.000000
      0.000989       0.003612       0.000000
      0.000992       0.003443       0.000000
      0.000803       0.002870       0.000000
      0.000795       0.003061       0.000000
      0.000903       0.003074       0.000000
      0.000902       0.002894       0.000000
      0.000795       0.003061       0.000000
      0.000792       0.003263       0.000000
      0.000904       0.003265       0.000000
      0.000903       0.003074       0.000000
      0.000902       0.002894       0.000000
      0.000903       0.003074       0.000000
      0.000987       0.003094       0.000000
      0.000980       0.002928       0.000000
      0.000903       0.003074       0.000000
      0.000904       0.003265       0.000000
      0.000991       0.003268       0.000000
      0.000987       0.003094       0.000000
      0.000828       0.004530       0.000000
      0.000768       0.004933       0.000000
      0.000802       0.004623       0.000000
      0.000950       0.004258       0.000000
      0.000768       0.004933       0.000000
      0.000680       0.005270       0.000000
      0.000640       0.004943       0.000000
      0.000802       0.004623       0.000000
      0.000950       0.004258       0.000000
      0.000802       0.004623       0.000000
      0.000839       0.004460       0.000000
      0.001025       0.004096       0.000000
      0.000802       0.004623       0.000000
      0.000640       0.004943       0.000000
      0.000646       0.004792       0.000000
      0.000839       0.004460       0.000000
      0.000830       0.004005       0.000000
      0.000838       0.004289       0.000000
      0.000944       0.004166       0.000000
      0.000974       0.003913       0.000000
      0.000838       0.004289       0.000000
      0.000828       0.004530       0.000000
      0.000902       0.004384       0.000000
      0.000944       0.004166       0.000000
      0.000974       0.003913       0.000000
      0.000944       0.004166       0.000000
      0.001013       0.004050       0.000000
      0.001065       0.003817       0.000000
      0.000944       0.004166       0.000000
      0.000902       0.004384       0.000000
      0.000950       0.004258       0.000000
      0.001013       0.004050       0.000000
      0.000807       0.003661       0.000000
      0.000820       0.003842       0.000000
      0.000911       0.003811       0.000000
      0.000909       0.003642       0.000000
      0.000820       0.003842       0.000000
      0.000830       0.004005       0.000000
      0.000911       0.003964       0.000000
      0.000911       0.003811       0.000000
      0.000909       0.003642       0.000000
      0.000911       0.003811       0.000000
      0.000983       0.003769       0.000000
      0.000989       0.003612       0.000000
      0.000911       0.003811       0.000000
      0.000911       0.003964       0.000000
      0.000974       0.003913       0.000000
      0.000983       0.003769       0.000000
      0.000632       0.001299       0.000000
      0.000729       0.001626       0.000000
      0.000758       0.001936       0.000000
      0.000591       0.001619       0.000000
      0.000729       0.001626       0.000000
      0.000800       0.002022       0.000000
      0.000916       0.002298       0.000000
      0.000758       0.001936       0.000000
      0.000591       0.001619       0.000000
      0.000758       0.001936       0.000000
      0.000794       0.002098       0.000000
      0.000596       0.001765       0.000000
      0.000758       0.001936       0.000000
      0.000916       0.002298       0.000000
      0.000990       0.002463       0.000000
      0.000794       0.002098       0.000000
      0.000800       0.002022       0.000000
      0.000818       0.002257       0.000000
      0.000919       0.002385       0.000000
      0.000870       0.002171       0.000000
      0.000818       0.002257       0.000000
      0.000818       0.002534       0.000000
      0.000956       0.002633       0.000000
      0.000919       0.002385       0.000000
      0.000870       0.002171       0.000000
      0.000919       0.002385       0.000000
      0.000986       0.002504       0.000000
      0.000916       0.002298       0.000000
      0.000919       0.002385       0.000000
      0.000956       0.002633       0.000000
      0.001045       0.002735       0.000000
      0.000986       0.002504       0.000000
      0.000818       0.002534       0.000000
      0.000811       0.002694       0.000000
      0.000900       0.002728       0.000000
      0.000895       0.002579       0.000000
      0.000811       0.002694       0.000000
      0.000803       0.002870       0.000000
      0.000902       0.002894       0.000000
      0.000900       0.002728       0.000000
      0.000895       0.002579       0.000000
      0.000900       0.002728       0.000000
      0.000970       0.002774       0.000000
      0.000956       0.002633       0.000000
      0.000900       0.002728       0.000000
      0.000902       0.002894       0.000000
      0.000980       0.002928       0.000000
      0.000970       0.002774       0.000000
     -0.000730       0.000039       0.000000
     -0.000456      -0.000014       0.000000
     -0.000259       0.000027       0.000000
     -0.000401       0.000231       0.000000
     -0.000456      -0.000014       0.000000
     -0.000249      -0.000019       0.000000
     -0.000181      -0.000039       0.000000
     -0.000259       0.000027       0.000000
     -0.000401       0.000231       0.000000
     -0.000259       0.000027       0.000000
     -0.000134       0.000083       0.000000