# vtk DataFile Version 2.0
time_10.vtk
ASCII
DATASET UNSTRUCTURED_GRID
POINTS  3684 float
      0.458579       0.641421       0.000000
      0.497369       0.671659       0.000000
      0.438243       0.730363       0.000000
      0.382149       0.701184       0.000000
      0.497369       0.671659       0.000000
      0.545805       0.692517       0.000000
      0.506084       0.750000       0.000000
      0.438243       0.730363       0.000000
      0.382149       0.701184       0.000000
      0.438243       0.730363       0.000000
      0.380813       0.787383       0.000000
      0.305719       0.760948       0.000000
      0.438243       0.730363       0.000000
      0.506084       0.750000       0.000000
      0.468251       0.804752       0.000000
      0.380813       0.787383       0.000000
      0.545805       0.692517       0.000000
      0.600000       0.700000       0.000000
      0.581017       0.756950       0.000000
      0.506084       0.750000       0.000000
      0.600000       0.700000       0.000000
      0.654195       0.692517       0.000000
      0.656527       0.750000       0.000000
      0.581017       0.756950       0.000000
      0.506084       0.750000       0.000000
      0.581017       0.756950       0.000000
      0.563060       0.810819       0.000000
      0.468251       0.804752       0.000000
      0.581017       0.756950       0.000000
      0.656527       0.750000       0.000000
      0.658747       0.804752       0.000000
      0.563060       0.810819       0.000000
      0.654195       0.692517       0.000000
      0.702631       0.671659       0.000000
      0.725999       0.730363       0.000000
      0.656527       0.750000       0.000000
      0.702631       0.671659       0.000000
      0.741421       0.641421       0.000000
      0.784518       0.701184       0.000000
      0.725999       0.730363       0.000000
      0.656527       0.750000       0.000000
      0.725999       0.730363       0.000000
      0.748697       0.787383       0.000000
      0.658747       0.804752       0.000000
      0.725999       0.730363       0.000000
      0.784518       0.701184       0.000000
      0.827614       0.760948       0.000000
      0.748697       0.787383       0.000000
      0.305719       0.760948       0.000000
      0.380813       0.787383       0.000000
      0.325006       0.842791       0.000000
      0.229289       0.820711       0.000000
      0.380813       0.787383       0.000000
      0.468251       0.804752       0.000000
      0.432173       0.856962       0.000000
      0.325006       0.842791       0.000000
      0.229289       0.820711       0.000000
      0.325006       0.842791       0.000000
      0.270755       0.896655       0.000000
      0.152860       0.880474       0.000000
      0.325006       0.842791       0.000000
      0.432173       0.856962       0.000000
      0.397732       0.906804       0.000000
      0.270755       0.896655       0.000000
      0.468251       0.804752       0.000000
      0.563060       0.810819       0.000000
      0.546050       0.861851       0.000000
      0.432173       0.856962       0.000000
      0.563060       0.810819       0.000000
      0.658747       0.804752       0.000000
      0.660865       0.856962       0.000000
      0.546050       0.861851       0.000000
      0.432173       0.856962       0.000000
      0.546050       0.861851       0.000000
      0.529912       0.910264       0.000000
      0.397732       0.906804       0.000000
      0.546050       0.861851       0.000000
      0.660865       0.856962       0.000000
      0.662887       0.906804       0.000000
      0.529912       0.910264       0.000000
      0.658747       0.804752       0.000000
      0.748697       0.787383       0.000000
      0.770753       0.842791       0.000000
      0.660865       0.856962       0.000000
      0.748697       0.787383       0.000000
      0.827614       0.760948       0.000000
      0.870711       0.820711       0.000000
      0.770753       0.842791       0.000000
      0.660865       0.856962       0.000000
      0.770753       0.842791       0.000000
      0.792195       0.896655       0.000000
      0.662887       0.906804       0.000000
      0.770753       0.842791       0.000000
      0.870711       0.820711       0.000000
      0.913807       0.880474       0.000000
      0.792195       0.896655       0.000000
      0.152860       0.880474       0.000000
      0.270755       0.896655       0.000000
      0.217995       0.949038       0.000000
      0.076430       0.940237       0.000000
      0.270755       0.896655       0.000000
      0.397732       0.906804       0.000000
      0.364819       0.954435       0.000000
      0.217995       0.949038       0.000000
      0.076430       0.940237       0.000000
      0.217995       0.949038       0.000000
      0.166667       1.000000       0.000000
      0.000000       1.000000       0.000000
      0.217995       0.949038       0.000000
      0.364819       0.954435       0.000000
      0.333333       1.000000       0.000000
      0.166667       1.000000       0.000000
      0.397732       0.906804       0.000000
      0.529912       0.910264       0.000000
      0.514582       0.956255       0.000000
      0.364819       0.954435       0.000000
      0.529912       0.910264       0.000000
      0.662887       0.906804       0.000000
      0.664819       0.954435       0.000000
      0.514582       0.956255       0.000000
      0.364819       0.954435       0.000000
      0.514582       0.956255       0.000000
      0.500000       1.000000       0.000000
      0.333333       1.000000       0.000000
      0.514582       0.956255       0.000000
      0.664819       0.954435       0.000000
      0.666667       1.000000       0.000000
      0.500000       1.000000       0.000000
      0.662887       0.906804       0.000000
      0.792195       0.896655       0.000000
      0.813047       0.949038       0.000000
      0.664819       0.954435       0.000000
      0.792195       0.896655       0.000000
      0.913807       0.880474       0.000000
      0.956904       0.940237       0.000000
      0.813047       0.949038       0.000000
      0.664819       0.954435       0.000000
      0.813047       0.949038       0.000000
      0.833333       1.000000       0.000000
      0.666667       1.000000       0.000000
      0.813047       0.949038       0.000000
      0.956904       0.940237       0.000000
      1.000000       1.000000       0.000000
      0.833333       1.000000       0.000000
      0.458579       0.358579       0.000000
      0.428341       0.397369       0.000000
      0.351758       0.356122       0.000000
      0.382149       0.298816       0.000000
      0.382149       0.298816       0.000000
      0.351758       0.356122       0.000000
      0.277372       0.316058       0.000000
      0.305719       0.239052       0.000000
      0.428341       0.602631       0.000000
      0.458579       0.641421       0.000000
      0.382149       0.701184       0.000000
      0.351758       0.643878       0.000000
      0.351758       0.643878       0.000000
      0.382149       0.701184       0.000000
      0.305719       0.760948       0.000000
      0.277372       0.683942       0.000000
      0.305719       0.239052       0.000000
      0.277372       0.316058       0.000000
      0.205089       0.277126       0.000000
      0.229289       0.179289       0.000000
      0.229289       0.179289       0.000000
      0.205089       0.277126       0.000000
      0.134820       0.239280       0.000000
      0.152860       0.119526       0.000000
      0.205089       0.277126       0.000000
      0.189557       0.385654       0.000000
      0.123505       0.367423       0.000000
      0.134820       0.239280       0.000000
      0.277372       0.683942       0.000000
      0.305719       0.760948       0.000000
      0.229289       0.820711       0.000000
      0.205089       0.722874       0.000000
      0.189557       0.614346       0.000000
      0.205089       0.722874       0.000000
      0.134820       0.760720       0.000000
      0.123505       0.632577       0.000000
      0.205089       0.722874       0.000000
      0.229289       0.820711       0.000000
      0.152860       0.880474       0.000000
      0.134820       0.760720       0.000000
      0.152860       0.119526       0.000000
      0.134820       0.239280       0.000000
      0.066483       0.202474       0.000000
      0.076430       0.059763       0.000000
      0.134820       0.239280       0.000000
      0.123505       0.367423       0.000000
      0.060383       0.350000       0.000000
      0.066483       0.202474       0.000000
      0.076430       0.059763       0.000000
      0.066483       0.202474       0.000000
      0.000000       0.166667       0.000000
      0.000000       0.000000       0.000000
      0.123505       0.632577       0.000000
      0.134820       0.760720       0.000000
      0.066483       0.797526       0.000000
      0.060383       0.650000       0.000000
      0.134820       0.760720       0.000000
      0.152860       0.880474       0.000000
      0.076430       0.940237       0.000000
      0.066483       0.797526       0.000000
      0.066483       0.797526       0.000000
      0.076430       0.940237       0.000000
      0.000000       1.000000       0.000000
      0.000000       0.833333       0.000000
      0.400000       0.500000       0.000000
      0.400119       0.506902       0.000000
      0.390391       0.507240       0.000000
      0.390272       0.500000       0.000000
      0.400119       0.506902       0.000000
      0.400476       0.513791       0.000000
      0.390747       0.514468       0.000000
      0.390391       0.507240       0.000000
      0.390272       0.500000       0.000000
      0.390391       0.507240       0.000000
      0.380731       0.507577       0.000000
      0.380612       0.500000       0.000000
[...]
POINT_DATA  3684
VECTORS U float 
      0.000197       0.007060       0.000000
      0.000187       0.007068       0.000000
      0.000179       0.007060       0.000000
      0.000187       0.007046       0.000000
      0.000187       0.007068       0.000000
      0.000177       0.007073       0.000000
      0.000174       0.007071       0.000000
      0.000179       0.007060       0.000000
      0.000187       0.007046       0.000000
      0.000179       0.007060       0.000000
      0.000176       0.007055       0.000000
      0.000184       0.007040       0.000000
      0.000179       0.007060       0.000000
      0.000174       0.007071       0.000000
      0.000172       0.007068       0.000000
      0.000176       0.007055       0.000000
      0.000177       0.007073       0.000000
      0.000167       0.007074       0.000000
      0.000170       0.007076       0.000000
      0.000174       0.007071       0.000000
      0.000167       0.007074       0.000000
      0.000156       0.007072       0.000000
      0.000165       0.007073       0.000000
      0.000170       0.007076       0.000000
      0.000174       0.007071       0.000000
      0.000170       0.007076       0.000000
      0.000171       0.007075       0.000000
      0.000172       0.007068       0.000000
      0.000170       0.007076       0.000000
      0.000165       0.007073       0.000000
      0.000171       0.007073       0.000000
      0.000171       0.007075       0.000000
      0.000156       0.007072       0.000000
      0.000141       0.007066       0.000000
      0.000158       0.007061       0.000000
      0.000165       0.007073       0.000000
      0.000141       0.007066       0.000000
      0.000122       0.007055       0.000000
      0.000145       0.007041       0.000000
      0.000158       0.007061       0.000000
      0.000165       0.007073       0.000000
      0.000158       0.007061       0.000000
      0.000168       0.007059       0.000000
      0.000171       0.007073       0.000000
      0.000158       0.007061       0.000000
      0.000145       0.007041       0.000000
      0.000159       0.007034       0.000000
      0.000168       0.007059       0.000000
      0.000184       0.007040       0.000000
      0.000176       0.007055       0.000000
      0.000174       0.007054       0.000000
      0.000183       0.007039       0.000000
      0.000176       0.007055       0.000000
      0.000172       0.007068       0.000000
      0.000170       0.007066       0.000000
      0.000174       0.007054       0.000000
      0.000183       0.007039       0.000000
      0.000174       0.007054       0.000000
      0.000174       0.007056       0.000000
      0.000185       0.007044       0.000000
      0.000174       0.007054       0.000000
      0.000170       0.007066       0.000000
      0.000169       0.007066       0.000000
      0.000174       0.007056       0.000000
      0.000172       0.007068       0.000000
      0.000171       0.007075       0.000000
      0.000171       0.007074       0.000000
      0.000170       0.007066       0.000000
      0.000171       0.007075       0.000000
      0.000171       0.007073       0.000000
      0.000175       0.007073       0.000000
      0.000171       0.007074       0.000000
      0.000170       0.007066       0.000000
      0.000171       0.007074       0.000000
      0.000171       0.007073       0.000000
      0.000169       0.007066       0.000000
      0.000171       0.007074       0.000000
      0.000175       0.007073       0.000000
      0.000177       0.007072       0.000000
      0.000171       0.007073       0.000000
      0.000171       0.007073       0.000000
      0.000168       0.007059       0.000000
      0.000174       0.007058       0.000000
      0.000175       0.007073       0.000000
      0.000168       0.007059       0.000000
      0.000159       0.007034       0.000000
      0.000166       0.007034       0.000000
      0.000174       0.007058       0.000000
      0.000175       0.007073       0.000000
      0.000174       0.007058       0.000000
      0.000178       0.007060       0.000000
      0.000177       0.007072       0.000000
      0.000174       0.007058       0.000000
      0.000166       0.007034       0.000000
      0.000169       0.007040       0.000000
      0.000178       0.007060       0.000000
      0.000185       0.007044       0.000000
      0.000174       0.007056       0.000000
      0.000176       0.007062       0.000000
      0.000190       0.007055       0.000000
      0.000174       0.007056       0.000000
      0.000169       0.007066       0.000000
      0.000169       0.007068       0.000000
      0.000176       0.007062       0.000000
      0.000190       0.007055       0.000000
      0.000176       0.007062       0.000000
      0.000179       0.007072       0.000000
      0.000199       0.007072       0.000000
      0.000176       0.007062       0.000000
      0.000169       0.007068       0.000000
      0.000169       0.007072       0.000000
      0.000179       0.007072       0.000000
      0.000169       0.007066       0.000000
      0.000171       0.007073       0.000000
      0.000171       0.007072       0.000000
      0.000169       0.007068       0.000000
      0.000171       0.007073       0.000000
      0.000177       0.007072       0.000000
      0.000178       0.007072       0.000000
      0.000171       0.007072       0.000000
      0.000169       0.007068       0.000000
      0.000171       0.007072       0.000000
      0.000170       0.007072       0.000000
      0.000169       0.007072       0.000000
      0.000171       0.007072       0.000000
      0.000178       0.007072       0.000000
      0.000179       0.007072       0.000000
      0.000170       0.007072       0.000000
      0.000177       0.007072       0.000000
      0.000178       0.007060       0.000000
      0.000180       0.007065       0.000000
      0.000178       0.007072       0.000000
      0.000178       0.007060       0.000000
      0.000169       0.007040       0.000000
      0.000167       0.007053       0.000000
      0.000180       0.007065       0.000000
      0.000178       0.007072       0.000000
      0.000180       0.007065       0.000000
      0.000180       0.007072       0.000000
      0.000179       0.007072       0.000000
      0.000180       0.007065       0.000000
      0.000167       0.007053       0.000000
      0.000163       0.007072       0.000000
      0.000180       0.007072       0.000000
      0.000018       0.000012       0.000000
      0.000029       0.000022       0.000000
      0.000023       0.000039       0.000000
      0.000010       0.000025       0.000000
      0.000010       0.000025       0.000000
      0.000023       0.000039       0.000000
      0.000021       0.000048       0.000000
      0.000007       0.000030       0.000000
      0.000209       0.007050       0.000000
      0.000197       0.007060       0.000000
      0.000187       0.007046       0.000000
      0.000202       0.007032       0.000000
      0.000202       0.007032       0.000000
      0.000187       0.007046       0.000000
      0.000184       0.007040       0.000000
      0.000199       0.007022       0.000000
      0.000007       0.000030       0.000000
      0.000021       0.000048       0.000000
      0.000021       0.000054       0.000000
      0.000006       0.000030       0.000000
      0.000006       0.000030       0.000000
      0.000021       0.000054       0.000000
      0.000022       0.000057       0.000000
      0.000006       0.000025       0.000000
      0.000021       0.000054       0.000000
      0.000045       0.000081       0.000000
      0.000049       0.000092       0.000000
      0.000022       0.000057       0.000000
      0.000199       0.007022       0.000000
      0.000184       0.007040       0.000000
      0.000183       0.007039       0.000000
      0.000199       0.007015       0.000000
      0.000224       0.006988       0.000000
      0.000199       0.007015       0.000000
      0.000200       0.007012       0.000000
      0.000227       0.006977       0.000000
      0.000199       0.007015       0.000000
      0.000183       0.007039       0.000000
      0.000185       0.007044       0.000000
      0.000200       0.007012       0.000000
      0.000006       0.000025       0.000000
      0.000022       0.000057       0.000000
      0.000025       0.000058       0.000000
      0.000007       0.000015       0.000000
      0.000022       0.000057       0.000000
      0.000049       0.000092       0.000000
      0.000052       0.000103       0.000000
      0.000025       0.000058       0.000000
      0.000007       0.000015       0.000000
      0.000025       0.000058       0.000000
      0.000029       0.000056       0.000000
      0.000000       0.000000       0.000000
      0.000227       0.006977       0.000000
      0.000200       0.007012       0.000000
      0.000203       0.007012       0.000000
      0.000230       0.006966       0.000000
      0.000200       0.007012       0.000000
      0.000185       0.007044       0.000000
      0.000190       0.007055       0.000000
      0.000203       0.007012       0.000000
      0.000203       0.007012       0.000000
      0.000190       0.007055       0.000000
      0.000199       0.007072       0.000000
      0.000208       0.007015       0.000000
      0.000071       0.006988       0.000000
      0.000216       0.007016       0.000000
      0.000227       0.007023       0.000000
      0.000219       0.007055       0.000000
      0.000216       0.007016       0.000000
      0.000226       0.007023       0.000000
      0.000229       0.007024       0.000000
      0.000227       0.007023       0.000000
      0.000219       0.007055       0.000000
      0.000227       0.007023       0.000000
      0.000231       0.007020       0.000000
      0.000232       0.007057       0.000000
      0.000227       0.007023       0.000000
      0.000229       0.007024       0.000000
      0.000231       0.007022       0.000000
      0.000231       0.007020       0.000000
      0.000033       0.000052       0.000000
     -0.000111       0.000069       0.000000
      0.000035       0.000014       0.000000
      0.000045       0.000047       0.000000
     -0.000111       0.000069       0.000000
      0.000071       0.006988       0.000000
      0.000219       0.007055       0.000000
      0.000035       0.000014       0.000000
      0.000045       0.000047       0.000000
      0.000035       0.000014       0.000000
      0.000047       0.000012       0.000000
      0.000049       0.000050       0.000000
      0.000035       0.000014       0.000000
      0.000219       0.007055       0.000000
      0.000232       0.007057       0.000000
      0.000047       0.000012       0.000000
      0.000222       0.007037       0.000000
      0.000215       0.007044       0.000000
      0.000212       0.007033       0.000000
      0.000221       0.007027       0.000000
      0.000215       0.007044       0.000000
      0.000209       0.007050       0.000000
      0.000204       0.007039       0.000000
      0.000212       0.007033       0.000000
      0.000221       0.007027       0.000000
      0.000212       0.007033       0.000000
      0.000211       0.007024       0.000000
      0.000221       0.007017       0.000000
      0.000212       0.007033       0.000000
      0.000204       0.007039       0.000000
      0.000202       0.007032       0.000000
      0.000211       0.007024       0.000000
      0.000227       0.007030       0.000000
      0.000225       0.007034       0.000000
      0.000225       0.007029       0.000000
      0.000228       0.007026       0.000000
      0.000225       0.007034       0.000000
      0.000222       0.007037       0.000000
      0.000221       0.007032       0.000000
      0.000225       0.007029       0.000000
      0.000228       0.007026       0.000000
      0.000225       0.007029       0.000000
      0.000225       0.007023       0.000000
      0.000229       0.007020       0.000000
      0.000225       0.007029       0.000000
      0.000221       0.007032       0.000000
      0.000221       0.007027       0.000000
      0.000225       0.007023       0.000000
      0.000226       0.007023       0.000000
      0.000227       0.007027       0.000000
      0.000229       0.007026       0.000000
      0.000229       0.007024       0.000000
      0.000227       0.007027       0.000000
      0.000227       0.007030       0.000000
      0.000228       0.007028       0.000000
      0.000229       0.007026       0.000000
      0.000229       0.007024       0.000000
      0.000229       0.007026       0.000000
      0.000230       0.007024       0.000000
      0.000231       0.007022       0.000000
      0.000229       0.007026       0.000000
      0.000228       0.007028       0.000000
      0.000228       0.007026       0.000000
      0.000230       0.007024       0.000000
      0.000029       0.000022       0.000000
      0.000035       0.000028       0.000000
      0.000033       0.000038       0.000000
      0.000025       0.000032       0.000000
      0.000035       0.000028       0.000000
      0.000041       0.000034       0.000000
      0.000041       0.000044       0.000000
      0.000033       0.000038       0.000000
      0.000025       0.000032       0.000000
      0.000033       0.000038       0.000000
      0.000031       0.000046       0.000000
      0.000023       0.000039       0.000000
      0.000033       0.000038       0.000000
      0.000041       0.000044       0.000000
      0.000041       0.000054       0.000000
      0.000031       0.000046       0.000000
      0.000041       0.000034       0.000000
      0.000044       0.000038       0.000000
      0.000045       0.000042       0.000000
      0.000041       0.000039       0.000000
      0.000044       0.000038       0.000000
      0.000045       0.000042       0.000000
      0.000047       0.000046       0.000000
      0.000045       0.000042       0.000000
      0.000041       0.000039       0.000000
      0.000045       0.000042       0.000000
      0.000045       0.000047       0.000000
      0.000041       0.000044       0.000000
      0.000045       0.000042       0.000000
      0.000047       0.000046       0.000000
      0.000049       0.000051       0.000000
      0.000045       0.000047       0.000000
      0.000045       0.000042       0.000000
      0.000044       0.000046       0.000000
      0.000047       0.000045       0.000000
      0.000047       0.000043       0.000000
      0.000044       0.000046       0.000000
      0.000033       0.000052       0.000000
      0.000045       0.000047       0.000000
      0.000047       0.000045       0.000000
      0.000047       0.000043       0.000000
      0.000047       0.000045       0.000000
      0.000048       0.000048       0.000000
      0.000047       0.000046       0.000000
      0.000047       0.000045       0.000000
      0.000045       0.000047       0.000000
      0.000049       0.000050       0.000000
      0.000048       0.000048       0.000000
      0.000232       0.007057       0.000000
      0.000231       0.007020       0.000000
      0.000233       0.007017       0.000000
      0.000235       0.007055       0.000000
      0.000231       0.007020       0.000000
      0.000231       0.007022       0.000000
      0.000232       0.007019       0.000000
      0.000233       0.007017       0.000000
      0.000235       0.007055       0.000000
      0.000233       0.007017       0.000000
      0.000235       0.007014       0.000000
      0.000238       0.007052       0.000000
      0.000233       0.007017       0.000000
      0.000232       0.007019       0.000000
      0.000233       0.007016       0.000000
      0.000235       0.007014       0.000000
      0.000049       0.000050       0.000000
      0.000047       0.000012       0.000000
      0.000051       0.000014       0.000000
      0.000051       0.000053       0.000000
      0.000047       0.000012       0.000000
      0.000232       0.007057       0.000000
      0.000235       0.007055       0.000000
      0.000051       0.000014       0.000000
      0.000051       0.000053       0.000000
      0.000051       0.000014       0.000000
      0.000052       0.000017       0.000000
      0.000052       0.000056       0.000000
      0.000051       0.000014       0.000000
      0.000235       0.007055       0.000000
      0.000238       0.007052       0.000000
      0.000052       0.000017       0.000000
      0.000231       0.007022       0.000000
      0.000230       0.007024       0.000000
      0.000230       0.007021       0.000000
      0.000232       0.007019       0.000000
      0.000230       0.007024       0.000000
      0.000228       0.007026       0.000000
      0.000229       0.007023       0.000000
      0.000230       0.007021       0.000000
      0.000232       0.007019       0.000000
      0.000230       0.007021       0.000000
      0.000231       0.007018       0.000000
      0.000233       0.007016       0.000000
      0.000230       0.007021       0.000000
      0.000229       0.007023       0.000000
      0.000229       0.007020       0.000000
      0.000231       0.007018       0.000000
      0.000047       0.000046       0.000000
      0.000048       0.000048       0.000000
      0.000049       0.000051       0.000000
      0.000048       0.000048       0.000000
      0.000048       0.000048       0.000000
      0.000049       0.000050       0.000000
      0.000051       0.000053       0.000000
      0.000049       0.000051       0.000000
      0.000048       0.000048       0.000000
      0.000049       0.000051       0.000000
      0.000050       0.000054       0.000000
      0.000049       0.000051       0.000000
      0.000049       0.000051       0.000000
      0.000051       0.000053       0.000000
      0.000052       0.000056       0.000000
      0.000050       0.000054       0.000000
      0.000238       0.007052       0.000000
      0.000235       0.007014       0.000000
      0.000236       0.007011       0.000000
      0.000239       0.007049       0.000000
      0.000235       0.007014       0.000000
      0.000233       0.007016       0.000000
      0.000234       0.007013       0.000000
      0.000236       0.007011       0.000000
      0.000239       0.007049       0.000000
      0.000236       0.007011       0.000000
      0.000237       0.007008       0.000000
      0.000240       0.007046       0.000000
      0.000236       0.007011       0.000000
      0.000234       0.007013       0.000000
      0.000235       0.007010       0.000000
      0.000237       0.007008       0.000000
      0.000052       0.000056       0.000000
      0.000052       0.000017       0.000000
      0.000054       0.000020       0.000000
      0.000053       0.000059       0.000000
      0.000052       0.000017       0.000000
      0.000238       0.007052       0.000000
      0.000239       0.007049       0.000000
      0.000054       0.000020       0.000000
      0.000053       0.000059       0.000000
      0.000054       0.000020       0.000000
      0.000055       0.000023       0.000000
      0.000054       0.000062       0.000000
      0.000054       0.000020       0.000000
      0.000239       0.007049       0.000000
      0.000240       0.007046       0.000000
      0.000055       0.000023       0.000000
      0.000229       0.007020       0.000000
      0.000225       0.007023       0.000000
      0.000225       0.007018       0.000000
      0.000230       0.007014       0.000000
      0.000225       0.007023       0.000000
      0.000221       0.007027       0.000000
      0.000221       0.007022       0.000000
      0.000225       0.007018       0.000000
      0.000230       0.007014       0.000000
      0.000225       0.007018       0.000000
      0.000226       0.007013       0.000000