# vtk DataFile Version 2.0
time_10.vtk
ASCII
DATASET UNSTRUCTURED_GRID
POINTS   576 float
      0.458579       0.641421       0.000000
      0.497369       0.671659       0.000000
      0.438243       0.730363       0.000000
      0.382149       0.701184       0.000000
      0.497369       0.671659       0.000000
      0.545805       0.692517       0.000000
      0.506084       0.750000       0.000000
      0.438243       0.730363       0.000000
      0.382149       0.701184       0.000000
      0.438243       0.730363       0.000000
      0.380813       0.787383       0.000000
      0.305719       0.760948       0.000000
      0.438243       0.730363       0.000000
      0.506084       0.750000       0.000000
      0.468251       0.804752       0.000000
      0.380813       0.787383       0.000000
      0.545805       0.692517       0.000000
      0.600000       0.700000       0.000000
      0.581017       0.756950       0.000000
      0.506084       0.750000       0.000000
      0.600000       0.700000       0.000000
      0.654195       0.692517       0.000000
      0.656527       0.750000       0.000000
      0.581017       0.756950       0.000000
      0.506084       0.750000       0.000000
      0.581017       0.756950       0.000000
      0.563060       0.810819       0.000000
      0.468251       0.804752       0.000000
      0.581017       0.756950       0.000000
      0.656527       0.750000       0.000000
      0.658747       0.804752       0.000000
      0.563060       0.810819       0.000000
      0.654195       0.692517       0.000000
      0.702631       0.671659       0.000000
      0.725999       0.730363       0.000000
      0.656527       0.750000       0.000000
      0.702631       0.671659       0.000000
      0.741421       0.641421       0.000000
      0.784518       0.701184       0.000000
      0.725999       0.730363       0.000000
      0.656527       0.750000       0.000000
      0.725999       0.730363       0.000000
      0.748697       0.787383       0.000000
      0.658747       0.804752       0.000000
      0.725999       0.730363       0.000000
      0.784518       0.701184       0.000000
      0.827614       0.760948       0.000000
      0.748697       0.787383       0.000000
      0.305719       0.760948       0.000000
      0.380813       0.787383       0.000000
      0.325006       0.842791       0.000000
      0.229289       0.820711       0.000000
      0.380813       0.787383       0.000000
      0.468251       0.804752       0.000000
      0.432173       0.856962       0.000000
      0.325006       0.842791       0.000000
      0.229289       0.820711       0.000000
      0.325006       0.842791       0.000000
      0.270755       0.896655       0.000000
      0.152860       0.880474       0.000000
      0.325006       0.842791       0.000000
      0.432173       0.856962       0.000000
      0.397732       0.906804       0.000000
      0.270755       0.896655       0.000000
      0.468251       0.804752       0.000000
      0.563060       0.810819       0.000000
      0.546050       0.861851       0.000000
      0.432173       0.856962       0.000000
      0.563060       0.810819       0.000000
      0.658747       0.804752       0.000000
      0.660865       0.856962       0.000000
      0.546050       0.861851       0.000000
      0.432173       0.856962       0.000000
      0.546050       0.861851       0.000000
      0.529912       0.910264       0.000000
      0.397732       0.906804       0.000000
      0.546050       0.861851       0.000000
      0.660865       0.856962       0.000000
      0.662887       0.906804       0.000000
      0.529912       0.910264       0.000000
      0.658747       0.804752       0.000000
      0.748697       0.787383       0.000000
      0.770753       0.842791       0.000000
      0.660865       0.856962       0.000000
      0.748697       0.787383       0.000000
      0.827614       0.760948       0.000000
      0.870711       0.820711       0.000000
      0.770753       0.842791       0.000000
      0.660865       0.856962       0.000000
      0.770753       0.842791       0.000000
      0.792195       0.896655       0.000000
      0.662887       0.906804       0.000000
      0.770753       0.842791       0.000000
      0.870711       0.820711       0.000000
      0.913807       0.880474       0.000000
      0.792195       0.896655       0.000000
      0.152860       0.880474       0.000000
      0.270755       0.896655       0.000000
      0.217995       0.949038       0.000000
      0.076430       0.940237       0.000000
      0.270755       0.896655       0.000000
      0.397732       0.906804       0.000000
      0.364819       0.954435       0.000000
      0.217995       0.949038       0.000000
      0.076430       0.940237       0.000000
      0.217995       0.949038       0.000000
      0.166667       1.000000       0.000000
      0.000000       1.000000       0.000000
      0.217995       0.949038       0.000000
      0.364819       0.954435       0.000000
      0.333333       1.000000       0.000000
      0.166667       1.000000       0.000000
      0.397732       0.906804       0.000000
      0.529912       0.910264       0.000000
      0.514582       0.956255       0.000000
      0.364819       0.954435       0.000000
      0.529912       0.910264       0.000000
      0.662887       0.906804       0.000000
      0.664819       0.954435       0.000000
      0.514582       0.956255       0.000000
      0.364819       0.954435       0.000000
      0.514582       0.956255       0.000000
      0.500000       1.000000       0.000000
      0.333333       1.000000       0.000000
      0.514582       0.956255       0.000000
      0.664819       0.954435       0.000000
      0.666667       1.000000       0.000000
      0.500000       1.000000       0.000000
      0.662887       0.906804       0.000000
      0.792195       0.896655       0.000000
      0.813047       0.949038       0.000000
      0.664819       0.954435       0.000000
      0.792195       0.896655       0.000000
      0.913807       0.880474       0.000000
      0.956904       0.940237       0.000000
      0.813047       0.949038       0.000000
      0.664819       0.954435       0.000000
      0.813047       0.949038       0.000000
      0.833333       1.000000       0.000000
      0.666667       1.000000       0.000000
      0.813047       0.949038       0.000000
      0.956904       0.940237       0.000000
      1.000000       1.000000       0.000000
      0.833333       1.000000       0.000000
      0.458579       0.358579       0.000000
      0.428341       0.397369       0.000000
      0.351758       0.356122       0.000000
      0.382149       0.298816       0.000000
      0.428341       0.397369       0.000000
      0.407483       0.445805       0.000000
      0.331305       0.424779       0.000000
      0.351758       0.356122       0.000000
      0.382149       0.298816       0.000000
      0.351758       0.356122       0.000000
      0.277372       0.316058       0.000000
      0.305719       0.239052       0.000000
      0.351758       0.356122       0.000000
      0.331305       0.424779       0.000000
      0.258747       0.404752       0.000000
      0.277372       0.316058       0.000000
      0.407483       0.445805       0.000000
      0.400000       0.500000       0.000000
      0.324066       0.500000       0.000000
      0.331305       0.424779       0.000000
      0.400000       0.500000       0.000000
      0.407483       0.554195       0.000000
      0.331305       0.575221       0.000000
      0.324066       0.500000       0.000000
      0.331305       0.424779       0.000000
      0.324066       0.500000       0.000000
      0.252241       0.500000       0.000000
      0.258747       0.404752       0.000000
      0.324066       0.500000       0.000000
      0.331305       0.575221       0.000000
      0.258747       0.595248       0.000000
      0.252241       0.500000       0.000000
      0.407483       0.554195       0.000000
      0.428341       0.602631       0.000000
      0.351758       0.643878       0.000000
      0.331305       0.575221       0.000000
      0.428341       0.602631       0.000000
      0.458579       0.641421       0.000000
      0.382149       0.701184       0.000000
      0.351758       0.643878       0.000000
      0.331305       0.575221       0.000000
      0.351758       0.643878       0.000000
      0.277372       0.683942       0.000000
      0.258747       0.595248       0.000000
      0.351758       0.643878       0.000000
      0.382149       0.701184       0.000000
      0.305719       0.760948       0.000000
      0.277372       0.683942       0.000000
      0.305719       0.239052       0.000000
      0.277372       0.316058       0.000000
      0.205089       0.277126       0.000000
      0.229289       0.179289       0.000000
      0.277372       0.316058       0.000000
      0.258747       0.404752       0.000000
      0.189557       0.385654       0.000000
      0.205089       0.277126       0.000000
      0.229289       0.179289       0.000000
      0.205089       0.277126       0.000000
      0.134820       0.239280       0.000000
      0.152860       0.119526       0.000000
      0.205089       0.277126       0.000000
      0.189557       0.385654       0.000000
      0.123505       0.367423       0.000000
      0.134820       0.239280       0.000000
      0.258747       0.404752       0.000000
      0.252241       0.500000       0.000000
      0.184198       0.500000       0.000000
      0.189557       0.385654       0.000000
      0.252241       0.500000       0.000000
      0.258747       0.595248       0.000000
      0.189557       0.614346       0.000000
      0.184198       0.500000       0.000000
      0.189557       0.385654       0.000000
      0.184198       0.500000       0.000000
      0.119648       0.500000       0.000000
      0.123505       0.367423       0.000000
[...]
POINT_DATA   576
VECTORS U float 
      0.000387       0.005027       0.000000
      0.000200       0.005386       0.000000
      0.000033       0.005116       0.000000
      0.000255       0.004662       0.000000
      0.000200       0.005386       0.000000
      0.000002       0.005625       0.000000
     -0.000113       0.005521       0.000000
      0.000033       0.005116       0.000000
      0.000255       0.004662       0.000000
      0.000033       0.005116       0.000000
      0.000058       0.005091       0.000000
      0.000323       0.004709       0.000000
      0.000033       0.005116       0.000000
     -0.000113       0.005521       0.000000
     -0.000126       0.005478       0.000000
      0.000058       0.005091       0.000000
      0.000002       0.005625       0.000000
     -0.000202       0.005723       0.000000
     -0.000190       0.005747       0.000000
     -0.000113       0.005521       0.000000
     -0.000202       0.005723       0.000000
     -0.000425       0.005672       0.000000
     -0.000264       0.005708       0.000000
     -0.000190       0.005747       0.000000
     -0.000113       0.005521       0.000000
     -0.000190       0.005747       0.000000
     -0.000189       0.005745       0.000000
     -0.000126       0.005478       0.000000
     -0.000190       0.005747       0.000000
     -0.000264       0.005708       0.000000
     -0.000200       0.005735       0.000000
     -0.000189       0.005745       0.000000
     -0.000425       0.005672       0.000000
     -0.000677       0.005474       0.000000
     -0.000400       0.005408       0.000000
     -0.000264       0.005708       0.000000
     -0.000677       0.005474       0.000000
     -0.000952       0.005143       0.000000
     -0.000640       0.004945       0.000000
     -0.000400       0.005408       0.000000
     -0.000264       0.005708       0.000000
     -0.000400       0.005408       0.000000
     -0.000289       0.005431       0.000000
     -0.000200       0.005735       0.000000
     -0.000400       0.005408       0.000000
     -0.000640       0.004945       0.000000
     -0.000514       0.004974       0.000000
     -0.000289       0.005431       0.000000
      0.000323       0.004709       0.000000
      0.000058       0.005091       0.000000
      0.000121       0.005201       0.000000
      0.000422       0.004912       0.000000
      0.000058       0.005091       0.000000
     -0.000126       0.005478       0.000000
     -0.000106       0.005513       0.000000
      0.000121       0.005201       0.000000
      0.000422       0.004912       0.000000
      0.000121       0.005201       0.000000
      0.000198       0.005390       0.000000
      0.000538       0.005188       0.000000
      0.000121       0.005201       0.000000
     -0.000106       0.005513       0.000000
     -0.000075       0.005605       0.000000
      0.000198       0.005390       0.000000
     -0.000126       0.005478       0.000000
     -0.000189       0.005745       0.000000
     -0.000183       0.005760       0.000000
     -0.000106       0.005513       0.000000
     -0.000189       0.005745       0.000000
     -0.000200       0.005735       0.000000
     -0.000166       0.005769       0.000000
     -0.000183       0.005760       0.000000
     -0.000106       0.005513       0.000000
     -0.000183       0.005760       0.000000
     -0.000176       0.005795       0.000000
     -0.000075       0.005605       0.000000
     -0.000183       0.005760       0.000000
     -0.000166       0.005769       0.000000
     -0.000146       0.005813       0.000000
     -0.000176       0.005795       0.000000
     -0.000200       0.005735       0.000000
     -0.000289       0.005431       0.000000
     -0.000229       0.005501       0.000000
     -0.000166       0.005769       0.000000
     -0.000289       0.005431       0.000000
     -0.000514       0.004974       0.000000
     -0.000445       0.005092       0.000000
     -0.000229       0.005501       0.000000
     -0.000166       0.005769       0.000000
     -0.000229       0.005501       0.000000
     -0.000198       0.005606       0.000000
     -0.000146       0.005813       0.000000
     -0.000229       0.005501       0.000000
     -0.000445       0.005092       0.000000
     -0.000425       0.005283       0.000000
     -0.000198       0.005606       0.000000
      0.000538       0.005188       0.000000
      0.000198       0.005390       0.000000
      0.000293       0.005631       0.000000
      0.000688       0.005517       0.000000
      0.000198       0.005390       0.000000
     -0.000075       0.005605       0.000000
     -0.000036       0.005741       0.000000
      0.000293       0.005631       0.000000
      0.000688       0.005517       0.000000
      0.000293       0.005631       0.000000
      0.000414       0.005912       0.000000
      0.000896       0.005912       0.000000
      0.000293       0.005631       0.000000
     -0.000036       0.005741       0.000000
      0.000015       0.005912       0.000000
      0.000414       0.005912       0.000000
     -0.000075       0.005605       0.000000
     -0.000176       0.005795       0.000000
     -0.000171       0.005847       0.000000
     -0.000036       0.005741       0.000000
     -0.000176       0.005795       0.000000
     -0.000146       0.005813       0.000000
     -0.000134       0.005861       0.000000
     -0.000171       0.005847       0.000000
     -0.000036       0.005741       0.000000
     -0.000171       0.005847       0.000000
     -0.000168       0.005912       0.000000
      0.000015       0.005912       0.000000
     -0.000171       0.005847       0.000000
     -0.000134       0.005861       0.000000
     -0.000131       0.005912       0.000000
     -0.000168       0.005912       0.000000
     -0.000146       0.005813       0.000000
     -0.000198       0.005606       0.000000
     -0.000189       0.005743       0.000000
     -0.000134       0.005861       0.000000
     -0.000198       0.005606       0.000000
     -0.000425       0.005283       0.000000
     -0.000462       0.005556       0.000000
     -0.000189       0.005743       0.000000
     -0.000134       0.005861       0.000000
     -0.000189       0.005743       0.000000
     -0.000202       0.005912       0.000000
     -0.000131       0.005912       0.000000
     -0.000189       0.005743       0.000000
     -0.000462       0.005556       0.000000
     -0.000556       0.005912       0.000000
     -0.000202       0.005912       0.000000
      0.000337       0.000764       0.000000
      0.000514       0.001235       0.000000
      0.000501       0.001623       0.000000
      0.000204       0.001113       0.000000
      0.000514       0.001235       0.000000
      0.000652       0.001914       0.000000
      0.000831       0.002230       0.000000
      0.000501       0.001623       0.000000
      0.000204       0.001113       0.000000
      0.000501       0.001623       0.000000
      0.000571       0.001625       0.000000
      0.000244       0.001064       0.000000
      0.000501       0.001623       0.000000
      0.000831       0.002230       0.000000
      0.000938       0.002268       0.000000
      0.000571       0.001625       0.000000
      0.000652       0.001914       0.000000
      0.000692       0.002874       0.000000
      0.001007       0.002887       0.000000
      0.000831       0.002230       0.000000
      0.000692       0.002874       0.000000
      0.000679       0.003843       0.000000
      0.000865       0.003541       0.000000
      0.001007       0.002887       0.000000
      0.000831       0.002230       0.000000
      0.001007       0.002887       0.000000
      0.001128       0.002897       0.000000
      0.000938       0.002268       0.000000
      0.001007       0.002887       0.000000
      0.000865       0.003541       0.000000
      0.000974       0.003518       0.000000
      0.001128       0.002897       0.000000
      0.000679       0.003843       0.000000
      0.000560       0.004536       0.000000
      0.000553       0.004145       0.000000
      0.000865       0.003541       0.000000
      0.000560       0.004536       0.000000
      0.000387       0.005027       0.000000
      0.000255       0.004662       0.000000
      0.000553       0.004145       0.000000
      0.000865       0.003541       0.000000
      0.000553       0.004145       0.000000
      0.000635       0.004148       0.000000
      0.000974       0.003518       0.000000
      0.000553       0.004145       0.000000
      0.000255       0.004662       0.000000
      0.000323       0.004709       0.000000
      0.000635       0.004148       0.000000
      0.000244       0.001064       0.000000
      0.000571       0.001625       0.000000
      0.000651       0.001516       0.000000
      0.000287       0.000869       0.000000
      0.000571       0.001625       0.000000
      0.000938       0.002268       0.000000
      0.001044       0.002231       0.000000
      0.000651       0.001516       0.000000
      0.000287       0.000869       0.000000
      0.000651       0.001516       0.000000
      0.000725       0.001391       0.000000
      0.000296       0.000617       0.000000
      0.000651       0.001516       0.000000
      0.001044       0.002231       0.000000
      0.001152       0.002188       0.000000
      0.000725       0.001391       0.000000
      0.000938       0.002268       0.000000
      0.001128       0.002897       0.000000
      0.001240       0.002908       0.000000
      0.001044       0.002231       0.000000
      0.001128       0.002897       0.000000
      0.000974       0.003518       0.000000
      0.001083       0.003577       0.000000
      0.001240       0.002908       0.000000
      0.001044       0.002231       0.000000
      0.001240       0.002908       0.000000
      0.001361       0.002921       0.000000
      0.001152       0.002188       0.000000
      0.001240       0.002908       0.000000
      0.001083       0.003577       0.000000
      0.001195       0.003649       0.000000
      0.001361       0.002921       0.000000
      0.000974       0.003518       0.000000
      0.000635       0.004148       0.000000
      0.000734       0.004273       0.000000
      0.001083       0.003577       0.000000
      0.000635       0.004148       0.000000
      0.000323       0.004709       0.000000
      0.000422       0.004912       0.000000
      0.000734       0.004273       0.000000
      0.001083       0.003577       0.000000
      0.000734       0.004273       0.000000
      0.000834       0.004429       0.000000
      0.001195       0.003649       0.000000
      0.000734       0.004273       0.000000
      0.000422       0.004912       0.000000
      0.000538       0.005188       0.000000
      0.000834       0.004429       0.000000
      0.000296       0.000617       0.000000
      0.000725       0.001391       0.000000
      0.000789       0.001298       0.000000
      0.000239       0.000339       0.000000
      0.000725       0.001391       0.000000
      0.001152       0.002188       0.000000
      0.001255       0.002173       0.000000
      0.000789       0.001298       0.000000
      0.000239       0.000339       0.000000
      0.000789       0.001298       0.000000
      0.000844       0.001255       0.000000
      0.000000       0.000000       0.000000
      0.000789       0.001298       0.000000
      0.001255       0.002173       0.000000
      0.001346       0.002207       0.000000
      0.000844       0.001255       0.000000
      0.001152       0.002188       0.000000
      0.001361       0.002921       0.000000
      0.001483       0.002934       0.000000
      0.001255       0.002173       0.000000
      0.001361       0.002921       0.000000
      0.001195       0.003649       0.000000
      0.001304       0.003698       0.000000
      0.001483       0.002934       0.000000
      0.001255       0.002173       0.000000
      0.001483       0.002934       0.000000
      0.001595       0.002944       0.000000
      0.001346       0.002207       0.000000
      0.001483       0.002934       0.000000
      0.001304       0.003698       0.000000
      0.001407       0.003696       0.000000
      0.001595       0.002944       0.000000
      0.001195       0.003649       0.000000
      0.000834       0.004429       0.000000
      0.000936       0.004579       0.000000
      0.001304       0.003698       0.000000
      0.000834       0.004429       0.000000
      0.000538       0.005188       0.000000
      0.000688       0.005517       0.000000
      0.000936       0.004579       0.000000
      0.001304       0.003698       0.000000
      0.000936       0.004579       0.000000
      0.001052       0.004711       0.000000
      0.001407       0.003696       0.000000
      0.000936       0.004579       0.000000
      0.000688       0.005517       0.000000
      0.000896       0.005912       0.000000
      0.001052       0.004711       0.000000
     -0.000895       0.000715       0.000000
     -0.000615       0.000385       0.000000
     -0.000328       0.000456       0.000000
     -0.000567       0.000921       0.000000
     -0.000615       0.000385       0.000000
     -0.000372       0.000189       0.000000
     -0.000207       0.000161       0.000000
     -0.000328       0.000456       0.000000
     -0.000567       0.000921       0.000000
     -0.000328       0.000456       0.000000
     -0.000192       0.000441       0.000000
     -0.000416       0.000900       0.000000
     -0.000328       0.000456       0.000000
     -0.000207       0.000161       0.000000
     -0.000124       0.000145       0.000000
     -0.000192       0.000441       0.000000
     -0.000372       0.000189       0.000000
     -0.000177       0.000135       0.000000
     -0.000157       0.000116       0.000000
     -0.000207       0.000161       0.000000
     -0.000177       0.000135       0.000000
     -0.000007       0.000217       0.000000
     -0.000111       0.000313       0.000000
     -0.000157       0.000116       0.000000
     -0.000207       0.000161       0.000000
     -0.000157       0.000116       0.000000
     -0.000145       0.000125       0.000000
     -0.000124       0.000145       0.000000
     -0.000157       0.000116       0.000000
     -0.000111       0.000313       0.000000
     -0.000127       0.000356       0.000000
     -0.000145       0.000125       0.000000
     -0.000007       0.000217       0.000000
      0.000162       0.000430       0.000000
      0.000003       0.000682       0.000000
     -0.000111       0.000313       0.000000
      0.000162       0.000430       0.000000
      0.000337       0.000764       0.000000
      0.000204       0.001113       0.000000
      0.000003       0.000682       0.000000
     -0.000111       0.000313       0.000000
      0.000003       0.000682       0.000000
      0.000009       0.000703       0.000000
     -0.000127       0.000356       0.000000
      0.000003       0.000682       0.000000
      0.000204       0.001113       0.000000
      0.000244       0.001064       0.000000
      0.000009       0.000703       0.000000
     -0.000416       0.000900       0.000000
     -0.000192       0.000441       0.000000
     -0.000102       0.000375       0.000000
     -0.000313       0.000788       0.000000
     -0.000192       0.000441       0.000000
     -0.000124       0.000145       0.000000
     -0.000068       0.000121       0.000000
     -0.000102       0.000375       0.000000
     -0.000313       0.000788       0.000000
     -0.000102       0.000375       0.000000
     -0.000038       0.000274       0.000000
     -0.000246       0.000602       0.000000
     -0.000102       0.000375       0.000000
     -0.000068       0.000121       0.000000
     -0.000028       0.000089       0.000000
     -0.000038       0.000274       0.000000
     -0.000124       0.000145       0.000000
     -0.000145       0.000125       0.000000
     -0.000126       0.000120       0.000000
     -0.000068       0.000121       0.000000
     -0.000145       0.000125       0.000000
     -0.000127       0.000356       0.000000
     -0.000113       0.000325       0.000000
     -0.000126       0.000120       0.000000
     -0.000068       0.000121       0.000000
     -0.000126       0.000120       0.000000
     -0.000100       0.000097       0.000000
     -0.000028       0.000089       0.000000
     -0.000126       0.000120       0.000000
     -0.000113       0.000325       0.000000
     -0.000086       0.000244       0.000000
     -0.000100       0.000097       0.000000
     -0.000127       0.000356       0.000000
      0.000009       0.000703       0.000000
      0.000037       0.000594       0.000000
     -0.000113       0.000325       0.000000
      0.000009       0.000703       0.000000
      0.000244       0.001064       0.000000
      0.000287       0.000869       0.000000
      0.000037       0.000594       0.000000
     -0.000113       0.000325       0.000000
      0.000037       0.000594       0.000000
      0.000055       0.000418       0.000000
     -0.000086       0.000244       0.000000
      0.000037       0.000594       0.000000
      0.000287       0.000869       0.000000
      0.000296       0.000617       0.000000
      0.000055       0.000418       0.000000
     -0.000246       0.000602       0.000000
     -0.000038       0.000274       0.000000
     -0.000001       0.000145       0.000000
     -0.000189       0.000338       0.000000
     -0.000038       0.000274       0.000000
     -0.000028       0.000089       0.000000
     -0.000004       0.000050       0.000000
     -0.000001       0.000145       0.000000
     -0.000189       0.000338       0.000000
     -0.000001       0.000145       0.000000
      0.000000       0.000000       0.000000
      0.000000       0.000000       0.000000
     -0.000001       0.000145       0.000000
     -0.000004       0.000050       0.000000
      0.000000       0.000000       0.000000
      0.000000       0.000000       0.000000
     -0.000028       0.000089       0.000000
     -0.000100       0.000097       0.000000
     -0.000061       0.000056       0.000000
     -0.000004       0.000050       0.000000
     -0.000100       0.000097       0.000000
     -0.000086       0.000244       0.000000
     -0.000048       0.000129       0.000000
     -0.000061       0.000056       0.000000
     -0.000004       0.000050       0.000000
     -0.000061       0.000056       0.000000
      0.000000       0.000000       0.000000
      0.000000       0.000000       0.000000
     -0.000061       0.000056       0.000000
     -0.000048       0.000129       0.000000
      0.000000       0.000000       0.000000
      0.000000       0.000000       0.000000
     -0.000086       0.000244       0.000000
      0.000055       0.000418       0.000000
      0.000048       0.000211       0.000000
     -0.000048       0.000129       0.000000
      0.000055       0.000418       0.000000
      0.000296       0.000617       0.000000
      0.000239       0.000339       0.000000
      0.000048       0.000211       0.000000
     -0.000048       0.000129       0.000000
      0.000048       0.000211       0.000000
      0.000000       0.000000       0.000000
      0.000000       0.000000       0.000000
      0.000048       0.000211       0.000000
      0.000239       0.000339       0.000000
      0.000000       0.000000       0.000000
      0.000000       0.000000       0.000000
     -0.000895       0.000715       0.000000
     -0.001201       0.001194       0.000000
     -0.000990       0.001428       0.000000
     -0.000567       0.000921       0.000000
     -0.001201       0.001194       0.000000
     -0.001470       0.001895       0.000000
     -0.001507       0.002078       0.000000
     -0.000990       0.001428       0.000000
     -0.000567       0.000921       0.000000
     -0.000990       0.001428       0.000000
     -0.000862       0.001455       0.000000