# vtk DataFile Version 2.0
time_10.vtk
ASCII
DATASET UNSTRUCTURED_GRID
POINTS   576 float
      0.458579       0.641421       0.000000
      0.497369       0.671659       0.000000
      0.438243       0.730363       0.000000
      0.382149       0.701184       0.000000
      0.497369       0.671659       0.000000
      0.545805       0.692517       0.000000
      0.506084       0.750000       0.000000
      0.438243       0.730363       0.000000
      0.382149       0.701184       0.000000
      0.438243       0.730363       0.000000
      0.380813       0.787383       0.000000
      0.305719       0.760948       0.000000
      0.438243       0.730363       0.000000
      0.506084       0.750000       0.000000
      0.468251       0.804752       0.000000
      0.380813       0.787383       0.000000
      0.545805       0.692517       0.000000
      0.600000       0.700000       0.000000
      0.581017       0.756950       0.000000
      0.506084       0.750000       0.000000
      0.600000       0.700000       0.000000
      0.654195       0.692517       0.000000
      0.656527       0.750000       0.000000
      0.581017       0.756950       0.000000
      0.506084       0.750000       0.000000
      0.581017       0.756950       0.000000
      0.563060       0.810819       0.000000
      0.468251       0.804752       0.000000
      0.581017       0.756950       0.000000
      0.656527       0.750000       0.000000
      0.658747       0.804752       0.000000
      0.563060       0.810819       0.000000
      0.654195       0.692517       0.000000
      0.702631       0.671659       0.000000
      0.725999       0.730363       0.000000
      0.656527       0.750000       0.000000
      0.702631       0.671659       0.000000
      0.741421       0.641421       0.000000
      0.784518       0.701184       0.000000
      0.725999       0.730363       0.000000
      0.656527       0.750000       0.000000
      0.725999       0.730363       0.000000
      0.748697       0.787383       0.000000
      0.658747       0.804752       0.000000
      0.725999       0.730363       0.000000
      0.784518       0.701184       0.000000
      0.827614       0.760948       0.000000
      0.748697       0.787383       0.000000
      0.305719       0.760948       0.000000
      0.380813       0.787383       0.000000
      0.325006       0.842791       0.000000
      0.229289       0.820711       0.000000
      0.380813       0.787383       0.000000
      0.468251       0.804752       0.000000
      0.432173       0.856962       0.000000
      0.325006       0.842791       0.000000
      0.229289       0.820711       0.000000
      0.325006       0.842791       0.000000
      0.270755       0.896655       0.000000
      0.152860       0.880474       0.000000
      0.325006       0.842791       0.000000
      0.432173       0.856962       0.000000
      0.397732       0.906804       0.000000
      0.270755       0.896655       0.000000
      0.468251       0.804752       0.000000
      0.563060       0.810819       0.000000
      0.546050       0.861851       0.000000
      0.432173       0.856962       0.000000
      0.563060       0.810819       0.000000
      0.658747       0.804752       0.000000
      0.660865       0.856962       0.000000
      0.546050       0.861851       0.000000
      0.432173       0.856962       0.000000
      0.546050       0.861851       0.000000
      0.529912       0.910264       0.000000
      0.397732       0.906804       0.000000
      0.546050       0.861851       0.000000
      0.660865       0.856962       0.000000
      0.662887       0.906804       0.000000
      0.529912       0.910264       0.000000
      0.658747       0.804752       0.000000
      0.748697       0.787383       0.000000
      0.770753       0.842791       0.000000
      0.660865       0.856962       0.000000
      0.748697       0.787383       0.000000
      0.827614       0.760948       0.000000
      0.870711       0.820711       0.000000
      0.770753       0.842791       0.000000
      0.660865       0.856962       0.000000
      0.770753       0.842791       0.000000
      0.792195       0.896655       0.000000
      0.662887       0.906804       0.000000
      0.770753       0.842791       0.000000
      0.870711       0.820711       0.000000
      0.913807       0.880474       0.000000
      0.792195       0.896655       0.000000
      0.152860       0.880474       0.000000
      0.270755       0.896655       0.000000
      0.217995       0.949038       0.000000
      0.076430       0.940237       0.000000
      0.270755       0.896655       0.000000
      0.397732       0.906804       0.000000
      0.364819       0.954435       0.000000
      0.217995       0.949038       0.000000
      0.076430       0.940237       0.000000
      0.217995       0.949038       0.000000
      0.166667       1.000000       0.000000
      0.000000       1.000000       0.000000
      0.217995       0.949038       0.000000
      0.364819       0.954435       0.000000
      0.333333       1.000000       0.000000
      0.166667       1.000000       0.000000
      0.397732       0.906804       0.000000
      0.529912       0.910264       0.000000
      0.514582       0.956255       0.000000
      0.364819       0.954435       0.000000
      0.529912       0.910264       0.000000
      0.662887       0.906804       0.000000
      0.664819       0.954435       0.000000
      0.514582       0.956255       0.000000
      0.364819       0.954435       0.000000
      0.514582       0.956255       0.000000
      0.500000       1.000000       0.000000
      0.333333       1.000000       0.000000
      0.514582       0.956255       0.000000
      0.664819       0.954435       0.000000
      0.666667       1.000000       0.000000
      0.500000       1.000000       0.000000
      0.662887       0.906804       0.000000
      0.792195       0.896655       0.000000
      0.813047       0.949038       0.000000
      0.664819       0.954435       0.000000
      0.792195       0.896655       0.000000
      0.913807       0.880474       0.000000
      0.956904       0.940237       0.000000
      0.813047       0.949038       0.000000
      0.664819       0.954435       0.000000
      0.813047       0.949038       0.000000
      0.833333       1.000000       0.000000
      0.666667       1.000000       0.000000
      0.813047       0.949038       0.000000
      0.956904       0.940237       0.000000
      1.000000       1.000000       0.000000
      0.833333       1.000000       0.000000
      0.458579       0.358579       0.000000
      0.428341       0.397369       0.000000
      0.351758       0.356122       0.000000
      0.382149       0.298816       0.000000
      0.428341       0.397369       0.000000
      0.407483       0.445805       0.000000
      0.331305       0.424779       0.000000
      0.351758       0.356122       0.000000
      0.382149       0.298816       0.000000
      0.351758       0.356122       0.000000
      0.277372       0.316058       0.000000
      0.305719       0.239052       0.000000
      0.351758       0.356122       0.000000
      0.331305       0.424779       0.000000
      0.258747       0.404752       0.000000
      0.277372       0.316058       0.000000
      0.407483       0.445805       0.000000
      0.400000       0.500000       0.000000
      0.324066       0.500000       0.000000
      0.331305       0.424779       0.000000
      0.400000       0.500000       0.000000
      0.407483       0.554195       0.000000
      0.331305       0.575221       0.000000
      0.324066       0.500000       0.000000
      0.331305       0.424779       0.000000
      0.324066       0.500000       0.000000
      0.252241       0.500000       0.000000
      0.258747       0.404752       0.000000
      0.324066       0.500000       0.000000
      0.331305       0.575221       0.000000
      0.258747       0.595248       0.000000
      0.252241       0.500000       0.000000
      0.407483       0.554195       0.000000
      0.428341       0.602631       0.000000
      0.351758       0.643878       0.000000
      0.331305       0.575221       0.000000
      0.428341       0.602631       0.000000
      0.458579       0.641421       0.000000
      0.382149       0.701184       0.000000
      0.351758       0.643878       0.000000
      0.331305       0.575221       0.000000
      0.351758       0.643878       0.000000
      0.277372       0.683942       0.000000
      0.258747       0.595248       0.000000
      0.351758       0.643878       0.000000
      0.382149       0.701184       0.000000
      0.305719       0.760948       0.000000
      0.277372       0.683942       0.000000
      0.305719       0.239052       0.000000
      0.277372       0.316058       0.000000
      0.205089       0.277126       0.000000
      0.229289       0.179289       0.000000
      0.277372       0.316058       0.000000
      0.258747       0.404752       0.000000
      0.189557       0.385654       0.000000
      0.205089       0.277126       0.000000
      0.229289       0.179289       0.000000
      0.205089       0.277126       0.000000
      0.134820       0.239280       0.000000
      0.152860       0.119526       0.000000
      0.205089       0.277126       0.000000
      0.189557       0.385654       0.000000
      0.123505       0.367423       0.000000
      0.134820       0.239280       0.000000
      0.258747       0.404752       0.000000
      0.252241       0.500000       0.000000
      0.184198       0.500000       0.000000
      0.189557       0.385654       0.000000
      0.252241       0.500000       0.000000
      0.258747       0.595248       0.000000
      0.189557       0.614346       0.000000
      0.184198       0.500000       0.000000
      0.189557       0.385654       0.000000
      0.184198       0.500000       0.000000
      0.119648       0.500000       0.000000
      0.123505       0.367423       0.000000
[...]
POINT_DATA   576
VECTORS U float 
      0.000408       0.005293       0.000000
      0.000210       0.005663       0.000000
      0.000035       0.005383       0.000000
      0.000267       0.004909       0.000000
      0.000210       0.005663       0.000000
      0.000003       0.005910       0.000000
     -0.000117       0.005802       0.000000
      0.000035       0.005383       0.000000
      0.000267       0.004909       0.000000
      0.000035       0.005383       0.000000
      0.000059       0.005353       0.000000
      0.000335       0.004952       0.000000
      0.000035       0.005383       0.000000
     -0.000117       0.005802       0.000000
     -0.000132       0.005757       0.000000
      0.000059       0.005353       0.000000
      0.000003       0.005910       0.000000
     -0.000210       0.006011       0.000000
     -0.000197       0.006037       0.000000
     -0.000117       0.005802       0.000000
     -0.000210       0.006011       0.000000
     -0.000442       0.005959       0.000000
     -0.000274       0.005997       0.000000
     -0.000197       0.006037       0.000000
     -0.000117       0.005802       0.000000
     -0.000197       0.006037       0.000000
     -0.000196       0.006033       0.000000
     -0.000132       0.005757       0.000000
     -0.000197       0.006037       0.000000
     -0.000274       0.005997       0.000000
     -0.000207       0.006023       0.000000
     -0.000196       0.006033       0.000000
     -0.000442       0.005959       0.000000
     -0.000706       0.005756       0.000000
     -0.000416       0.005687       0.000000
     -0.000274       0.005997       0.000000
     -0.000706       0.005756       0.000000
     -0.000996       0.005415       0.000000
     -0.000666       0.005207       0.000000
     -0.000416       0.005687       0.000000
     -0.000274       0.005997       0.000000
     -0.000416       0.005687       0.000000
     -0.000298       0.005708       0.000000
     -0.000207       0.006023       0.000000
     -0.000416       0.005687       0.000000
     -0.000666       0.005207       0.000000
     -0.000531       0.005232       0.000000
     -0.000298       0.005708       0.000000
      0.000335       0.004952       0.000000
      0.000059       0.005353       0.000000
      0.000122       0.005465       0.000000
      0.000436       0.005159       0.000000
      0.000059       0.005353       0.000000
     -0.000132       0.005757       0.000000
     -0.000112       0.005791       0.000000
      0.000122       0.005465       0.000000
      0.000436       0.005159       0.000000
      0.000122       0.005465       0.000000
      0.000201       0.005659       0.000000
      0.000556       0.005444       0.000000
      0.000122       0.005465       0.000000
     -0.000112       0.005791       0.000000
     -0.000082       0.005885       0.000000
      0.000201       0.005659       0.000000
     -0.000132       0.005757       0.000000
     -0.000196       0.006033       0.000000
     -0.000190       0.006048       0.000000
     -0.000112       0.005791       0.000000
     -0.000196       0.006033       0.000000
     -0.000207       0.006023       0.000000
     -0.000171       0.006058       0.000000
     -0.000190       0.006048       0.000000
     -0.000112       0.005791       0.000000
     -0.000190       0.006048       0.000000
     -0.000184       0.006083       0.000000
     -0.000082       0.005885       0.000000
     -0.000190       0.006048       0.000000
     -0.000171       0.006058       0.000000
     -0.000150       0.006102       0.000000
     -0.000184       0.006083       0.000000
     -0.000207       0.006023       0.000000
     -0.000298       0.005708       0.000000
     -0.000235       0.005779       0.000000
     -0.000171       0.006058       0.000000
     -0.000298       0.005708       0.000000
     -0.000531       0.005232       0.000000
     -0.000457       0.005351       0.000000
     -0.000235       0.005779       0.000000
     -0.000171       0.006058       0.000000
     -0.000235       0.005779       0.000000
     -0.000201       0.005887       0.000000
     -0.000150       0.006102       0.000000
     -0.000235       0.005779       0.000000
     -0.000457       0.005351       0.000000
     -0.000436       0.005547       0.000000
     -0.000201       0.005887       0.000000
      0.000556       0.005444       0.000000
      0.000201       0.005659       0.000000
      0.000298       0.005909       0.000000
      0.000713       0.005786       0.000000
      0.000201       0.005659       0.000000
     -0.000082       0.005885       0.000000
     -0.000042       0.006025       0.000000
      0.000298       0.005909       0.000000
      0.000713       0.005786       0.000000
      0.000298       0.005909       0.000000
      0.000425       0.006202       0.000000
      0.000931       0.006202       0.000000
      0.000298       0.005909       0.000000
     -0.000042       0.006025       0.000000
      0.000010       0.006202       0.000000
      0.000425       0.006202       0.000000
     -0.000082       0.005885       0.000000
     -0.000184       0.006083       0.000000
     -0.000179       0.006136       0.000000
     -0.000042       0.006025       0.000000
     -0.000184       0.006083       0.000000
     -0.000150       0.006102       0.000000
     -0.000138       0.006151       0.000000
     -0.000179       0.006136       0.000000
     -0.000042       0.006025       0.000000
     -0.000179       0.006136       0.000000
     -0.000176       0.006202       0.000000
      0.000010       0.006202       0.000000
     -0.000179       0.006136       0.000000
     -0.000138       0.006151       0.000000
     -0.000134       0.006202       0.000000
     -0.000176       0.006202       0.000000
     -0.000150       0.006102       0.000000
     -0.000201       0.005887       0.000000
     -0.000191       0.006028       0.000000
     -0.000138       0.006151       0.000000
     -0.000201       0.005887       0.000000
     -0.000436       0.005547       0.000000
     -0.000475       0.005832       0.000000
     -0.000191       0.006028       0.000000
     -0.000138       0.006151       0.000000
     -0.000191       0.006028       0.000000
     -0.000205       0.006202       0.000000
     -0.000134       0.006202       0.000000
     -0.000191       0.006028       0.000000
     -0.000475       0.005832       0.000000
     -0.000572       0.006202       0.000000
     -0.000205       0.006202       0.000000
      0.000356       0.000784       0.000000
      0.000544       0.001270       0.000000
      0.000526       0.001683       0.000000
      0.000215       0.001151       0.000000
      0.000544       0.001270       0.000000
      0.000691       0.001974       0.000000
      0.000878       0.002324       0.000000
      0.000526       0.001683       0.000000
      0.000215       0.001151       0.000000
      0.000526       0.001683       0.000000
      0.000599       0.001694       0.000000
      0.000255       0.001105       0.000000
      0.000526       0.001683       0.000000
      0.000878       0.002324       0.000000
      0.000991       0.002374       0.000000
      0.000599       0.001694       0.000000
      0.000691       0.001974       0.000000
      0.000726       0.003014       0.000000
      0.001070       0.003029       0.000000
      0.000878       0.002324       0.000000
      0.000726       0.003014       0.000000
      0.000719       0.004066       0.000000
      0.000913       0.003731       0.000000
      0.001070       0.003029       0.000000
      0.000878       0.002324       0.000000
      0.001070       0.003029       0.000000
      0.001197       0.003039       0.000000
      0.000991       0.002374       0.000000
      0.001070       0.003029       0.000000
      0.000913       0.003731       0.000000
      0.001028       0.003696       0.000000
      0.001197       0.003039       0.000000
      0.000719       0.004066       0.000000
      0.000592       0.004786       0.000000
      0.000580       0.004368       0.000000
      0.000913       0.003731       0.000000
      0.000592       0.004786       0.000000
      0.000408       0.005293       0.000000
      0.000267       0.004909       0.000000
      0.000580       0.004368       0.000000
      0.000913       0.003731       0.000000
      0.000580       0.004368       0.000000
      0.000665       0.004362       0.000000
      0.001028       0.003696       0.000000
      0.000580       0.004368       0.000000
      0.000267       0.004909       0.000000
      0.000335       0.004952       0.000000
      0.000665       0.004362       0.000000
      0.000255       0.001105       0.000000
      0.000599       0.001694       0.000000
      0.000684       0.001585       0.000000
      0.000299       0.000905       0.000000
      0.000599       0.001694       0.000000
      0.000991       0.002374       0.000000
      0.001103       0.002338       0.000000
      0.000684       0.001585       0.000000
      0.000299       0.000905       0.000000
      0.000684       0.001585       0.000000
      0.000760       0.001458       0.000000
      0.000307       0.000645       0.000000
      0.000684       0.001585       0.000000
      0.001103       0.002338       0.000000
      0.001216       0.002296       0.000000
      0.000760       0.001458       0.000000
      0.000991       0.002374       0.000000
      0.001197       0.003039       0.000000
      0.001313       0.003050       0.000000
      0.001103       0.002338       0.000000
      0.001197       0.003039       0.000000
      0.001028       0.003696       0.000000
      0.001142       0.003753       0.000000
      0.001313       0.003050       0.000000
      0.001103       0.002338       0.000000
      0.001313       0.003050       0.000000
      0.001438       0.003063       0.000000
      0.001216       0.002296       0.000000
      0.001313       0.003050       0.000000
      0.001142       0.003753       0.000000
      0.001259       0.003826       0.000000
      0.001438       0.003063       0.000000
      0.001028       0.003696       0.000000
      0.000665       0.004362       0.000000
      0.000768       0.004487       0.000000
      0.001142       0.003753       0.000000
      0.000665       0.004362       0.000000
      0.000335       0.004952       0.000000
      0.000436       0.005159       0.000000
      0.000768       0.004487       0.000000
      0.001142       0.003753       0.000000
      0.000768       0.004487       0.000000
      0.000872       0.004647       0.000000
      0.001259       0.003826       0.000000
      0.000768       0.004487       0.000000
      0.000436       0.005159       0.000000
      0.000556       0.005444       0.000000
      0.000872       0.004647       0.000000
      0.000307       0.000645       0.000000
      0.000760       0.001458       0.000000
      0.000827       0.001363       0.000000
      0.000249       0.000355       0.000000
      0.000760       0.001458       0.000000
      0.001216       0.002296       0.000000
      0.001322       0.002282       0.000000
      0.000827       0.001363       0.000000
      0.000249       0.000355       0.000000
      0.000827       0.001363       0.000000
      0.000885       0.001319       0.000000
      0.000000       0.000000       0.000000
      0.000827       0.001363       0.000000
      0.001322       0.002282       0.000000
      0.001417       0.002320       0.000000
      0.000885       0.001319       0.000000
      0.001216       0.002296       0.000000
      0.001438       0.003063       0.000000
      0.001566       0.003076       0.000000
      0.001322       0.002282       0.000000
      0.001438       0.003063       0.000000
      0.001259       0.003826       0.000000
      0.001373       0.003875       0.000000
      0.001566       0.003076       0.000000
      0.001322       0.002282       0.000000
      0.001566       0.003076       0.000000
      0.001682       0.003087       0.000000
      0.001417       0.002320       0.000000
      0.001566       0.003076       0.000000
      0.001373       0.003875       0.000000
      0.001479       0.003870       0.000000
      0.001682       0.003087       0.000000
      0.001259       0.003826       0.000000
      0.000872       0.004647       0.000000
      0.000977       0.004800       0.000000
      0.001373       0.003875       0.000000
      0.000872       0.004647       0.000000
      0.000556       0.005444       0.000000
      0.000713       0.005786       0.000000
      0.000977       0.004800       0.000000
      0.001373       0.003875       0.000000
      0.000977       0.004800       0.000000
      0.001098       0.004936       0.000000
      0.001479       0.003870       0.000000
      0.000977       0.004800       0.000000
      0.000713       0.005786       0.000000
      0.000931       0.006202       0.000000
      0.001098       0.004936       0.000000
     -0.000935       0.000731       0.000000
     -0.000641       0.000392       0.000000
     -0.000342       0.000467       0.000000
     -0.000590       0.000948       0.000000
     -0.000641       0.000392       0.000000
     -0.000387       0.000191       0.000000
     -0.000215       0.000162       0.000000
     -0.000342       0.000467       0.000000
     -0.000590       0.000948       0.000000
     -0.000342       0.000467       0.000000
     -0.000199       0.000452       0.000000
     -0.000430       0.000931       0.000000
     -0.000342       0.000467       0.000000
     -0.000215       0.000162       0.000000
     -0.000128       0.000146       0.000000
     -0.000199       0.000452       0.000000
     -0.000387       0.000191       0.000000
     -0.000183       0.000136       0.000000
     -0.000162       0.000117       0.000000
     -0.000215       0.000162       0.000000
     -0.000183       0.000136       0.000000
     -0.000006       0.000221       0.000000
     -0.000114       0.000320       0.000000
     -0.000162       0.000117       0.000000
     -0.000215       0.000162       0.000000
     -0.000162       0.000117       0.000000
     -0.000150       0.000127       0.000000
     -0.000128       0.000146       0.000000
     -0.000162       0.000117       0.000000
     -0.000114       0.000320       0.000000
     -0.000132       0.000365       0.000000
     -0.000150       0.000127       0.000000
     -0.000006       0.000221       0.000000
      0.000172       0.000441       0.000000
      0.000005       0.000702       0.000000
     -0.000114       0.000320       0.000000
      0.000172       0.000441       0.000000
      0.000356       0.000784       0.000000
      0.000215       0.001151       0.000000
      0.000005       0.000702       0.000000
     -0.000114       0.000320       0.000000
      0.000005       0.000702       0.000000
      0.000010       0.000726       0.000000
     -0.000132       0.000365       0.000000
      0.000005       0.000702       0.000000
      0.000215       0.001151       0.000000
      0.000255       0.001105       0.000000
      0.000010       0.000726       0.000000
     -0.000430       0.000931       0.000000
     -0.000199       0.000452       0.000000
     -0.000104       0.000386       0.000000
     -0.000322       0.000817       0.000000
     -0.000199       0.000452       0.000000
     -0.000128       0.000146       0.000000
     -0.000070       0.000123       0.000000
     -0.000104       0.000386       0.000000
     -0.000322       0.000817       0.000000
     -0.000104       0.000386       0.000000
     -0.000038       0.000283       0.000000
     -0.000253       0.000625       0.000000
     -0.000104       0.000386       0.000000
     -0.000070       0.000123       0.000000
     -0.000028       0.000091       0.000000
     -0.000038       0.000283       0.000000
     -0.000128       0.000146       0.000000
     -0.000150       0.000127       0.000000
     -0.000130       0.000122       0.000000
     -0.000070       0.000123       0.000000
     -0.000150       0.000127       0.000000
     -0.000132       0.000365       0.000000
     -0.000117       0.000335       0.000000
     -0.000130       0.000122       0.000000
     -0.000070       0.000123       0.000000
     -0.000130       0.000122       0.000000
     -0.000103       0.000098       0.000000
     -0.000028       0.000091       0.000000
     -0.000130       0.000122       0.000000
     -0.000117       0.000335       0.000000
     -0.000090       0.000251       0.000000
     -0.000103       0.000098       0.000000
     -0.000132       0.000365       0.000000
      0.000010       0.000726       0.000000
      0.000038       0.000616       0.000000
     -0.000117       0.000335       0.000000
      0.000010       0.000726       0.000000
      0.000255       0.001105       0.000000
      0.000299       0.000905       0.000000
      0.000038       0.000616       0.000000
     -0.000117       0.000335       0.000000
      0.000038       0.000616       0.000000
      0.000056       0.000434       0.000000
     -0.000090       0.000251       0.000000
      0.000038       0.000616       0.000000
      0.000299       0.000905       0.000000
      0.000307       0.000645       0.000000
      0.000056       0.000434       0.000000
     -0.000253       0.000625       0.000000
     -0.000038       0.000283       0.000000
      0.000000       0.000150       0.000000
     -0.000195       0.000351       0.000000
     -0.000038       0.000283       0.000000
     -0.000028       0.000091       0.000000
     -0.000003       0.000051       0.000000
      0.000000       0.000150       0.000000
     -0.000195       0.000351       0.000000
      0.000000       0.000150       0.000000
      0.000000       0.000000       0.000000
      0.000000       0.000000       0.000000
      0.000000       0.000150       0.000000
     -0.000003       0.000051       0.000000
      0.000000       0.000000       0.000000
      0.000000       0.000000       0.000000
     -0.000028       0.000091       0.000000
     -0.000103       0.000098       0.000000
     -0.000063       0.000057       0.000000
     -0.000003       0.000051       0.000000
     -0.000103       0.000098       0.000000
     -0.000090       0.000251       0.000000
     -0.000050       0.000133       0.000000
     -0.000063       0.000057       0.000000
     -0.000003       0.000051       0.000000
     -0.000063       0.000057       0.000000
      0.000000       0.000000       0.000000
      0.000000       0.000000       0.000000
     -0.000063       0.000057       0.000000
     -0.000050       0.000133       0.000000
      0.000000       0.000000       0.000000
      0.000000       0.000000       0.000000
     -0.000090       0.000251       0.000000
      0.000056       0.000434       0.000000
      0.000049       0.000219       0.000000
     -0.000050       0.000133       0.000000
      0.000056       0.000434       0.000000
      0.000307       0.000645       0.000000
      0.000249       0.000355       0.000000
      0.000049       0.000219       0.000000
     -0.000050       0.000133       0.000000
      0.000049       0.000219       0.000000
      0.000000       0.000000       0.000000
      0.000000       0.000000       0.000000
      0.000049       0.000219       0.000000
      0.000249       0.000355       0.000000
      0.000000       0.000000       0.000000
      0.000000       0.000000       0.000000
     -0.000935       0.000731       0.000000
     -0.001260       0.001225       0.000000
     -0.001034       0.001474       0.000000
     -0.000590       0.000948       0.000000
     -0.001260       0.001225       0.000000
     -0.001548       0.001947       0.000000
     -0.001583       0.002150       0.000000
     -0.001034       0.001474       0.000000
     -0.000590       0.000948       0.000000
     -0.001034       0.001474       0.000000
     -0.000898       0.001509       0.000000