# vtk DataFile Version 2.0
time_10.vtk
ASCII
DATASET UNSTRUCTURED_GRID
POINTS  2220 float
      0.458579       0.641421       0.000000
      0.497369       0.671659       0.000000
      0.438243       0.730363       0.000000
      0.382149       0.701184       0.000000
      0.497369       0.671659       0.000000
      0.545805       0.692517       0.000000
      0.506084       0.750000       0.000000
      0.438243       0.730363       0.000000
      0.382149       0.701184       0.000000
      0.438243       0.730363       0.000000
      0.380813       0.787383       0.000000
      0.305719       0.760948       0.000000
      0.438243       0.730363       0.000000
      0.506084       0.750000       0.000000
      0.468251       0.804752       0.000000
      0.380813       0.787383       0.000000
      0.545805       0.692517       0.000000
      0.600000       0.700000       0.000000
      0.581017       0.756950       0.000000
      0.506084       0.750000       0.000000
      0.600000       0.700000       0.000000
      0.654195       0.692517       0.000000
      0.656527       0.750000       0.000000
      0.581017       0.756950       0.000000
      0.506084       0.750000       0.000000
      0.581017       0.756950       0.000000
      0.563060       0.810819       0.000000
      0.468251       0.804752       0.000000
      0.581017       0.756950       0.000000
      0.656527       0.750000       0.000000
      0.658747       0.804752       0.000000
      0.563060       0.810819       0.000000
      0.654195       0.692517       0.000000
      0.702631       0.671659       0.000000
      0.725999       0.730363       0.000000
      0.656527       0.750000       0.000000
      0.702631       0.671659       0.000000
      0.741421       0.641421       0.000000
      0.784518       0.701184       0.000000
      0.725999       0.730363       0.000000
      0.656527       0.750000       0.000000
      0.725999       0.730363       0.000000
      0.748697       0.787383       0.000000
      0.658747       0.804752       0.000000
      0.725999       0.730363       0.000000
      0.784518       0.701184       0.000000
      0.827614       0.760948       0.000000
      0.748697       0.787383       0.000000
      0.305719       0.760948       0.000000
      0.380813       0.787383       0.000000
      0.325006       0.842791       0.000000
      0.229289       0.820711       0.000000
      0.380813       0.787383       0.000000
      0.468251       0.804752       0.000000
      0.432173       0.856962       0.000000
      0.325006       0.842791       0.000000
      0.229289       0.820711       0.000000
      0.325006       0.842791       0.000000
      0.270755       0.896655       0.000000
      0.152860       0.880474       0.000000
      0.325006       0.842791       0.000000
      0.432173       0.856962       0.000000
      0.397732       0.906804       0.000000
      0.270755       0.896655       0.000000
      0.468251       0.804752       0.000000
      0.563060       0.810819       0.000000
      0.546050       0.861851       0.000000
      0.432173       0.856962       0.000000
      0.563060       0.810819       0.000000
      0.658747       0.804752       0.000000
      0.660865       0.856962       0.000000
      0.546050       0.861851       0.000000
      0.432173       0.856962       0.000000
      0.546050       0.861851       0.000000
      0.529912       0.910264       0.000000
      0.397732       0.906804       0.000000
      0.546050       0.861851       0.000000
      0.660865       0.856962       0.000000
      0.662887       0.906804       0.000000
      0.529912       0.910264       0.000000
      0.658747       0.804752       0.000000
      0.748697       0.787383       0.000000
      0.770753       0.842791       0.000000
      0.660865       0.856962       0.000000
      0.748697       0.787383       0.000000
      0.827614       0.760948       0.000000
      0.870711       0.820711       0.000000
      0.770753       0.842791       0.000000
      0.660865       0.856962       0.000000
      0.770753       0.842791       0.000000
      0.792195       0.896655       0.000000
      0.662887       0.906804       0.000000
      0.770753       0.842791       0.000000
      0.870711       0.820711       0.000000
      0.913807       0.880474       0.000000
      0.792195       0.896655       0.000000
      0.152860       0.880474       0.000000
      0.270755       0.896655       0.000000
      0.217995       0.949038       0.000000
      0.076430       0.940237       0.000000
      0.270755       0.896655       0.000000
      0.397732       0.906804       0.000000
      0.364819       0.954435       0.000000
      0.217995       0.949038       0.000000
      0.076430       0.940237       0.000000
      0.217995       0.949038       0.000000
      0.166667       1.000000       0.000000
      0.000000       1.000000       0.000000
      0.217995       0.949038       0.000000
      0.364819       0.954435       0.000000
      0.333333       1.000000       0.000000
      0.166667       1.000000       0.000000
      0.397732       0.906804       0.000000
      0.529912       0.910264       0.000000
      0.514582       0.956255       0.000000
      0.364819       0.954435       0.000000
      0.529912       0.910264       0.000000
      0.662887       0.906804       0.000000
      0.664819       0.954435       0.000000
      0.514582       0.956255       0.000000
      0.364819       0.954435       0.000000
      0.514582       0.956255       0.000000
      0.500000       1.000000       0.000000
      0.333333       1.000000       0.000000
      0.514582       0.956255       0.000000
      0.664819       0.954435       0.000000
      0.666667       1.000000       0.000000
      0.500000       1.000000       0.000000
      0.662887       0.906804       0.000000
      0.792195       0.896655       0.000000
      0.813047       0.949038       0.000000
      0.664819       0.954435       0.000000
      0.792195       0.896655       0.000000
      0.913807       0.880474       0.000000
      0.956904       0.940237       0.000000
      0.813047       0.949038       0.000000
      0.664819       0.954435       0.000000
      0.813047       0.949038       0.000000
      0.833333       1.000000       0.000000
      0.666667       1.000000       0.000000
      0.813047       0.949038       0.000000
      0.956904       0.940237       0.000000
      1.000000       1.000000       0.000000
      0.833333       1.000000       0.000000
      0.458579       0.358579       0.000000
      0.428341       0.397369       0.000000
      0.351758       0.356122       0.000000
      0.382149       0.298816       0.000000
      0.382149       0.298816       0.000000
      0.351758       0.356122       0.000000
      0.277372       0.316058       0.000000
      0.305719       0.239052       0.000000
      0.351758       0.356122       0.000000
      0.331305       0.424779       0.000000
      0.258747       0.404752       0.000000
      0.277372       0.316058       0.000000
      0.331305       0.424779       0.000000
      0.324066       0.500000       0.000000
      0.252241       0.500000       0.000000
      0.258747       0.404752       0.000000
      0.324066       0.500000       0.000000
      0.331305       0.575221       0.000000
      0.258747       0.595248       0.000000
      0.252241       0.500000       0.000000
      0.428341       0.602631       0.000000
      0.458579       0.641421       0.000000
      0.382149       0.701184       0.000000
      0.351758       0.643878       0.000000
      0.331305       0.575221       0.000000
      0.351758       0.643878       0.000000
      0.277372       0.683942       0.000000
      0.258747       0.595248       0.000000
      0.351758       0.643878       0.000000
      0.382149       0.701184       0.000000
      0.305719       0.760948       0.000000
      0.277372       0.683942       0.000000
      0.305719       0.239052       0.000000
      0.277372       0.316058       0.000000
      0.205089       0.277126       0.000000
      0.229289       0.179289       0.000000
      0.277372       0.316058       0.000000
      0.258747       0.404752       0.000000
      0.189557       0.385654       0.000000
      0.205089       0.277126       0.000000
      0.229289       0.179289       0.000000
      0.205089       0.277126       0.000000
      0.134820       0.239280       0.000000
      0.152860       0.119526       0.000000
      0.205089       0.277126       0.000000
      0.189557       0.385654       0.000000
      0.123505       0.367423       0.000000
      0.134820       0.239280       0.000000
      0.258747       0.404752       0.000000
      0.252241       0.500000       0.000000
      0.184198       0.500000       0.000000
      0.189557       0.385654       0.000000
      0.252241       0.500000       0.000000
      0.258747       0.595248       0.000000
      0.189557       0.614346       0.000000
      0.184198       0.500000       0.000000
      0.189557       0.385654       0.000000
      0.184198       0.500000       0.000000
      0.119648       0.500000       0.000000
      0.123505       0.367423       0.000000
      0.184198       0.500000       0.000000
      0.189557       0.614346       0.000000
      0.123505       0.632577       0.000000
      0.119648       0.500000       0.000000
      0.258747       0.595248       0.000000
      0.277372       0.683942       0.000000
      0.205089       0.722874       0.000000
      0.189557       0.614346       0.000000
      0.277372       0.683942       0.000000
      0.305719       0.760948       0.000000
      0.229289       0.820711       0.000000
      0.205089       0.722874       0.000000
      0.189557       0.614346       0.000000
      0.205089       0.722874       0.000000
      0.134820       0.760720       0.000000
      0.123505       0.632577       0.000000
[...]
POINT_DATA  2220
VECTORS U float 
      0.000554       0.005772       0.000000
      0.000361       0.006160       0.000000
      0.000145       0.005847       0.000000
      0.000382       0.005350       0.000000
      0.000361       0.006160       0.000000
      0.000186       0.006433       0.000000
      0.000001       0.006289       0.000000
      0.000145       0.005847       0.000000
      0.000382       0.005350       0.000000
      0.000145       0.005847       0.000000
      0.000125       0.005803       0.000000
      0.000421       0.005374       0.000000
      0.000145       0.005847       0.000000
      0.000001       0.006289       0.000000
     -0.000077       0.006228       0.000000
      0.000125       0.005803       0.000000
      0.000186       0.006433       0.000000
      0.000051       0.006591       0.000000
     -0.000055       0.006572       0.000000
      0.000001       0.006289       0.000000
      0.000051       0.006591       0.000000
     -0.000038       0.006663       0.000000
     -0.000078       0.006683       0.000000
     -0.000055       0.006572       0.000000
      0.000001       0.006289       0.000000
     -0.000055       0.006572       0.000000
     -0.000146       0.006549       0.000000
     -0.000077       0.006228       0.000000
     -0.000055       0.006572       0.000000
     -0.000078       0.006683       0.000000
     -0.000143       0.006690       0.000000
     -0.000146       0.006549       0.000000
     -0.000038       0.006663       0.000000
     -0.000092       0.006686       0.000000
     -0.000098       0.006700       0.000000
     -0.000078       0.006683       0.000000
     -0.000092       0.006686       0.000000
     -0.000125       0.006685       0.000000
     -0.000116       0.006684       0.000000
     -0.000098       0.006700       0.000000
     -0.000078       0.006683       0.000000
     -0.000098       0.006700       0.000000
     -0.000136       0.006710       0.000000
     -0.000143       0.006690       0.000000
     -0.000098       0.006700       0.000000
     -0.000116       0.006684       0.000000
     -0.000139       0.006690       0.000000
     -0.000136       0.006710       0.000000
      0.000421       0.005374       0.000000
      0.000125       0.005803       0.000000
      0.000164       0.005918       0.000000
      0.000509       0.005587       0.000000
      0.000125       0.005803       0.000000
     -0.000077       0.006228       0.000000
     -0.000098       0.006264       0.000000
      0.000164       0.005918       0.000000
      0.000509       0.005587       0.000000
      0.000164       0.005918       0.000000
      0.000234       0.006129       0.000000
      0.000626       0.005892       0.000000
      0.000164       0.005918       0.000000
     -0.000098       0.006264       0.000000
     -0.000088       0.006369       0.000000
      0.000234       0.006129       0.000000
     -0.000077       0.006228       0.000000
     -0.000146       0.006549       0.000000
     -0.000204       0.006555       0.000000
     -0.000098       0.006264       0.000000
     -0.000146       0.006549       0.000000
     -0.000143       0.006690       0.000000
     -0.000196       0.006696       0.000000
     -0.000204       0.006555       0.000000
     -0.000098       0.006264       0.000000
     -0.000204       0.006555       0.000000
     -0.000236       0.006589       0.000000
     -0.000088       0.006369       0.000000
     -0.000204       0.006555       0.000000
     -0.000196       0.006696       0.000000
     -0.000232       0.006704       0.000000
     -0.000236       0.006589       0.000000
     -0.000143       0.006690       0.000000
     -0.000136       0.006710       0.000000
     -0.000173       0.006716       0.000000
     -0.000196       0.006696       0.000000
     -0.000136       0.006710       0.000000
     -0.000139       0.006690       0.000000
     -0.000167       0.006696       0.000000
     -0.000173       0.006716       0.000000
     -0.000196       0.006696       0.000000
     -0.000173       0.006716       0.000000
     -0.000200       0.006718       0.000000
     -0.000232       0.006704       0.000000
     -0.000173       0.006716       0.000000
     -0.000167       0.006696       0.000000
     -0.000191       0.006704       0.000000
     -0.000200       0.006718       0.000000
      0.000626       0.005892       0.000000
      0.000234       0.006129       0.000000
      0.000334       0.006402       0.000000
      0.000792       0.006263       0.000000
      0.000234       0.006129       0.000000
     -0.000088       0.006369       0.000000
     -0.000052       0.006525       0.000000
      0.000334       0.006402       0.000000
      0.000792       0.006263       0.000000
      0.000334       0.006402       0.000000
      0.000472       0.006722       0.000000
      0.001032       0.006722       0.000000
      0.000334       0.006402       0.000000
     -0.000052       0.006525       0.000000
      0.000006       0.006722       0.000000
      0.000472       0.006722       0.000000
     -0.000088       0.006369       0.000000
     -0.000236       0.006589       0.000000
     -0.000249       0.006646       0.000000
     -0.000052       0.006525       0.000000
     -0.000236       0.006589       0.000000
     -0.000232       0.006704       0.000000
     -0.000252       0.006713       0.000000
     -0.000249       0.006646       0.000000
     -0.000052       0.006525       0.000000
     -0.000249       0.006646       0.000000
     -0.000247       0.006722       0.000000
      0.000006       0.006722       0.000000
     -0.000249       0.006646       0.000000
     -0.000252       0.006713       0.000000
     -0.000258       0.006722       0.000000
     -0.000247       0.006722       0.000000
     -0.000232       0.006704       0.000000
     -0.000200       0.006718       0.000000
     -0.000214       0.006720       0.000000
     -0.000252       0.006713       0.000000
     -0.000200       0.006718       0.000000
     -0.000191       0.006704       0.000000
     -0.000208       0.006714       0.000000
     -0.000214       0.006720       0.000000
     -0.000252       0.006713       0.000000
     -0.000214       0.006720       0.000000
     -0.000216       0.006722       0.000000
     -0.000258       0.006722       0.000000
     -0.000214       0.006720       0.000000
     -0.000208       0.006714       0.000000
     -0.000214       0.006722       0.000000
     -0.000216       0.006722       0.000000
      0.000499       0.000804       0.000000
      0.000698       0.001304       0.000000
      0.000664       0.001765       0.000000
      0.000330       0.001204       0.000000
      0.000330       0.001204       0.000000
      0.000664       0.001765       0.000000
      0.000730       0.001806       0.000000
      0.000343       0.001174       0.000000
      0.000664       0.001765       0.000000
      0.001054       0.002462       0.000000
      0.001177       0.002552       0.000000
      0.000730       0.001806       0.000000
      0.001054       0.002462       0.000000
      0.001295       0.003276       0.000000
      0.001423       0.003287       0.000000
      0.001177       0.002552       0.000000
      0.001295       0.003276       0.000000
      0.001092       0.004087       0.000000
      0.001215       0.004012       0.000000
      0.001423       0.003287       0.000000
      0.000750       0.005249       0.000000
      0.000554       0.005772       0.000000
      0.000382       0.005350       0.000000
      0.000719       0.004780       0.000000
      0.001092       0.004087       0.000000
      0.000719       0.004780       0.000000
      0.000796       0.004743       0.000000
      0.001215       0.004012       0.000000
      0.000719       0.004780       0.000000
      0.000382       0.005350       0.000000
      0.000421       0.005374       0.000000
      0.000796       0.004743       0.000000
      0.000343       0.001174       0.000000
      0.000730       0.001806       0.000000
      0.000811       0.001706       0.000000
      0.000368       0.000970       0.000000
      0.000730       0.001806       0.000000
      0.001177       0.002552       0.000000
      0.001295       0.002528       0.000000
      0.000811       0.001706       0.000000
      0.000368       0.000970       0.000000
      0.000811       0.001706       0.000000
      0.000883       0.001581       0.000000
      0.000358       0.000697       0.000000
      0.000811       0.001706       0.000000
      0.001295       0.002528       0.000000
      0.001412       0.002490       0.000000
      0.000883       0.001581       0.000000
      0.001177       0.002552       0.000000
      0.001423       0.003287       0.000000
      0.001541       0.003299       0.000000
      0.001295       0.002528       0.000000
      0.001423       0.003287       0.000000
      0.001215       0.004012       0.000000
      0.001334       0.004060       0.000000
      0.001541       0.003299       0.000000
      0.001295       0.002528       0.000000
      0.001541       0.003299       0.000000
      0.001671       0.003313       0.000000
      0.001412       0.002490       0.000000
      0.001541       0.003299       0.000000
      0.001334       0.004060       0.000000
      0.001455       0.004130       0.000000
      0.001671       0.003313       0.000000
      0.001215       0.004012       0.000000
      0.000796       0.004743       0.000000
      0.000896       0.004860       0.000000
      0.001334       0.004060       0.000000
      0.000796       0.004743       0.000000
      0.000421       0.005374       0.000000
      0.000509       0.005587       0.000000
      0.000896       0.004860       0.000000
      0.001334       0.004060       0.000000
      0.000896       0.004860       0.000000
      0.000999       0.005022       0.000000
      0.001455       0.004130       0.000000
      0.000896       0.004860       0.000000
      0.000509       0.005587       0.000000
      0.000626       0.005892       0.000000
      0.000999       0.005022       0.000000
      0.000358       0.000697       0.000000
      0.000883       0.001581       0.000000
      0.000945       0.001492       0.000000
      0.000279       0.000387       0.000000
      0.000883       0.001581       0.000000
      0.001412       0.002490       0.000000
      0.001522       0.002484       0.000000
      0.000945       0.001492       0.000000
      0.000279       0.000387       0.000000
      0.000945       0.001492       0.000000
      0.000999       0.001460       0.000000
      0.000000       0.000000       0.000000
      0.000945       0.001492       0.000000
      0.001522       0.002484       0.000000
      0.001618       0.002539       0.000000
      0.000999       0.001460       0.000000
      0.001412       0.002490       0.000000
      0.001671       0.003313       0.000000
      0.001805       0.003326       0.000000
      0.001522       0.002484       0.000000
      0.001671       0.003313       0.000000
      0.001455       0.004130       0.000000
      0.001573       0.004174       0.000000
      0.001805       0.003326       0.000000
      0.001522       0.002484       0.000000
      0.001805       0.003326       0.000000
      0.001926       0.003337       0.000000
      0.001618       0.002539       0.000000
      0.001805       0.003326       0.000000
      0.001573       0.004174       0.000000
      0.001682       0.004156       0.000000
      0.001926       0.003337       0.000000
      0.001455       0.004130       0.000000
      0.000999       0.005022       0.000000
      0.001104       0.005178       0.000000
      0.001573       0.004174       0.000000
      0.000999       0.005022       0.000000
      0.000626       0.005892       0.000000
      0.000792       0.006263       0.000000
      0.001104       0.005178       0.000000
      0.001573       0.004174       0.000000
      0.001104       0.005178       0.000000
      0.001230       0.005316       0.000000
      0.001682       0.004156       0.000000
      0.001104       0.005178       0.000000
      0.000792       0.006263       0.000000
      0.001032       0.006722       0.000000
      0.001230       0.005316       0.000000
      0.001172       0.003268       0.000000
      0.001129       0.003805       0.000000
      0.001239       0.003693       0.000000
      0.001295       0.003276       0.000000
      0.001129       0.003805       0.000000
      0.001017       0.004244       0.000000
      0.001092       0.004087       0.000000
      0.001239       0.003693       0.000000
      0.000980       0.002299       0.000000
      0.001108       0.002734       0.000000
      0.001218       0.002858       0.000000
      0.001054       0.002462       0.000000
      0.001108       0.002734       0.000000
      0.001172       0.003268       0.000000
      0.001295       0.003276       0.000000
      0.001218       0.002858       0.000000
      0.001055       0.003263       0.000000
      0.001053       0.003600       0.000000
      0.001163       0.003546       0.000000
      0.001172       0.003268       0.000000
      0.001053       0.003600       0.000000
      0.001038       0.003898       0.000000
      0.001129       0.003805       0.000000
      0.001163       0.003546       0.000000
      0.001019       0.002635       0.000000
      0.001044       0.002928       0.000000
      0.001152       0.002991       0.000000
      0.001108       0.002734       0.000000
      0.001044       0.002928       0.000000
      0.001055       0.003263       0.000000
      0.001172       0.003268       0.000000
      0.001152       0.002991       0.000000
      0.000859       0.003257       0.000000
      0.000864       0.003457       0.000000
      0.000972       0.003448       0.000000
      0.000969       0.003259       0.000000
      0.000864       0.003457       0.000000
      0.000874       0.003648       0.000000
      0.000975       0.003629       0.000000
      0.000972       0.003448       0.000000
      0.000969       0.003259       0.000000
      0.000972       0.003448       0.000000
      0.001056       0.003434       0.000000
      0.001055       0.003263       0.000000
      0.000972       0.003448       0.000000
      0.000975       0.003629       0.000000
      0.001053       0.003600       0.000000
      0.001056       0.003434       0.000000
      0.000868       0.002870       0.000000
      0.000861       0.003059       0.000000
      0.000968       0.003072       0.000000
      0.000967       0.002894       0.000000
      0.000861       0.003059       0.000000
      0.000859       0.003257       0.000000
      0.000969       0.003259       0.000000
      0.000968       0.003072       0.000000
      0.000967       0.002894       0.000000
      0.000968       0.003072       0.000000
      0.001051       0.003091       0.000000
      0.001044       0.002928       0.000000
      0.000968       0.003072       0.000000
      0.000969       0.003259       0.000000
      0.001055       0.003263       0.000000
      0.001051       0.003091       0.000000
      0.000894       0.004511       0.000000
      0.000836       0.004914       0.000000
      0.000872       0.004608       0.000000
      0.001017       0.004244       0.000000
      0.000836       0.004914       0.000000
      0.000750       0.005249       0.000000
      0.000712       0.004928       0.000000
      0.000872       0.004608       0.000000
      0.001017       0.004244       0.000000
      0.000872       0.004608       0.000000
      0.000909       0.004449       0.000000
      0.001092       0.004087       0.000000
      0.000872       0.004608       0.000000
      0.000712       0.004928       0.000000
      0.000719       0.004780       0.000000
      0.000909       0.004449       0.000000
      0.000896       0.003988       0.000000
      0.000904       0.004271       0.000000
      0.001010       0.004150       0.000000
      0.001038       0.003898       0.000000
      0.000904       0.004271       0.000000
      0.000894       0.004511       0.000000
      0.000969       0.004367       0.000000
      0.001010       0.004150       0.000000
      0.001038       0.003898       0.000000
      0.001010       0.004150       0.000000
      0.001079       0.004037       0.000000
      0.001129       0.003805       0.000000
      0.001010       0.004150       0.000000
      0.000969       0.004367       0.000000
      0.001017       0.004244       0.000000
      0.001079       0.004037       0.000000
      0.000874       0.003648       0.000000
      0.000886       0.003826       0.000000
      0.000977       0.003796       0.000000
      0.000975       0.003629       0.000000
      0.000886       0.003826       0.000000
      0.000896       0.003988       0.000000
      0.000976       0.003948       0.000000
      0.000977       0.003796       0.000000
      0.000975       0.003629       0.000000
      0.000977       0.003796       0.000000
      0.001048       0.003755       0.000000
      0.001053       0.003600       0.000000
      0.000977       0.003796       0.000000
      0.000976       0.003948       0.000000
      0.001038       0.003898       0.000000
      0.001048       0.003755       0.000000
      0.000698       0.001304       0.000000
      0.000793       0.001630       0.000000
      0.000823       0.001938       0.000000
      0.000658       0.001621       0.000000
      0.000793       0.001630       0.000000
      0.000863       0.002025       0.000000
      0.000980       0.002299       0.000000
      0.000823       0.001938       0.000000
      0.000658       0.001621       0.000000
      0.000823       0.001938       0.000000
      0.000860       0.002097       0.000000
      0.000664       0.001765       0.000000
      0.000823       0.001938       0.000000
      0.000980       0.002299       0.000000
      0.001054       0.002462       0.000000
      0.000860       0.002097       0.000000
      0.000863       0.002025       0.000000
      0.000881       0.002261       0.000000
      0.000982       0.002388       0.000000
      0.000934       0.002174       0.000000
      0.000881       0.002261       0.000000
      0.000882       0.002537       0.000000
      0.001019       0.002635       0.000000
      0.000982       0.002388       0.000000
      0.000934       0.002174       0.000000
      0.000982       0.002388       0.000000
      0.001049       0.002505       0.000000
      0.000980       0.002299       0.000000
      0.000982       0.002388       0.000000
      0.001019       0.002635       0.000000
      0.001108       0.002734       0.000000
      0.001049       0.002505       0.000000
      0.000882       0.002537       0.000000
      0.000876       0.002696       0.000000
      0.000964       0.002730       0.000000
      0.000959       0.002582       0.000000
      0.000876       0.002696       0.000000
      0.000868       0.002870       0.000000
      0.000967       0.002894       0.000000
      0.000964       0.002730       0.000000
      0.000959       0.002582       0.000000
      0.000964       0.002730       0.000000
      0.001033       0.002775       0.000000
      0.001019       0.002635       0.000000
      0.000964       0.002730       0.000000
      0.000967       0.002894       0.000000
      0.001044       0.002928       0.000000
      0.001033       0.002775       0.000000
     -0.000062       0.000021       0.000000
     -0.000028       0.000014       0.000000
     -0.000022       0.000009       0.000000
     -0.000038       0.000033       0.000000
     -0.000028       0.000014       0.000000
      0.000013       0.000027       0.000000
     -0.000014       0.000015       0.000000
     -0.000022       0.000009       0.000000
     -0.000038       0.000033       0.000000
     -0.000022       0.000009       0.000000
     -0.000033       0.000009       0.000000