# vtk DataFile Version 2.0
time_10.vtk
ASCII
DATASET UNSTRUCTURED_GRID
POINTS   576 float
      0.458579       0.641421       0.000000
      0.497369       0.671659       0.000000
      0.438243       0.730363       0.000000
      0.382149       0.701184       0.000000
      0.497369       0.671659       0.000000
      0.545805       0.692517       0.000000
      0.506084       0.750000       0.000000
      0.438243       0.730363       0.000000
      0.382149       0.701184       0.000000
      0.438243       0.730363       0.000000
      0.380813       0.787383       0.000000
      0.305719       0.760948       0.000000
      0.438243       0.730363       0.000000
      0.506084       0.750000       0.000000
      0.468251       0.804752       0.000000
      0.380813       0.787383       0.000000
      0.545805       0.692517       0.000000
      0.600000       0.700000       0.000000
      0.581017       0.756950       0.000000
      0.506084       0.750000       0.000000
      0.600000       0.700000       0.000000
      0.654195       0.692517       0.000000
      0.656527       0.750000       0.000000
      0.581017       0.756950       0.000000
      0.506084       0.750000       0.000000
      0.581017       0.756950       0.000000
      0.563060       0.810819       0.000000
      0.468251       0.804752       0.000000
      0.581017       0.756950       0.000000
      0.656527       0.750000       0.000000
      0.658747       0.804752       0.000000
      0.563060       0.810819       0.000000
      0.654195       0.692517       0.000000
      0.702631       0.671659       0.000000
      0.725999       0.730363       0.000000
      0.656527       0.750000       0.000000
      0.702631       0.671659       0.000000
      0.741421       0.641421       0.000000
      0.784518       0.701184       0.000000
      0.725999       0.730363       0.000000
      0.656527       0.750000       0.000000
      0.725999       0.730363       0.000000
      0.748697       0.787383       0.000000
      0.658747       0.804752       0.000000
      0.725999       0.730363       0.000000
      0.784518       0.701184       0.000000
      0.827614       0.760948       0.000000
      0.748697       0.787383       0.000000
      0.305719       0.760948       0.000000
      0.380813       0.787383       0.000000
      0.325006       0.842791       0.000000
      0.229289       0.820711       0.000000
      0.380813       0.787383       0.000000
      0.468251       0.804752       0.000000
      0.432173       0.856962       0.000000
      0.325006       0.842791       0.000000
      0.229289       0.820711       0.000000
      0.325006       0.842791       0.000000
      0.270755       0.896655       0.000000
      0.152860       0.880474       0.000000
      0.325006       0.842791       0.000000
      0.432173       0.856962       0.000000
      0.397732       0.906804       0.000000
      0.270755       0.896655       0.000000
      0.468251       0.804752       0.000000
      0.563060       0.810819       0.000000
      0.546050       0.861851       0.000000
      0.432173       0.856962       0.000000
      0.563060       0.810819       0.000000
      0.658747       0.804752       0.000000
      0.660865       0.856962       0.000000
      0.546050       0.861851       0.000000
      0.432173       0.856962       0.000000
      0.546050       0.861851       0.000000
      0.529912       0.910264       0.000000
      0.397732       0.906804       0.000000
      0.546050       0.861851       0.000000
      0.660865       0.856962       0.000000
      0.662887       0.906804       0.000000
      0.529912       0.910264       0.000000
      0.658747       0.804752       0.000000
      0.748697       0.787383       0.000000
      0.770753       0.842791       0.000000
      0.660865       0.856962       0.000000
      0.748697       0.787383       0.000000
      0.827614       0.760948       0.000000
      0.870711       0.820711       0.000000
      0.770753       0.842791       0.000000
      0.660865       0.856962       0.000000
      0.770753       0.842791       0.000000
      0.792195       0.896655       0.000000
      0.662887       0.906804       0.000000
      0.770753       0.842791       0.000000
      0.870711       0.820711       0.000000
      0.913807       0.880474       0.000000
      0.792195       0.896655       0.000000
      0.152860       0.880474       0.000000
      0.270755       0.896655       0.000000
      0.217995       0.949038       0.000000
      0.076430       0.940237       0.000000
      0.270755       0.896655       0.000000
      0.397732       0.906804       0.000000
      0.364819       0.954435       0.000000
      0.217995       0.949038       0.000000
      0.076430       0.940237       0.000000
      0.217995       0.949038       0.000000
      0.166667       1.000000       0.000000
      0.000000       1.000000       0.000000
      0.217995       0.949038       0.000000
      0.364819       0.954435       0.000000
      0.333333       1.000000       0.000000
      0.166667       1.000000       0.000000
      0.397732       0.906804       0.000000
      0.529912       0.910264       0.000000
      0.514582       0.956255       0.000000
      0.364819       0.954435       0.000000
      0.529912       0.910264       0.000000
      0.662887       0.906804       0.000000
      0.664819       0.954435       0.000000
      0.514582       0.956255       0.000000
      0.364819       0.954435       0.000000
      0.514582       0.956255       0.000000
      0.500000       1.000000       0.000000
      0.333333       1.000000       0.000000
      0.514582       0.956255       0.000000
      0.664819       0.954435       0.000000
      0.666667       1.000000       0.000000
      0.500000       1.000000       0.000000
      0.662887       0.906804       0.000000
      0.792195       0.896655       0.000000
      0.813047       0.949038       0.000000
      0.664819       0.954435       0.000000
      0.792195       0.896655       0.000000
      0.913807       0.880474       0.000000
      0.956904       0.940237       0.000000
      0.813047       0.949038       0.000000
      0.664819       0.954435       0.000000
      0.813047       0.949038       0.000000
      0.833333       1.000000       0.000000
      0.666667       1.000000       0.000000
      0.813047       0.949038       0.000000
      0.956904       0.940237       0.000000
      1.000000       1.000000       0.000000
      0.833333       1.000000       0.000000
      0.458579       0.358579       0.000000
      0.428341       0.397369       0.000000
      0.351758       0.356122       0.000000
      0.382149       0.298816       0.000000
      0.428341       0.397369       0.000000
      0.407483       0.445805       0.000000
      0.331305       0.424779       0.000000
      0.351758       0.356122       0.000000
      0.382149       0.298816       0.000000
      0.351758       0.356122       0.000000
      0.277372       0.316058       0.000000
      0.305719       0.239052       0.000000
      0.351758       0.356122       0.000000
      0.331305       0.424779       0.000000
      0.258747       0.404752       0.000000
      0.277372       0.316058       0.000000
      0.407483       0.445805       0.000000
      0.400000       0.500000       0.000000
      0.324066       0.500000       0.000000
      0.331305       0.424779       0.000000
      0.400000       0.500000       0.000000
      0.407483       0.554195       0.000000
      0.331305       0.575221       0.000000
      0.324066       0.500000       0.000000
      0.331305       0.424779       0.000000
      0.324066       0.500000       0.000000
      0.252241       0.500000       0.000000
      0.258747       0.404752       0.000000
      0.324066       0.500000       0.000000
      0.331305       0.575221       0.000000
      0.258747       0.595248       0.000000
      0.252241       0.500000       0.000000
      0.407483       0.554195       0.000000
      0.428341       0.602631       0.000000
      0.351758       0.643878       0.000000
      0.331305       0.575221       0.000000
      0.428341       0.602631       0.000000
      0.458579       0.641421       0.000000
      0.382149       0.701184       0.000000
      0.351758       0.643878       0.000000
      0.331305       0.575221       0.000000
      0.351758       0.643878       0.000000
      0.277372       0.683942       0.000000
      0.258747       0.595248       0.000000
      0.351758       0.643878       0.000000
      0.382149       0.701184       0.000000
      0.305719       0.760948       0.000000
      0.277372       0.683942       0.000000
      0.305719       0.239052       0.000000
      0.277372       0.316058       0.000000
      0.205089       0.277126       0.000000
      0.229289       0.179289       0.000000
      0.277372       0.316058       0.000000
      0.258747       0.404752       0.000000
      0.189557       0.385654       0.000000
      0.205089       0.277126       0.000000
      0.229289       0.179289       0.000000
      0.205089       0.277126       0.000000
      0.134820       0.239280       0.000000
      0.152860       0.119526       0.000000
      0.205089       0.277126       0.000000
      0.189557       0.385654       0.000000
      0.123505       0.367423       0.000000
      0.134820       0.239280       0.000000
      0.258747       0.404752       0.000000
      0.252241       0.500000       0.000000
      0.184198       0.500000       0.000000
      0.189557       0.385654       0.000000
      0.252241       0.500000       0.000000
      0.258747       0.595248       0.000000
      0.189557       0.614346       0.000000
      0.184198       0.500000       0.000000
      0.189557       0.385654       0.000000
      0.184198       0.500000       0.000000
      0.119648       0.500000       0.000000
      0.123505       0.367423       0.000000
[...]
POINT_DATA   576
VECTORS U float 
      0.000406       0.005265       0.000000
      0.000209       0.005634       0.000000
      0.000035       0.005355       0.000000
      0.000265       0.004883       0.000000
      0.000209       0.005634       0.000000
      0.000003       0.005880       0.000000
     -0.000116       0.005773       0.000000
      0.000035       0.005355       0.000000
      0.000265       0.004883       0.000000
      0.000035       0.005355       0.000000
      0.000059       0.005326       0.000000
      0.000334       0.004927       0.000000
      0.000035       0.005355       0.000000
     -0.000116       0.005773       0.000000
     -0.000131       0.005728       0.000000
      0.000059       0.005326       0.000000
      0.000003       0.005880       0.000000
     -0.000209       0.005981       0.000000
     -0.000196       0.006007       0.000000
     -0.000116       0.005773       0.000000
     -0.000209       0.005981       0.000000
     -0.000441       0.005930       0.000000
     -0.000273       0.005967       0.000000
     -0.000196       0.006007       0.000000
     -0.000116       0.005773       0.000000
     -0.000196       0.006007       0.000000
     -0.000195       0.006003       0.000000
     -0.000131       0.005728       0.000000
     -0.000196       0.006007       0.000000
     -0.000273       0.005967       0.000000
     -0.000206       0.005993       0.000000
     -0.000195       0.006003       0.000000
     -0.000441       0.005930       0.000000
     -0.000703       0.005726       0.000000
     -0.000415       0.005658       0.000000
     -0.000273       0.005967       0.000000
     -0.000703       0.005726       0.000000
     -0.000991       0.005387       0.000000
     -0.000664       0.005179       0.000000
     -0.000415       0.005658       0.000000
     -0.000273       0.005967       0.000000
     -0.000415       0.005658       0.000000
     -0.000297       0.005679       0.000000
     -0.000206       0.005993       0.000000
     -0.000415       0.005658       0.000000
     -0.000664       0.005179       0.000000
     -0.000529       0.005205       0.000000
     -0.000297       0.005679       0.000000
      0.000334       0.004927       0.000000
      0.000059       0.005326       0.000000
      0.000122       0.005437       0.000000
      0.000435       0.005133       0.000000
      0.000059       0.005326       0.000000
     -0.000131       0.005728       0.000000
     -0.000112       0.005762       0.000000
      0.000122       0.005437       0.000000
      0.000435       0.005133       0.000000
      0.000122       0.005437       0.000000
      0.000201       0.005631       0.000000
      0.000554       0.005418       0.000000
      0.000122       0.005437       0.000000
     -0.000112       0.005762       0.000000
     -0.000081       0.005856       0.000000
      0.000201       0.005631       0.000000
     -0.000131       0.005728       0.000000
     -0.000195       0.006003       0.000000
     -0.000189       0.006018       0.000000
     -0.000112       0.005762       0.000000
     -0.000195       0.006003       0.000000
     -0.000206       0.005993       0.000000
     -0.000170       0.006028       0.000000
     -0.000189       0.006018       0.000000
     -0.000112       0.005762       0.000000
     -0.000189       0.006018       0.000000
     -0.000183       0.006053       0.000000
     -0.000081       0.005856       0.000000
     -0.000189       0.006018       0.000000
     -0.000170       0.006028       0.000000
     -0.000149       0.006072       0.000000
     -0.000183       0.006053       0.000000
     -0.000206       0.005993       0.000000
     -0.000297       0.005679       0.000000
     -0.000234       0.005750       0.000000
     -0.000170       0.006028       0.000000
     -0.000297       0.005679       0.000000
     -0.000529       0.005205       0.000000
     -0.000456       0.005324       0.000000
     -0.000234       0.005750       0.000000
     -0.000170       0.006028       0.000000
     -0.000234       0.005750       0.000000
     -0.000201       0.005858       0.000000
     -0.000149       0.006072       0.000000
     -0.000234       0.005750       0.000000
     -0.000456       0.005324       0.000000
     -0.000435       0.005520       0.000000
     -0.000201       0.005858       0.000000
      0.000554       0.005418       0.000000
      0.000201       0.005631       0.000000
      0.000298       0.005880       0.000000
      0.000710       0.005758       0.000000
      0.000201       0.005631       0.000000
     -0.000081       0.005856       0.000000
     -0.000041       0.005996       0.000000
      0.000298       0.005880       0.000000
      0.000710       0.005758       0.000000
      0.000298       0.005880       0.000000
      0.000424       0.006172       0.000000
      0.000928       0.006172       0.000000
      0.000298       0.005880       0.000000
     -0.000041       0.005996       0.000000
      0.000011       0.006172       0.000000
      0.000424       0.006172       0.000000
     -0.000081       0.005856       0.000000
     -0.000183       0.006053       0.000000
     -0.000179       0.006106       0.000000
     -0.000041       0.005996       0.000000
     -0.000183       0.006053       0.000000
     -0.000149       0.006072       0.000000
     -0.000138       0.006121       0.000000
     -0.000179       0.006106       0.000000
     -0.000041       0.005996       0.000000
     -0.000179       0.006106       0.000000
     -0.000175       0.006172       0.000000
      0.000011       0.006172       0.000000
     -0.000179       0.006106       0.000000
     -0.000138       0.006121       0.000000
     -0.000134       0.006172       0.000000
     -0.000175       0.006172       0.000000
     -0.000149       0.006072       0.000000
     -0.000201       0.005858       0.000000
     -0.000191       0.005998       0.000000
     -0.000138       0.006121       0.000000
     -0.000201       0.005858       0.000000
     -0.000435       0.005520       0.000000
     -0.000474       0.005803       0.000000
     -0.000191       0.005998       0.000000
     -0.000138       0.006121       0.000000
     -0.000191       0.005998       0.000000
     -0.000205       0.006172       0.000000
     -0.000134       0.006172       0.000000
     -0.000191       0.005998       0.000000
     -0.000474       0.005803       0.000000
     -0.000571       0.006172       0.000000
     -0.000205       0.006172       0.000000
      0.000354       0.000782       0.000000
      0.000541       0.001267       0.000000
      0.000523       0.001677       0.000000
      0.000214       0.001147       0.000000
      0.000541       0.001267       0.000000
      0.000687       0.001969       0.000000
      0.000873       0.002315       0.000000
      0.000523       0.001677       0.000000
      0.000214       0.001147       0.000000
      0.000523       0.001677       0.000000
      0.000596       0.001687       0.000000
      0.000254       0.001101       0.000000
      0.000523       0.001677       0.000000
      0.000873       0.002315       0.000000
      0.000986       0.002363       0.000000
      0.000596       0.001687       0.000000
      0.000687       0.001969       0.000000
      0.000723       0.003000       0.000000
      0.001064       0.003014       0.000000
      0.000873       0.002315       0.000000
      0.000723       0.003000       0.000000
      0.000715       0.004043       0.000000
      0.000908       0.003711       0.000000
      0.001064       0.003014       0.000000
      0.000873       0.002315       0.000000
      0.001064       0.003014       0.000000
      0.001190       0.003024       0.000000
      0.000986       0.002363       0.000000
      0.001064       0.003014       0.000000
      0.000908       0.003711       0.000000
      0.001022       0.003677       0.000000
      0.001190       0.003024       0.000000
      0.000715       0.004043       0.000000
      0.000589       0.004760       0.000000
      0.000577       0.004345       0.000000
      0.000908       0.003711       0.000000
      0.000589       0.004760       0.000000
      0.000406       0.005265       0.000000
      0.000265       0.004883       0.000000
      0.000577       0.004345       0.000000
      0.000908       0.003711       0.000000
      0.000577       0.004345       0.000000
      0.000662       0.004340       0.000000
      0.001022       0.003677       0.000000
      0.000577       0.004345       0.000000
      0.000265       0.004883       0.000000
      0.000334       0.004927       0.000000
      0.000662       0.004340       0.000000
      0.000254       0.001101       0.000000
      0.000596       0.001687       0.000000
      0.000680       0.001578       0.000000
      0.000298       0.000901       0.000000
      0.000596       0.001687       0.000000
      0.000986       0.002363       0.000000
      0.001097       0.002327       0.000000
      0.000680       0.001578       0.000000
      0.000298       0.000901       0.000000
      0.000680       0.001578       0.000000
      0.000757       0.001451       0.000000
      0.000306       0.000642       0.000000
      0.000680       0.001578       0.000000
      0.001097       0.002327       0.000000
      0.001209       0.002285       0.000000
      0.000757       0.001451       0.000000
      0.000986       0.002363       0.000000
      0.001190       0.003024       0.000000
      0.001305       0.003035       0.000000
      0.001097       0.002327       0.000000
      0.001190       0.003024       0.000000
      0.001022       0.003677       0.000000
      0.001136       0.003735       0.000000
      0.001305       0.003035       0.000000
      0.001097       0.002327       0.000000
      0.001305       0.003035       0.000000
      0.001430       0.003048       0.000000
      0.001209       0.002285       0.000000
      0.001305       0.003035       0.000000
      0.001136       0.003735       0.000000
      0.001252       0.003807       0.000000
      0.001430       0.003048       0.000000
      0.001022       0.003677       0.000000
      0.000662       0.004340       0.000000
      0.000765       0.004465       0.000000
      0.001136       0.003735       0.000000
      0.000662       0.004340       0.000000
      0.000334       0.004927       0.000000
      0.000435       0.005133       0.000000
      0.000765       0.004465       0.000000
      0.001136       0.003735       0.000000
      0.000765       0.004465       0.000000
      0.000868       0.004624       0.000000
      0.001252       0.003807       0.000000
      0.000765       0.004465       0.000000
      0.000435       0.005133       0.000000
      0.000554       0.005418       0.000000
      0.000868       0.004624       0.000000
      0.000306       0.000642       0.000000
      0.000757       0.001451       0.000000
      0.000823       0.001356       0.000000
      0.000248       0.000353       0.000000
      0.000757       0.001451       0.000000
      0.001209       0.002285       0.000000
      0.001315       0.002271       0.000000
      0.000823       0.001356       0.000000
      0.000248       0.000353       0.000000
      0.000823       0.001356       0.000000
      0.000881       0.001313       0.000000
      0.000000       0.000000       0.000000
      0.000823       0.001356       0.000000
      0.001315       0.002271       0.000000
      0.001409       0.002308       0.000000
      0.000881       0.001313       0.000000
      0.001209       0.002285       0.000000
      0.001430       0.003048       0.000000
      0.001557       0.003062       0.000000
      0.001315       0.002271       0.000000
      0.001430       0.003048       0.000000
      0.001252       0.003807       0.000000
      0.001365       0.003856       0.000000
      0.001557       0.003062       0.000000
      0.001315       0.002271       0.000000
      0.001557       0.003062       0.000000
      0.001673       0.003072       0.000000
      0.001409       0.002308       0.000000
      0.001557       0.003062       0.000000
      0.001365       0.003856       0.000000
      0.001471       0.003852       0.000000
      0.001673       0.003072       0.000000
      0.001252       0.003807       0.000000
      0.000868       0.004624       0.000000
      0.000973       0.004777       0.000000
      0.001365       0.003856       0.000000
      0.000868       0.004624       0.000000
      0.000554       0.005418       0.000000
      0.000710       0.005758       0.000000
      0.000973       0.004777       0.000000
      0.001365       0.003856       0.000000
      0.000973       0.004777       0.000000
      0.001093       0.004913       0.000000
      0.001471       0.003852       0.000000
      0.000973       0.004777       0.000000
      0.000710       0.005758       0.000000
      0.000928       0.006172       0.000000
      0.001093       0.004913       0.000000
     -0.000931       0.000730       0.000000
     -0.000638       0.000392       0.000000
     -0.000340       0.000466       0.000000
     -0.000588       0.000946       0.000000
     -0.000638       0.000392       0.000000
     -0.000386       0.000191       0.000000
     -0.000214       0.000162       0.000000
     -0.000340       0.000466       0.000000
     -0.000588       0.000946       0.000000
     -0.000340       0.000466       0.000000
     -0.000198       0.000451       0.000000
     -0.000429       0.000928       0.000000
     -0.000340       0.000466       0.000000
     -0.000214       0.000162       0.000000
     -0.000127       0.000146       0.000000
     -0.000198       0.000451       0.000000
     -0.000386       0.000191       0.000000
     -0.000182       0.000136       0.000000
     -0.000162       0.000117       0.000000
     -0.000214       0.000162       0.000000
     -0.000182       0.000136       0.000000
     -0.000006       0.000220       0.000000
     -0.000114       0.000320       0.000000
     -0.000162       0.000117       0.000000
     -0.000214       0.000162       0.000000
     -0.000162       0.000117       0.000000
     -0.000149       0.000126       0.000000
     -0.000127       0.000146       0.000000
     -0.000162       0.000117       0.000000
     -0.000114       0.000320       0.000000
     -0.000131       0.000364       0.000000
     -0.000149       0.000126       0.000000
     -0.000006       0.000220       0.000000
      0.000171       0.000440       0.000000
      0.000005       0.000700       0.000000
     -0.000114       0.000320       0.000000
      0.000171       0.000440       0.000000
      0.000354       0.000782       0.000000
      0.000214       0.001147       0.000000
      0.000005       0.000700       0.000000
     -0.000114       0.000320       0.000000
      0.000005       0.000700       0.000000
      0.000010       0.000724       0.000000
     -0.000131       0.000364       0.000000
      0.000005       0.000700       0.000000
      0.000214       0.001147       0.000000
      0.000254       0.001101       0.000000
      0.000010       0.000724       0.000000
     -0.000429       0.000928       0.000000
     -0.000198       0.000451       0.000000
     -0.000104       0.000385       0.000000
     -0.000321       0.000814       0.000000
     -0.000198       0.000451       0.000000
     -0.000127       0.000146       0.000000
     -0.000070       0.000123       0.000000
     -0.000104       0.000385       0.000000
     -0.000321       0.000814       0.000000
     -0.000104       0.000385       0.000000
     -0.000038       0.000282       0.000000
     -0.000252       0.000623       0.000000
     -0.000104       0.000385       0.000000
     -0.000070       0.000123       0.000000
     -0.000028       0.000091       0.000000
     -0.000038       0.000282       0.000000
     -0.000127       0.000146       0.000000
     -0.000149       0.000126       0.000000
     -0.000130       0.000122       0.000000
     -0.000070       0.000123       0.000000
     -0.000149       0.000126       0.000000
     -0.000131       0.000364       0.000000
     -0.000117       0.000334       0.000000
     -0.000130       0.000122       0.000000
     -0.000070       0.000123       0.000000
     -0.000130       0.000122       0.000000
     -0.000103       0.000098       0.000000
     -0.000028       0.000091       0.000000
     -0.000130       0.000122       0.000000
     -0.000117       0.000334       0.000000
     -0.000089       0.000250       0.000000
     -0.000103       0.000098       0.000000
     -0.000131       0.000364       0.000000
      0.000010       0.000724       0.000000
      0.000038       0.000614       0.000000
     -0.000117       0.000334       0.000000
      0.000010       0.000724       0.000000
      0.000254       0.001101       0.000000
      0.000298       0.000901       0.000000
      0.000038       0.000614       0.000000
     -0.000117       0.000334       0.000000
      0.000038       0.000614       0.000000
      0.000056       0.000432       0.000000
     -0.000089       0.000250       0.000000
      0.000038       0.000614       0.000000
      0.000298       0.000901       0.000000
      0.000306       0.000642       0.000000
      0.000056       0.000432       0.000000
     -0.000252       0.000623       0.000000
     -0.000038       0.000282       0.000000
     -0.000000       0.000149       0.000000
     -0.000194       0.000349       0.000000
     -0.000038       0.000282       0.000000
     -0.000028       0.000091       0.000000
     -0.000003       0.000051       0.000000
     -0.000000       0.000149       0.000000
     -0.000194       0.000349       0.000000
     -0.000000       0.000149       0.000000
      0.000000       0.000000       0.000000
      0.000000       0.000000       0.000000
     -0.000000       0.000149       0.000000
     -0.000003       0.000051       0.000000
      0.000000       0.000000       0.000000
      0.000000       0.000000       0.000000
     -0.000028       0.000091       0.000000
     -0.000103       0.000098       0.000000
     -0.000063       0.000057       0.000000
     -0.000003       0.000051       0.000000
     -0.000103       0.000098       0.000000
     -0.000089       0.000250       0.000000
     -0.000050       0.000133       0.000000
     -0.000063       0.000057       0.000000
     -0.000003       0.000051       0.000000
     -0.000063       0.000057       0.000000
      0.000000       0.000000       0.000000
      0.000000       0.000000       0.000000
     -0.000063       0.000057       0.000000
     -0.000050       0.000133       0.000000
      0.000000       0.000000       0.000000
      0.000000       0.000000       0.000000
     -0.000089       0.000250       0.000000
      0.000056       0.000432       0.000000
      0.000049       0.000218       0.000000
     -0.000050       0.000133       0.000000
      0.000056       0.000432       0.000000
      0.000306       0.000642       0.000000
      0.000248       0.000353       0.000000
      0.000049       0.000218       0.000000
     -0.000050       0.000133       0.000000
      0.000049       0.000218       0.000000
      0.000000       0.000000       0.000000
      0.000000       0.000000       0.000000
      0.000049       0.000218       0.000000
      0.000248       0.000353       0.000000
      0.000000       0.000000       0.000000
      0.000000       0.000000       0.000000
     -0.000931       0.000730       0.000000
     -0.001254       0.001222       0.000000
     -0.001029       0.001470       0.000000
     -0.000588       0.000946       0.000000
     -0.001254       0.001222       0.000000
     -0.001540       0.001943       0.000000
     -0.001575       0.002143       0.000000
     -0.001029       0.001470       0.000000
     -0.000588       0.000946       0.000000
     -0.001029       0.001470       0.000000
     -0.000894       0.001503       0.000000