# vtk DataFile Version 2.0
time_10.vtk
ASCII
DATASET UNSTRUCTURED_GRID
POINTS   576 float
      0.458579       0.641421       0.000000
      0.497369       0.671659       0.000000
      0.438243       0.730363       0.000000
      0.382149       0.701184       0.000000
      0.497369       0.671659       0.000000
      0.545805       0.692517       0.000000
      0.506084       0.750000       0.000000
      0.438243       0.730363       0.000000
      0.382149       0.701184       0.000000
      0.438243       0.730363       0.000000
      0.380813       0.787383       0.000000
      0.305719       0.760948       0.000000
      0.438243       0.730363       0.000000
      0.506084       0.750000       0.000000
      0.468251       0.804752       0.000000
      0.380813       0.787383       0.000000
      0.545805       0.692517       0.000000
      0.600000       0.700000       0.000000
      0.581017       0.756950       0.000000
      0.506084       0.750000       0.000000
      0.600000       0.700000       0.000000
      0.654195       0.692517       0.000000
      0.656527       0.750000       0.000000
      0.581017       0.756950       0.000000
      0.506084       0.750000       0.000000
      0.581017       0.756950       0.000000
      0.563060       0.810819       0.000000
      0.468251       0.804752       0.000000
      0.581017       0.756950       0.000000
      0.656527       0.750000       0.000000
      0.658747       0.804752       0.000000
      0.563060       0.810819       0.000000
      0.654195       0.692517       0.000000
      0.702631       0.671659       0.000000
      0.725999       0.730363       0.000000
      0.656527       0.750000       0.000000
      0.702631       0.671659       0.000000
      0.741421       0.641421       0.000000
      0.784518       0.701184       0.000000
      0.725999       0.730363       0.000000
      0.656527       0.750000       0.000000
      0.725999       0.730363       0.000000
      0.748697       0.787383       0.000000
      0.658747       0.804752       0.000000
      0.725999       0.730363       0.000000
      0.784518       0.701184       0.000000
      0.827614       0.760948       0.000000
      0.748697       0.787383       0.000000
      0.305719       0.760948       0.000000
      0.380813       0.787383       0.000000
      0.325006       0.842791       0.000000
      0.229289       0.820711       0.000000
      0.380813       0.787383       0.000000
      0.468251       0.804752       0.000000
      0.432173       0.856962       0.000000
      0.325006       0.842791       0.000000
      0.229289       0.820711       0.000000
      0.325006       0.842791       0.000000
      0.270755       0.896655       0.000000
      0.152860       0.880474       0.000000
      0.325006       0.842791       0.000000
      0.432173       0.856962       0.000000
      0.397732       0.906804       0.000000
      0.270755       0.896655       0.000000
      0.468251       0.804752       0.000000
      0.563060       0.810819       0.000000
      0.546050       0.861851       0.000000
      0.432173       0.856962       0.000000
      0.563060       0.810819       0.000000
      0.658747       0.804752       0.000000
      0.660865       0.856962       0.000000
      0.546050       0.861851       0.000000
      0.432173       0.856962       0.000000
      0.546050       0.861851       0.000000
      0.529912       0.910264       0.000000
      0.397732       0.906804       0.000000
      0.546050       0.861851       0.000000
      0.660865       0.856962       0.000000
      0.662887       0.906804       0.000000
      0.529912       0.910264       0.000000
      0.658747       0.804752       0.000000
      0.748697       0.787383       0.000000
      0.770753       0.842791       0.000000
      0.660865       0.856962       0.000000
      0.748697       0.787383       0.000000
      0.827614       0.760948       0.000000
      0.870711       0.820711       0.000000
      0.770753       0.842791       0.000000
      0.660865       0.856962       0.000000
      0.770753       0.842791       0.000000
      0.792195       0.896655       0.000000
      0.662887       0.906804       0.000000
      0.770753       0.842791       0.000000
      0.870711       0.820711       0.000000
      0.913807       0.880474       0.000000
      0.792195       0.896655       0.000000
      0.152860       0.880474       0.000000
      0.270755       0.896655       0.000000
      0.217995       0.949038       0.000000
      0.076430       0.940237       0.000000
      0.270755       0.896655       0.000000
      0.397732       0.906804       0.000000
      0.364819       0.954435       0.000000
      0.217995       0.949038       0.000000
      0.076430       0.940237       0.000000
      0.217995       0.949038       0.000000
      0.166667       1.000000       0.000000
      0.000000       1.000000       0.000000
      0.217995       0.949038       0.000000
      0.364819       0.954435       0.000000
      0.333333       1.000000       0.000000
      0.166667       1.000000       0.000000
      0.397732       0.906804       0.000000
      0.529912       0.910264       0.000000
      0.514582       0.956255       0.000000
      0.364819       0.954435       0.000000
      0.529912       0.910264       0.000000
      0.662887       0.906804       0.000000
      0.664819       0.954435       0.000000
      0.514582       0.956255       0.000000
      0.364819       0.954435       0.000000
      0.514582       0.956255       0.000000
      0.500000       1.000000       0.000000
      0.333333       1.000000       0.000000
      0.514582       0.956255       0.000000
      0.664819       0.954435       0.000000
      0.666667       1.000000       0.000000
      0.500000       1.000000       0.000000
      0.662887       0.906804       0.000000
      0.792195       0.896655       0.000000
      0.813047       0.949038       0.000000
      0.664819       0.954435       0.000000
      0.792195       0.896655       0.000000
      0.913807       0.880474       0.000000
      0.956904       0.940237       0.000000
      0.813047       0.949038       0.000000
      0.664819       0.954435       0.000000
      0.813047       0.949038       0.000000
      0.833333       1.000000       0.000000
      0.666667       1.000000       0.000000
      0.813047       0.949038       0.000000
      0.956904       0.940237       0.000000
      1.000000       1.000000       0.000000
      0.833333       1.000000       0.000000
      0.458579       0.358579       0.000000
      0.428341       0.397369       0.000000
      0.351758       0.356122       0.000000
      0.382149       0.298816       0.000000
      0.428341       0.397369       0.000000
      0.407483       0.445805       0.000000
      0.331305       0.424779       0.000000
      0.351758       0.356122       0.000000
      0.382149       0.298816       0.000000
      0.351758       0.356122       0.000000
      0.277372       0.316058       0.000000
      0.305719       0.239052       0.000000
      0.351758       0.356122       0.000000
      0.331305       0.424779       0.000000
      0.258747       0.404752       0.000000
      0.277372       0.316058       0.000000
      0.407483       0.445805       0.000000
      0.400000       0.500000       0.000000
      0.324066       0.500000       0.000000
      0.331305       0.424779       0.000000
      0.400000       0.500000       0.000000
      0.407483       0.554195       0.000000
      0.331305       0.575221       0.000000
      0.324066       0.500000       0.000000
      0.331305       0.424779       0.000000
      0.324066       0.500000       0.000000
      0.252241       0.500000       0.000000
      0.258747       0.404752       0.000000
      0.324066       0.500000       0.000000
      0.331305       0.575221       0.000000
      0.258747       0.595248       0.000000
      0.252241       0.500000       0.000000
      0.407483       0.554195       0.000000
      0.428341       0.602631       0.000000
      0.351758       0.643878       0.000000
      0.331305       0.575221       0.000000
      0.428341       0.602631       0.000000
      0.458579       0.641421       0.000000
      0.382149       0.701184       0.000000
      0.351758       0.643878       0.000000
      0.331305       0.575221       0.000000
      0.351758       0.643878       0.000000
      0.277372       0.683942       0.000000
      0.258747       0.595248       0.000000
      0.351758       0.643878       0.000000
      0.382149       0.701184       0.000000
      0.305719       0.760948       0.000000
      0.277372       0.683942       0.000000
      0.305719       0.239052       0.000000
      0.277372       0.316058       0.000000
      0.205089       0.277126       0.000000
      0.229289       0.179289       0.000000
      0.277372       0.316058       0.000000
      0.258747       0.404752       0.000000
      0.189557       0.385654       0.000000
      0.205089       0.277126       0.000000
      0.229289       0.179289       0.000000
      0.205089       0.277126       0.000000
      0.134820       0.239280       0.000000
      0.152860       0.119526       0.000000
      0.205089       0.277126       0.000000
      0.189557       0.385654       0.000000
      0.123505       0.367423       0.000000
      0.134820       0.239280       0.000000
      0.258747       0.404752       0.000000
      0.252241       0.500000       0.000000
      0.184198       0.500000       0.000000
      0.189557       0.385654       0.000000
      0.252241       0.500000       0.000000
      0.258747       0.595248       0.000000
      0.189557       0.614346       0.000000
      0.184198       0.500000       0.000000
      0.189557       0.385654       0.000000
      0.184198       0.500000       0.000000
      0.119648       0.500000       0.000000
      0.123505       0.367423       0.000000
[...]
POINT_DATA   576
VECTORS U float 
      0.000062       0.000828       0.000000
      0.000033       0.000895       0.000000
      0.000005       0.000847       0.000000
      0.000044       0.000768       0.000000
      0.000033       0.000895       0.000000
     -0.000001       0.000940       0.000000
     -0.000021       0.000921       0.000000
      0.000005       0.000847       0.000000
      0.000044       0.000768       0.000000
      0.000005       0.000847       0.000000
      0.000012       0.000846       0.000000
      0.000058       0.000784       0.000000
      0.000005       0.000847       0.000000
     -0.000021       0.000921       0.000000
     -0.000022       0.000914       0.000000
      0.000012       0.000846       0.000000
     -0.000001       0.000940       0.000000
     -0.000037       0.000959       0.000000
     -0.000035       0.000963       0.000000
     -0.000021       0.000921       0.000000
     -0.000037       0.000959       0.000000
     -0.000077       0.000949       0.000000
     -0.000048       0.000955       0.000000
     -0.000035       0.000963       0.000000
     -0.000021       0.000921       0.000000
     -0.000035       0.000963       0.000000
     -0.000035       0.000963       0.000000
     -0.000022       0.000914       0.000000
     -0.000035       0.000963       0.000000
     -0.000048       0.000955       0.000000
     -0.000037       0.000961       0.000000
     -0.000035       0.000963       0.000000
     -0.000077       0.000949       0.000000
     -0.000120       0.000910       0.000000
     -0.000072       0.000899       0.000000
     -0.000048       0.000955       0.000000
     -0.000120       0.000910       0.000000
     -0.000164       0.000848       0.000000
     -0.000114       0.000816       0.000000
     -0.000072       0.000899       0.000000
     -0.000048       0.000955       0.000000
     -0.000072       0.000899       0.000000
     -0.000055       0.000905       0.000000
     -0.000037       0.000961       0.000000
     -0.000072       0.000899       0.000000
     -0.000114       0.000816       0.000000
     -0.000096       0.000826       0.000000
     -0.000055       0.000905       0.000000
      0.000058       0.000784       0.000000
      0.000012       0.000846       0.000000
      0.000025       0.000870       0.000000
      0.000077       0.000825       0.000000
      0.000012       0.000846       0.000000
     -0.000022       0.000914       0.000000
     -0.000017       0.000923       0.000000
      0.000025       0.000870       0.000000
      0.000077       0.000825       0.000000
      0.000025       0.000870       0.000000
      0.000041       0.000906       0.000000
      0.000100       0.000877       0.000000
      0.000025       0.000870       0.000000
     -0.000017       0.000923       0.000000
     -0.000010       0.000941       0.000000
      0.000041       0.000906       0.000000
     -0.000022       0.000914       0.000000
     -0.000035       0.000963       0.000000
     -0.000033       0.000967       0.000000
     -0.000017       0.000923       0.000000
     -0.000035       0.000963       0.000000
     -0.000037       0.000961       0.000000
     -0.000032       0.000969       0.000000
     -0.000033       0.000967       0.000000
     -0.000017       0.000923       0.000000
     -0.000033       0.000967       0.000000
     -0.000032       0.000975       0.000000
     -0.000010       0.000941       0.000000
     -0.000033       0.000967       0.000000
     -0.000032       0.000969       0.000000
     -0.000029       0.000979       0.000000
     -0.000032       0.000975       0.000000
     -0.000037       0.000961       0.000000
     -0.000055       0.000905       0.000000
     -0.000046       0.000921       0.000000
     -0.000032       0.000969       0.000000
     -0.000055       0.000905       0.000000
     -0.000096       0.000826       0.000000
     -0.000086       0.000852       0.000000
     -0.000046       0.000921       0.000000
     -0.000032       0.000969       0.000000
     -0.000046       0.000921       0.000000
     -0.000041       0.000942       0.000000
     -0.000029       0.000979       0.000000
     -0.000046       0.000921       0.000000
     -0.000086       0.000852       0.000000
     -0.000084       0.000888       0.000000
     -0.000041       0.000942       0.000000
      0.000100       0.000877       0.000000
      0.000041       0.000906       0.000000
      0.000059       0.000951       0.000000
      0.000127       0.000935       0.000000
      0.000041       0.000906       0.000000
     -0.000010       0.000941       0.000000
     -0.000002       0.000968       0.000000
      0.000059       0.000951       0.000000
      0.000127       0.000935       0.000000
      0.000059       0.000951       0.000000
      0.000081       0.001000       0.000000
      0.000161       0.001000       0.000000
      0.000059       0.000951       0.000000
     -0.000002       0.000968       0.000000
      0.000008       0.001000       0.000000
      0.000081       0.001000       0.000000
     -0.000010       0.000941       0.000000
     -0.000032       0.000975       0.000000
     -0.000030       0.000987       0.000000
     -0.000002       0.000968       0.000000
     -0.000032       0.000975       0.000000
     -0.000029       0.000979       0.000000
     -0.000027       0.000989       0.000000
     -0.000030       0.000987       0.000000
     -0.000002       0.000968       0.000000
     -0.000030       0.000987       0.000000
     -0.000029       0.001000       0.000000
      0.000008       0.001000       0.000000
     -0.000030       0.000987       0.000000
     -0.000027       0.000989       0.000000
     -0.000027       0.001000       0.000000
     -0.000029       0.001000       0.000000
     -0.000029       0.000979       0.000000
     -0.000041       0.000942       0.000000
     -0.000041       0.000968       0.000000
     -0.000027       0.000989       0.000000
     -0.000041       0.000942       0.000000
     -0.000084       0.000888       0.000000
     -0.000091       0.000937       0.000000
     -0.000041       0.000968       0.000000
     -0.000027       0.000989       0.000000
     -0.000041       0.000968       0.000000
     -0.000044       0.001000       0.000000
     -0.000027       0.001000       0.000000
     -0.000041       0.000968       0.000000
     -0.000091       0.000937       0.000000
     -0.000107       0.001000       0.000000
     -0.000044       0.001000       0.000000
      0.000053       0.000150       0.000000
      0.000080       0.000237       0.000000
      0.000082       0.000294       0.000000
      0.000033       0.000208       0.000000
      0.000080       0.000237       0.000000
      0.000102       0.000352       0.000000
      0.000131       0.000391       0.000000
      0.000082       0.000294       0.000000
      0.000033       0.000208       0.000000
      0.000082       0.000294       0.000000
      0.000094       0.000286       0.000000
      0.000042       0.000193       0.000000
      0.000082       0.000294       0.000000
      0.000131       0.000391       0.000000
      0.000149       0.000389       0.000000
      0.000094       0.000286       0.000000
      0.000102       0.000352       0.000000
      0.000113       0.000486       0.000000
      0.000155       0.000488       0.000000
      0.000131       0.000391       0.000000
      0.000113       0.000486       0.000000
      0.000107       0.000621       0.000000
      0.000137       0.000586       0.000000
      0.000155       0.000488       0.000000
      0.000131       0.000391       0.000000
      0.000155       0.000488       0.000000
      0.000176       0.000490       0.000000
      0.000149       0.000389       0.000000
      0.000155       0.000488       0.000000
      0.000137       0.000586       0.000000
      0.000156       0.000591       0.000000
      0.000176       0.000490       0.000000
      0.000107       0.000621       0.000000
      0.000088       0.000738       0.000000
      0.000092       0.000681       0.000000
      0.000137       0.000586       0.000000
      0.000088       0.000738       0.000000
      0.000062       0.000828       0.000000
      0.000044       0.000768       0.000000
      0.000092       0.000681       0.000000
      0.000137       0.000586       0.000000
      0.000092       0.000681       0.000000
      0.000107       0.000692       0.000000
      0.000156       0.000591       0.000000
      0.000092       0.000681       0.000000
      0.000044       0.000768       0.000000
      0.000058       0.000784       0.000000
      0.000107       0.000692       0.000000
      0.000042       0.000193       0.000000
      0.000094       0.000286       0.000000
      0.000108       0.000262       0.000000
      0.000050       0.000155       0.000000
      0.000094       0.000286       0.000000
      0.000149       0.000389       0.000000
      0.000167       0.000379       0.000000
      0.000108       0.000262       0.000000
      0.000050       0.000155       0.000000
      0.000108       0.000262       0.000000
      0.000121       0.000237       0.000000
      0.000053       0.000108       0.000000
      0.000108       0.000262       0.000000
      0.000167       0.000379       0.000000
      0.000186       0.000370       0.000000
      0.000121       0.000237       0.000000
      0.000149       0.000389       0.000000
      0.000176       0.000490       0.000000
      0.000196       0.000493       0.000000
      0.000167       0.000379       0.000000
      0.000176       0.000490       0.000000
      0.000156       0.000591       0.000000
      0.000175       0.000605       0.000000
      0.000196       0.000493       0.000000
      0.000167       0.000379       0.000000
      0.000196       0.000493       0.000000
      0.000217       0.000495       0.000000
      0.000186       0.000370       0.000000
      0.000196       0.000493       0.000000
      0.000175       0.000605       0.000000
      0.000195       0.000620       0.000000
      0.000217       0.000495       0.000000
      0.000156       0.000591       0.000000
      0.000107       0.000692       0.000000
      0.000125       0.000719       0.000000
      0.000175       0.000605       0.000000
      0.000107       0.000692       0.000000
      0.000058       0.000784       0.000000
      0.000077       0.000825       0.000000
      0.000125       0.000719       0.000000
      0.000175       0.000605       0.000000
      0.000125       0.000719       0.000000
      0.000143       0.000750       0.000000
      0.000195       0.000620       0.000000
      0.000125       0.000719       0.000000
      0.000077       0.000825       0.000000
      0.000100       0.000877       0.000000
      0.000143       0.000750       0.000000
      0.000053       0.000108       0.000000
      0.000121       0.000237       0.000000
      0.000133       0.000218       0.000000
      0.000043       0.000059       0.000000
      0.000121       0.000237       0.000000
      0.000186       0.000370       0.000000
      0.000204       0.000365       0.000000
      0.000133       0.000218       0.000000
      0.000043       0.000059       0.000000
      0.000133       0.000218       0.000000
      0.000143       0.000208       0.000000
      0.000000       0.000000       0.000000
      0.000133       0.000218       0.000000
      0.000204       0.000365       0.000000
      0.000221       0.000368       0.000000
      0.000143       0.000208       0.000000
      0.000186       0.000370       0.000000
      0.000217       0.000495       0.000000
      0.000239       0.000498       0.000000
      0.000204       0.000365       0.000000
      0.000217       0.000495       0.000000
      0.000195       0.000620       0.000000
      0.000214       0.000632       0.000000
      0.000239       0.000498       0.000000
      0.000204       0.000365       0.000000
      0.000239       0.000498       0.000000
      0.000259       0.000500       0.000000
      0.000221       0.000368       0.000000
      0.000239       0.000498       0.000000
      0.000214       0.000632       0.000000
      0.000233       0.000635       0.000000
      0.000259       0.000500       0.000000
      0.000195       0.000620       0.000000
      0.000143       0.000750       0.000000
      0.000162       0.000780       0.000000
      0.000214       0.000632       0.000000
      0.000143       0.000750       0.000000
      0.000100       0.000877       0.000000
      0.000127       0.000935       0.000000
      0.000162       0.000780       0.000000
      0.000214       0.000632       0.000000
      0.000162       0.000780       0.000000
      0.000183       0.000805       0.000000
      0.000233       0.000635       0.000000
      0.000162       0.000780       0.000000
      0.000127       0.000935       0.000000
      0.000161       0.001000       0.000000
      0.000183       0.000805       0.000000
     -0.000154       0.000141       0.000000
     -0.000108       0.000078       0.000000
     -0.000059       0.000091       0.000000
     -0.000101       0.000175       0.000000
     -0.000108       0.000078       0.000000
     -0.000067       0.000040       0.000000
     -0.000037       0.000035       0.000000
     -0.000059       0.000091       0.000000
     -0.000101       0.000175       0.000000
     -0.000059       0.000091       0.000000
     -0.000036       0.000086       0.000000
     -0.000077       0.000167       0.000000
     -0.000059       0.000091       0.000000
     -0.000037       0.000035       0.000000
     -0.000023       0.000031       0.000000
     -0.000036       0.000086       0.000000
     -0.000067       0.000040       0.000000
     -0.000033       0.000029       0.000000
     -0.000030       0.000026       0.000000
     -0.000037       0.000035       0.000000
     -0.000033       0.000029       0.000000
     -0.000003       0.000045       0.000000
     -0.000022       0.000064       0.000000
     -0.000030       0.000026       0.000000
     -0.000037       0.000035       0.000000
     -0.000030       0.000026       0.000000
     -0.000027       0.000027       0.000000
     -0.000023       0.000031       0.000000
     -0.000030       0.000026       0.000000
     -0.000022       0.000064       0.000000
     -0.000024       0.000070       0.000000
     -0.000027       0.000027       0.000000
     -0.000003       0.000045       0.000000
      0.000025       0.000086       0.000000
     -0.000002       0.000132       0.000000
     -0.000022       0.000064       0.000000
      0.000025       0.000086       0.000000
      0.000053       0.000150       0.000000
      0.000033       0.000208       0.000000
     -0.000002       0.000132       0.000000
     -0.000022       0.000064       0.000000
     -0.000002       0.000132       0.000000
      0.000001       0.000133       0.000000
     -0.000024       0.000070       0.000000
     -0.000002       0.000132       0.000000
      0.000033       0.000208       0.000000
      0.000042       0.000193       0.000000
      0.000001       0.000133       0.000000
     -0.000077       0.000167       0.000000
     -0.000036       0.000086       0.000000
     -0.000021       0.000072       0.000000
     -0.000060       0.000143       0.000000
     -0.000036       0.000086       0.000000
     -0.000023       0.000031       0.000000
     -0.000013       0.000026       0.000000
     -0.000021       0.000072       0.000000
     -0.000060       0.000143       0.000000
     -0.000021       0.000072       0.000000
     -0.000009       0.000052       0.000000
     -0.000048       0.000108       0.000000
     -0.000021       0.000072       0.000000
     -0.000013       0.000026       0.000000
     -0.000006       0.000019       0.000000
     -0.000009       0.000052       0.000000
     -0.000023       0.000031       0.000000
     -0.000027       0.000027       0.000000
     -0.000024       0.000025       0.000000
     -0.000013       0.000026       0.000000
     -0.000027       0.000027       0.000000
     -0.000024       0.000070       0.000000
     -0.000021       0.000063       0.000000
     -0.000024       0.000025       0.000000
     -0.000013       0.000026       0.000000
     -0.000024       0.000025       0.000000
     -0.000019       0.000020       0.000000
     -0.000006       0.000019       0.000000
     -0.000024       0.000025       0.000000
     -0.000021       0.000063       0.000000
     -0.000015       0.000047       0.000000
     -0.000019       0.000020       0.000000
     -0.000024       0.000070       0.000000
      0.000001       0.000133       0.000000
      0.000007       0.000110       0.000000
     -0.000021       0.000063       0.000000
      0.000001       0.000133       0.000000
      0.000042       0.000193       0.000000
      0.000050       0.000155       0.000000
      0.000007       0.000110       0.000000
     -0.000021       0.000063       0.000000
      0.000007       0.000110       0.000000
      0.000011       0.000077       0.000000
     -0.000015       0.000047       0.000000
      0.000007       0.000110       0.000000
      0.000050       0.000155       0.000000
      0.000053       0.000108       0.000000
      0.000011       0.000077       0.000000
     -0.000048       0.000108       0.000000
     -0.000009       0.000052       0.000000
     -0.000002       0.000027       0.000000
     -0.000036       0.000061       0.000000
     -0.000009       0.000052       0.000000
     -0.000006       0.000019       0.000000
     -0.000001       0.000010       0.000000
     -0.000002       0.000027       0.000000
     -0.000036       0.000061       0.000000
     -0.000002       0.000027       0.000000
      0.000000       0.000000       0.000000
      0.000000       0.000000       0.000000
     -0.000002       0.000027       0.000000
     -0.000001       0.000010       0.000000
      0.000000       0.000000       0.000000
      0.000000       0.000000       0.000000
     -0.000006       0.000019       0.000000
     -0.000019       0.000020       0.000000
     -0.000011       0.000011       0.000000
     -0.000001       0.000010       0.000000
     -0.000019       0.000020       0.000000
     -0.000015       0.000047       0.000000
     -0.000008       0.000025       0.000000
     -0.000011       0.000011       0.000000
     -0.000001       0.000010       0.000000
     -0.000011       0.000011       0.000000
      0.000000       0.000000       0.000000
      0.000000       0.000000       0.000000
     -0.000011       0.000011       0.000000
     -0.000008       0.000025       0.000000
      0.000000       0.000000       0.000000
      0.000000       0.000000       0.000000
     -0.000015       0.000047       0.000000
      0.000011       0.000077       0.000000
      0.000010       0.000039       0.000000
     -0.000008       0.000025       0.000000
      0.000011       0.000077       0.000000
      0.000053       0.000108       0.000000
      0.000043       0.000059       0.000000
      0.000010       0.000039       0.000000
     -0.000008       0.000025       0.000000
      0.000010       0.000039       0.000000
      0.000000       0.000000       0.000000
      0.000000       0.000000       0.000000
      0.000010       0.000039       0.000000
      0.000043       0.000059       0.000000
      0.000000       0.000000       0.000000
      0.000000       0.000000       0.000000
     -0.000154       0.000141       0.000000
     -0.000201       0.000231       0.000000
     -0.000171       0.000266       0.000000
     -0.000101       0.000175       0.000000
     -0.000201       0.000231       0.000000
     -0.000243       0.000353       0.000000
     -0.000250       0.000375       0.000000
     -0.000171       0.000266       0.000000
     -0.000101       0.000175       0.000000
     -0.000171       0.000266       0.000000
     -0.000152       0.000264       0.000000