# vtk DataFile Version 2.0
time_10.vtk
ASCII
DATASET UNSTRUCTURED_GRID
POINTS   576 float
      0.458579       0.641421       0.000000
      0.497369       0.671659       0.000000
      0.438243       0.730363       0.000000
      0.382149       0.701184       0.000000
      0.497369       0.671659       0.000000
      0.545805       0.692517       0.000000
      0.506084       0.750000       0.000000
      0.438243       0.730363       0.000000
      0.382149       0.701184       0.000000
      0.438243       0.730363       0.000000
      0.380813       0.787383       0.000000
      0.305719       0.760948       0.000000
      0.438243       0.730363       0.000000
      0.506084       0.750000       0.000000
      0.468251       0.804752       0.000000
      0.380813       0.787383       0.000000
      0.545805       0.692517       0.000000
      0.600000       0.700000       0.000000
      0.581017       0.756950       0.000000
      0.506084       0.750000       0.000000
      0.600000       0.700000       0.000000
      0.654195       0.692517       0.000000
      0.656527       0.750000       0.000000
      0.581017       0.756950       0.000000
      0.506084       0.750000       0.000000
      0.581017       0.756950       0.000000
      0.563060       0.810819       0.000000
      0.468251       0.804752       0.000000
      0.581017       0.756950       0.000000
      0.656527       0.750000       0.000000
      0.658747       0.804752       0.000000
      0.563060       0.810819       0.000000
      0.654195       0.692517       0.000000
      0.702631       0.671659       0.000000
      0.725999       0.730363       0.000000
      0.656527       0.750000       0.000000
      0.702631       0.671659       0.000000
      0.741421       0.641421       0.000000
      0.784518       0.701184       0.000000
      0.725999       0.730363       0.000000
      0.656527       0.750000       0.000000
      0.725999       0.730363       0.000000
      0.748697       0.787383       0.000000
      0.658747       0.804752       0.000000
      0.725999       0.730363       0.000000
      0.784518       0.701184       0.000000
      0.827614       0.760948       0.000000
      0.748697       0.787383       0.000000
      0.305719       0.760948       0.000000
      0.380813       0.787383       0.000000
      0.325006       0.842791       0.000000
      0.229289       0.820711       0.000000
      0.380813       0.787383       0.000000
      0.468251       0.804752       0.000000
      0.432173       0.856962       0.000000
      0.325006       0.842791       0.000000
      0.229289       0.820711       0.000000
      0.325006       0.842791       0.000000
      0.270755       0.896655       0.000000
      0.152860       0.880474       0.000000
      0.325006       0.842791       0.000000
      0.432173       0.856962       0.000000
      0.397732       0.906804       0.000000
      0.270755       0.896655       0.000000
      0.468251       0.804752       0.000000
      0.563060       0.810819       0.000000
      0.546050       0.861851       0.000000
      0.432173       0.856962       0.000000
      0.563060       0.810819       0.000000
      0.658747       0.804752       0.000000
      0.660865       0.856962       0.000000
      0.546050       0.861851       0.000000
      0.432173       0.856962       0.000000
      0.546050       0.861851       0.000000
      0.529912       0.910264       0.000000
      0.397732       0.906804       0.000000
      0.546050       0.861851       0.000000
      0.660865       0.856962       0.000000
      0.662887       0.906804       0.000000
      0.529912       0.910264       0.000000
      0.658747       0.804752       0.000000
      0.748697       0.787383       0.000000
      0.770753       0.842791       0.000000
      0.660865       0.856962       0.000000
      0.748697       0.787383       0.000000
      0.827614       0.760948       0.000000
      0.870711       0.820711       0.000000
      0.770753       0.842791       0.000000
      0.660865       0.856962       0.000000
      0.770753       0.842791       0.000000
      0.792195       0.896655       0.000000
      0.662887       0.906804       0.000000
      0.770753       0.842791       0.000000
      0.870711       0.820711       0.000000
      0.913807       0.880474       0.000000
      0.792195       0.896655       0.000000
      0.152860       0.880474       0.000000
      0.270755       0.896655       0.000000
      0.217995       0.949038       0.000000
      0.076430       0.940237       0.000000
      0.270755       0.896655       0.000000
      0.397732       0.906804       0.000000
      0.364819       0.954435       0.000000
      0.217995       0.949038       0.000000
      0.076430       0.940237       0.000000
      0.217995       0.949038       0.000000
      0.166667       1.000000       0.000000
      0.000000       1.000000       0.000000
      0.217995       0.949038       0.000000
      0.364819       0.954435       0.000000
      0.333333       1.000000       0.000000
      0.166667       1.000000       0.000000
      0.397732       0.906804       0.000000
      0.529912       0.910264       0.000000
      0.514582       0.956255       0.000000
      0.364819       0.954435       0.000000
      0.529912       0.910264       0.000000
      0.662887       0.906804       0.000000
      0.664819       0.954435       0.000000
      0.514582       0.956255       0.000000
      0.364819       0.954435       0.000000
      0.514582       0.956255       0.000000
      0.500000       1.000000       0.000000
      0.333333       1.000000       0.000000
      0.514582       0.956255       0.000000
      0.664819       0.954435       0.000000
      0.666667       1.000000       0.000000
      0.500000       1.000000       0.000000
      0.662887       0.906804       0.000000
      0.792195       0.896655       0.000000
      0.813047       0.949038       0.000000
      0.664819       0.954435       0.000000
      0.792195       0.896655       0.000000
      0.913807       0.880474       0.000000
      0.956904       0.940237       0.000000
      0.813047       0.949038       0.000000
      0.664819       0.954435       0.000000
      0.813047       0.949038       0.000000
      0.833333       1.000000       0.000000
      0.666667       1.000000       0.000000
      0.813047       0.949038       0.000000
      0.956904       0.940237       0.000000
      1.000000       1.000000       0.000000
      0.833333       1.000000       0.000000
      0.458579       0.358579       0.000000
      0.428341       0.397369       0.000000
      0.351758       0.356122       0.000000
      0.382149       0.298816       0.000000
      0.428341       0.397369       0.000000
      0.407483       0.445805       0.000000
      0.331305       0.424779       0.000000
      0.351758       0.356122       0.000000
      0.382149       0.298816       0.000000
      0.351758       0.356122       0.000000
      0.277372       0.316058       0.000000
      0.305719       0.239052       0.000000
      0.351758       0.356122       0.000000
      0.331305       0.424779       0.000000
      0.258747       0.404752       0.000000
      0.277372       0.316058       0.000000
      0.407483       0.445805       0.000000
      0.400000       0.500000       0.000000
      0.324066       0.500000       0.000000
      0.331305       0.424779       0.000000
      0.400000       0.500000       0.000000
      0.407483       0.554195       0.000000
      0.331305       0.575221       0.000000
      0.324066       0.500000       0.000000
      0.331305       0.424779       0.000000
      0.324066       0.500000       0.000000
      0.252241       0.500000       0.000000
      0.258747       0.404752       0.000000
      0.324066       0.500000       0.000000
      0.331305       0.575221       0.000000
      0.258747       0.595248       0.000000
      0.252241       0.500000       0.000000
      0.407483       0.554195       0.000000
      0.428341       0.602631       0.000000
      0.351758       0.643878       0.000000
      0.331305       0.575221       0.000000
      0.428341       0.602631       0.000000
      0.458579       0.641421       0.000000
      0.382149       0.701184       0.000000
      0.351758       0.643878       0.000000
      0.331305       0.575221       0.000000
      0.351758       0.643878       0.000000
      0.277372       0.683942       0.000000
      0.258747       0.595248       0.000000
      0.351758       0.643878       0.000000
      0.382149       0.701184       0.000000
      0.305719       0.760948       0.000000
      0.277372       0.683942       0.000000
      0.305719       0.239052       0.000000
      0.277372       0.316058       0.000000
      0.205089       0.277126       0.000000
      0.229289       0.179289       0.000000
      0.277372       0.316058       0.000000
      0.258747       0.404752       0.000000
      0.189557       0.385654       0.000000
      0.205089       0.277126       0.000000
      0.229289       0.179289       0.000000
      0.205089       0.277126       0.000000
      0.134820       0.239280       0.000000
      0.152860       0.119526       0.000000
      0.205089       0.277126       0.000000
      0.189557       0.385654       0.000000
      0.123505       0.367423       0.000000
      0.134820       0.239280       0.000000
      0.258747       0.404752       0.000000
      0.252241       0.500000       0.000000
      0.184198       0.500000       0.000000
      0.189557       0.385654       0.000000
      0.252241       0.500000       0.000000
      0.258747       0.595248       0.000000
      0.189557       0.614346       0.000000
      0.184198       0.500000       0.000000
      0.189557       0.385654       0.000000
      0.184198       0.500000       0.000000
      0.119648       0.500000       0.000000
      0.123505       0.367423       0.000000
[...]
POINT_DATA   576
VECTORS U float 
      0.000422       0.005479       0.000000
      0.000217       0.005856       0.000000
      0.000037       0.005569       0.000000
      0.000274       0.005083       0.000000
      0.000217       0.005856       0.000000
      0.000004       0.006108       0.000000
     -0.000119       0.005998       0.000000
      0.000037       0.005569       0.000000
      0.000274       0.005083       0.000000
      0.000037       0.005569       0.000000
      0.000059       0.005536       0.000000
      0.000342       0.005122       0.000000
      0.000037       0.005569       0.000000
     -0.000119       0.005998       0.000000
     -0.000136       0.005950       0.000000
      0.000059       0.005536       0.000000
      0.000004       0.006108       0.000000
     -0.000214       0.006211       0.000000
     -0.000201       0.006238       0.000000
     -0.000119       0.005998       0.000000
     -0.000214       0.006211       0.000000
     -0.000453       0.006159       0.000000
     -0.000281       0.006198       0.000000
     -0.000201       0.006238       0.000000
     -0.000119       0.005998       0.000000
     -0.000201       0.006238       0.000000
     -0.000201       0.006233       0.000000
     -0.000136       0.005950       0.000000
     -0.000201       0.006238       0.000000
     -0.000281       0.006198       0.000000
     -0.000211       0.006224       0.000000
     -0.000201       0.006233       0.000000
     -0.000453       0.006159       0.000000
     -0.000725       0.005952       0.000000
     -0.000427       0.005882       0.000000
     -0.000281       0.006198       0.000000
     -0.000725       0.005952       0.000000
     -0.001025       0.005607       0.000000
     -0.000683       0.005391       0.000000
     -0.000427       0.005882       0.000000
     -0.000281       0.006198       0.000000
     -0.000427       0.005882       0.000000
     -0.000304       0.005902       0.000000
     -0.000211       0.006224       0.000000
     -0.000427       0.005882       0.000000
     -0.000683       0.005391       0.000000
     -0.000541       0.005413       0.000000
     -0.000304       0.005902       0.000000
      0.000342       0.005122       0.000000
      0.000059       0.005536       0.000000
      0.000123       0.005648       0.000000
      0.000445       0.005330       0.000000
      0.000059       0.005536       0.000000
     -0.000136       0.005950       0.000000
     -0.000117       0.005984       0.000000
      0.000123       0.005648       0.000000
      0.000445       0.005330       0.000000
      0.000123       0.005648       0.000000
      0.000202       0.005845       0.000000
      0.000567       0.005621       0.000000
      0.000123       0.005648       0.000000
     -0.000117       0.005984       0.000000
     -0.000086       0.006080       0.000000
      0.000202       0.005845       0.000000
     -0.000136       0.005950       0.000000
     -0.000201       0.006233       0.000000
     -0.000195       0.006247       0.000000
     -0.000117       0.005984       0.000000
     -0.000201       0.006233       0.000000
     -0.000211       0.006224       0.000000
     -0.000174       0.006258       0.000000
     -0.000195       0.006247       0.000000
     -0.000117       0.005984       0.000000
     -0.000195       0.006247       0.000000
     -0.000189       0.006283       0.000000
     -0.000086       0.006080       0.000000
     -0.000195       0.006247       0.000000
     -0.000174       0.006258       0.000000
     -0.000152       0.006302       0.000000
     -0.000189       0.006283       0.000000
     -0.000211       0.006224       0.000000
     -0.000304       0.005902       0.000000
     -0.000238       0.005973       0.000000
     -0.000174       0.006258       0.000000
     -0.000304       0.005902       0.000000
     -0.000541       0.005413       0.000000
     -0.000464       0.005531       0.000000
     -0.000238       0.005973       0.000000
     -0.000174       0.006258       0.000000
     -0.000238       0.005973       0.000000
     -0.000202       0.006081       0.000000
     -0.000152       0.006302       0.000000
     -0.000238       0.005973       0.000000
     -0.000464       0.005531       0.000000
     -0.000442       0.005731       0.000000
     -0.000202       0.006081       0.000000
      0.000567       0.005621       0.000000
      0.000202       0.005845       0.000000
      0.000301       0.006101       0.000000
      0.000728       0.005972       0.000000
      0.000202       0.005845       0.000000
     -0.000086       0.006080       0.000000
     -0.000047       0.006221       0.000000
      0.000301       0.006101       0.000000
      0.000728       0.005972       0.000000
      0.000301       0.006101       0.000000
      0.000430       0.006402       0.000000
      0.000953       0.006402       0.000000
      0.000301       0.006101       0.000000
     -0.000047       0.006221       0.000000
      0.000006       0.006402       0.000000
      0.000430       0.006402       0.000000
     -0.000086       0.006080       0.000000
     -0.000189       0.006283       0.000000
     -0.000185       0.006335       0.000000
     -0.000047       0.006221       0.000000
     -0.000189       0.006283       0.000000
     -0.000152       0.006302       0.000000
     -0.000140       0.006351       0.000000
     -0.000185       0.006335       0.000000
     -0.000047       0.006221       0.000000
     -0.000185       0.006335       0.000000
     -0.000182       0.006402       0.000000
      0.000006       0.006402       0.000000
     -0.000185       0.006335       0.000000
     -0.000140       0.006351       0.000000
     -0.000136       0.006402       0.000000
     -0.000182       0.006402       0.000000
     -0.000152       0.006302       0.000000
     -0.000202       0.006081       0.000000
     -0.000192       0.006224       0.000000
     -0.000140       0.006351       0.000000
     -0.000202       0.006081       0.000000
     -0.000442       0.005731       0.000000
     -0.000482       0.006022       0.000000
     -0.000192       0.006224       0.000000
     -0.000140       0.006351       0.000000
     -0.000192       0.006224       0.000000
     -0.000206       0.006402       0.000000
     -0.000136       0.006402       0.000000
     -0.000192       0.006224       0.000000
     -0.000482       0.006022       0.000000
     -0.000582       0.006402       0.000000
     -0.000206       0.006402       0.000000
      0.000370       0.000796       0.000000
      0.000566       0.001291       0.000000
      0.000543       0.001722       0.000000
      0.000222       0.001174       0.000000
      0.000566       0.001291       0.000000
      0.000720       0.002008       0.000000
      0.000910       0.002386       0.000000
      0.000543       0.001722       0.000000
      0.000222       0.001174       0.000000
      0.000543       0.001722       0.000000
      0.000619       0.001740       0.000000
      0.000262       0.001131       0.000000
      0.000543       0.001722       0.000000
      0.000910       0.002386       0.000000
      0.001028       0.002446       0.000000
      0.000619       0.001740       0.000000
      0.000720       0.002008       0.000000
      0.000749       0.003111       0.000000
      0.001117       0.003127       0.000000
      0.000910       0.002386       0.000000
      0.000749       0.003111       0.000000
      0.000748       0.004229       0.000000
      0.000947       0.003865       0.000000
      0.001117       0.003127       0.000000
      0.000910       0.002386       0.000000
      0.001117       0.003127       0.000000
      0.001247       0.003137       0.000000
      0.001028       0.002446       0.000000
      0.001117       0.003127       0.000000
      0.000947       0.003865       0.000000
      0.001066       0.003820       0.000000
      0.001247       0.003137       0.000000
      0.000748       0.004229       0.000000
      0.000615       0.004963       0.000000
      0.000598       0.004526       0.000000
      0.000947       0.003865       0.000000
      0.000615       0.004963       0.000000
      0.000422       0.005479       0.000000
      0.000274       0.005083       0.000000
      0.000598       0.004526       0.000000
      0.000947       0.003865       0.000000
      0.000598       0.004526       0.000000
      0.000685       0.004512       0.000000
      0.001066       0.003820       0.000000
      0.000598       0.004526       0.000000
      0.000274       0.005083       0.000000
      0.000342       0.005122       0.000000
      0.000685       0.004512       0.000000
      0.000262       0.001131       0.000000
      0.000619       0.001740       0.000000
      0.000706       0.001632       0.000000
      0.000307       0.000929       0.000000
      0.000619       0.001740       0.000000
      0.001028       0.002446       0.000000
      0.001144       0.002413       0.000000
      0.000706       0.001632       0.000000
      0.000307       0.000929       0.000000
      0.000706       0.001632       0.000000
      0.000785       0.001504       0.000000
      0.000315       0.000663       0.000000
      0.000706       0.001632       0.000000
      0.001144       0.002413       0.000000
      0.001260       0.002370       0.000000
      0.000785       0.001504       0.000000
      0.001028       0.002446       0.000000
      0.001247       0.003137       0.000000
      0.001365       0.003148       0.000000
      0.001144       0.002413       0.000000
      0.001247       0.003137       0.000000
      0.001066       0.003820       0.000000
      0.001184       0.003875       0.000000
      0.001365       0.003148       0.000000
      0.001144       0.002413       0.000000
      0.001365       0.003148       0.000000
      0.001494       0.003161       0.000000
      0.001260       0.002370       0.000000
      0.001365       0.003148       0.000000
      0.001184       0.003875       0.000000
      0.001304       0.003948       0.000000
      0.001494       0.003161       0.000000
      0.001066       0.003820       0.000000
      0.000685       0.004512       0.000000
      0.000791       0.004636       0.000000
      0.001184       0.003875       0.000000
      0.000685       0.004512       0.000000
      0.000342       0.005122       0.000000
      0.000445       0.005330       0.000000
      0.000791       0.004636       0.000000
      0.001184       0.003875       0.000000
      0.000791       0.004636       0.000000
      0.000897       0.004797       0.000000
      0.001304       0.003948       0.000000
      0.000791       0.004636       0.000000
      0.000445       0.005330       0.000000
      0.000567       0.005621       0.000000
      0.000897       0.004797       0.000000
      0.000315       0.000663       0.000000
      0.000785       0.001504       0.000000
      0.000853       0.001408       0.000000
      0.000255       0.000365       0.000000
      0.000785       0.001504       0.000000
      0.001260       0.002370       0.000000
      0.001370       0.002357       0.000000
      0.000853       0.001408       0.000000
      0.000255       0.000365       0.000000
      0.000853       0.001408       0.000000
      0.000913       0.001364       0.000000
      0.000000       0.000000       0.000000
      0.000853       0.001408       0.000000
      0.001370       0.002357       0.000000
      0.001466       0.002398       0.000000
      0.000913       0.001364       0.000000
      0.001260       0.002370       0.000000
      0.001494       0.003161       0.000000
      0.001624       0.003175       0.000000
      0.001370       0.002357       0.000000
      0.001494       0.003161       0.000000
      0.001304       0.003948       0.000000
      0.001420       0.003996       0.000000
      0.001624       0.003175       0.000000
      0.001370       0.002357       0.000000
      0.001624       0.003175       0.000000
      0.001743       0.003185       0.000000
      0.001466       0.002398       0.000000
      0.001624       0.003175       0.000000
      0.001420       0.003996       0.000000
      0.001529       0.003988       0.000000
      0.001743       0.003185       0.000000
      0.001304       0.003948       0.000000
      0.000897       0.004797       0.000000
      0.001005       0.004952       0.000000
      0.001420       0.003996       0.000000
      0.000897       0.004797       0.000000
      0.000567       0.005621       0.000000
      0.000728       0.005972       0.000000
      0.001005       0.004952       0.000000
      0.001420       0.003996       0.000000
      0.001005       0.004952       0.000000
      0.001128       0.005090       0.000000
      0.001529       0.003988       0.000000
      0.001005       0.004952       0.000000
      0.000728       0.005972       0.000000
      0.000953       0.006402       0.000000
      0.001128       0.005090       0.000000
     -0.000963       0.000739       0.000000
     -0.000658       0.000395       0.000000
     -0.000350       0.000472       0.000000
     -0.000605       0.000964       0.000000
     -0.000658       0.000395       0.000000
     -0.000397       0.000192       0.000000
     -0.000220       0.000162       0.000000
     -0.000350       0.000472       0.000000
     -0.000605       0.000964       0.000000
     -0.000350       0.000472       0.000000
     -0.000202       0.000459       0.000000
     -0.000438       0.000950       0.000000
     -0.000350       0.000472       0.000000
     -0.000220       0.000162       0.000000
     -0.000131       0.000146       0.000000
     -0.000202       0.000459       0.000000
     -0.000397       0.000192       0.000000
     -0.000186       0.000136       0.000000
     -0.000165       0.000116       0.000000
     -0.000220       0.000162       0.000000
     -0.000186       0.000136       0.000000
     -0.000004       0.000222       0.000000
     -0.000115       0.000324       0.000000
     -0.000165       0.000116       0.000000
     -0.000220       0.000162       0.000000
     -0.000165       0.000116       0.000000
     -0.000153       0.000127       0.000000
     -0.000131       0.000146       0.000000
     -0.000165       0.000116       0.000000
     -0.000115       0.000324       0.000000
     -0.000134       0.000370       0.000000
     -0.000153       0.000127       0.000000
     -0.000004       0.000222       0.000000
      0.000179       0.000446       0.000000
      0.000007       0.000714       0.000000
     -0.000115       0.000324       0.000000
      0.000179       0.000446       0.000000
      0.000370       0.000796       0.000000
      0.000222       0.001174       0.000000
      0.000007       0.000714       0.000000
     -0.000115       0.000324       0.000000
      0.000007       0.000714       0.000000
      0.000010       0.000741       0.000000
     -0.000134       0.000370       0.000000
      0.000007       0.000714       0.000000
      0.000222       0.001174       0.000000
      0.000262       0.001131       0.000000
      0.000010       0.000741       0.000000
     -0.000438       0.000950       0.000000
     -0.000202       0.000459       0.000000
     -0.000105       0.000393       0.000000
     -0.000326       0.000836       0.000000
     -0.000202       0.000459       0.000000
     -0.000131       0.000146       0.000000
     -0.000071       0.000123       0.000000
     -0.000105       0.000393       0.000000
     -0.000326       0.000836       0.000000
     -0.000105       0.000393       0.000000
     -0.000037       0.000288       0.000000
     -0.000256       0.000641       0.000000
     -0.000105       0.000393       0.000000
     -0.000071       0.000123       0.000000
     -0.000028       0.000092       0.000000
     -0.000037       0.000288       0.000000
     -0.000131       0.000146       0.000000
     -0.000153       0.000127       0.000000
     -0.000133       0.000123       0.000000
     -0.000071       0.000123       0.000000
     -0.000153       0.000127       0.000000
     -0.000134       0.000370       0.000000
     -0.000120       0.000341       0.000000
     -0.000133       0.000123       0.000000
     -0.000071       0.000123       0.000000
     -0.000133       0.000123       0.000000
     -0.000106       0.000099       0.000000
     -0.000028       0.000092       0.000000
     -0.000133       0.000123       0.000000
     -0.000120       0.000341       0.000000
     -0.000092       0.000256       0.000000
     -0.000106       0.000099       0.000000
     -0.000134       0.000370       0.000000
      0.000010       0.000741       0.000000
      0.000038       0.000629       0.000000
     -0.000120       0.000341       0.000000
      0.000010       0.000741       0.000000
      0.000262       0.001131       0.000000
      0.000307       0.000929       0.000000
      0.000038       0.000629       0.000000
     -0.000120       0.000341       0.000000
      0.000038       0.000629       0.000000
      0.000057       0.000444       0.000000
     -0.000092       0.000256       0.000000
      0.000038       0.000629       0.000000
      0.000307       0.000929       0.000000
      0.000315       0.000663       0.000000
      0.000057       0.000444       0.000000
     -0.000256       0.000641       0.000000
     -0.000037       0.000288       0.000000
      0.000001       0.000153       0.000000
     -0.000198       0.000359       0.000000
     -0.000037       0.000288       0.000000
     -0.000028       0.000092       0.000000
     -0.000003       0.000051       0.000000
      0.000001       0.000153       0.000000
     -0.000198       0.000359       0.000000
      0.000001       0.000153       0.000000
      0.000000       0.000000       0.000000
      0.000000       0.000000       0.000000
      0.000001       0.000153       0.000000
     -0.000003       0.000051       0.000000
      0.000000       0.000000       0.000000
      0.000000       0.000000       0.000000
     -0.000028       0.000092       0.000000
     -0.000106       0.000099       0.000000
     -0.000065       0.000058       0.000000
     -0.000003       0.000051       0.000000
     -0.000106       0.000099       0.000000
     -0.000092       0.000256       0.000000
     -0.000052       0.000136       0.000000
     -0.000065       0.000058       0.000000
     -0.000003       0.000051       0.000000
     -0.000065       0.000058       0.000000
      0.000000       0.000000       0.000000
      0.000000       0.000000       0.000000
     -0.000065       0.000058       0.000000
     -0.000052       0.000136       0.000000
      0.000000       0.000000       0.000000
      0.000000       0.000000       0.000000
     -0.000092       0.000256       0.000000
      0.000057       0.000444       0.000000
      0.000049       0.000225       0.000000
     -0.000052       0.000136       0.000000
      0.000057       0.000444       0.000000
      0.000315       0.000663       0.000000
      0.000255       0.000365       0.000000
      0.000049       0.000225       0.000000
     -0.000052       0.000136       0.000000
      0.000049       0.000225       0.000000
      0.000000       0.000000       0.000000
      0.000000       0.000000       0.000000
      0.000049       0.000225       0.000000
      0.000255       0.000365       0.000000
      0.000000       0.000000       0.000000
      0.000000       0.000000       0.000000
     -0.000963       0.000739       0.000000
     -0.001301       0.001240       0.000000
     -0.001063       0.001500       0.000000
     -0.000605       0.000964       0.000000
     -0.001301       0.001240       0.000000
     -0.001605       0.001972       0.000000
     -0.001634       0.002192       0.000000
     -0.001063       0.001500       0.000000
     -0.000605       0.000964       0.000000
     -0.001063       0.001500       0.000000
     -0.000920       0.001542       0.000000