# vtk DataFile Version 2.0
time_10.vtk
ASCII
DATASET UNSTRUCTURED_GRID
POINTS  3672 float
      0.458579       0.641421       0.000000
      0.497369       0.671659       0.000000
      0.438243       0.730363       0.000000
      0.382149       0.701184       0.000000
      0.497369       0.671659       0.000000
      0.545805       0.692517       0.000000
      0.506084       0.750000       0.000000
      0.438243       0.730363       0.000000
      0.382149       0.701184       0.000000
      0.438243       0.730363       0.000000
      0.380813       0.787383       0.000000
      0.305719       0.760948       0.000000
      0.438243       0.730363       0.000000
      0.506084       0.750000       0.000000
      0.468251       0.804752       0.000000
      0.380813       0.787383       0.000000
      0.545805       0.692517       0.000000
      0.600000       0.700000       0.000000
      0.581017       0.756950       0.000000
      0.506084       0.750000       0.000000
      0.600000       0.700000       0.000000
      0.654195       0.692517       0.000000
      0.656527       0.750000       0.000000
      0.581017       0.756950       0.000000
      0.506084       0.750000       0.000000
      0.581017       0.756950       0.000000
      0.563060       0.810819       0.000000
      0.468251       0.804752       0.000000
      0.581017       0.756950       0.000000
      0.656527       0.750000       0.000000
      0.658747       0.804752       0.000000
      0.563060       0.810819       0.000000
      0.654195       0.692517       0.000000
      0.702631       0.671659       0.000000
      0.725999       0.730363       0.000000
      0.656527       0.750000       0.000000
      0.702631       0.671659       0.000000
      0.741421       0.641421       0.000000
      0.784518       0.701184       0.000000
      0.725999       0.730363       0.000000
      0.656527       0.750000       0.000000
      0.725999       0.730363       0.000000
      0.748697       0.787383       0.000000
      0.658747       0.804752       0.000000
      0.725999       0.730363       0.000000
      0.784518       0.701184       0.000000
      0.827614       0.760948       0.000000
      0.748697       0.787383       0.000000
      0.305719       0.760948       0.000000
      0.380813       0.787383       0.000000
      0.325006       0.842791       0.000000
      0.229289       0.820711       0.000000
      0.380813       0.787383       0.000000
      0.468251       0.804752       0.000000
      0.432173       0.856962       0.000000
      0.325006       0.842791       0.000000
      0.229289       0.820711       0.000000
      0.325006       0.842791       0.000000
      0.270755       0.896655       0.000000
      0.152860       0.880474       0.000000
      0.325006       0.842791       0.000000
      0.432173       0.856962       0.000000
      0.397732       0.906804       0.000000
      0.270755       0.896655       0.000000
      0.468251       0.804752       0.000000
      0.563060       0.810819       0.000000
      0.546050       0.861851       0.000000
      0.432173       0.856962       0.000000
      0.563060       0.810819       0.000000
      0.658747       0.804752       0.000000
      0.660865       0.856962       0.000000
      0.546050       0.861851       0.000000
      0.432173       0.856962       0.000000
      0.546050       0.861851       0.000000
      0.529912       0.910264       0.000000
      0.397732       0.906804       0.000000
      0.546050       0.861851       0.000000
      0.660865       0.856962       0.000000
      0.662887       0.906804       0.000000
      0.529912       0.910264       0.000000
      0.658747       0.804752       0.000000
      0.748697       0.787383       0.000000
      0.770753       0.842791       0.000000
      0.660865       0.856962       0.000000
      0.748697       0.787383       0.000000
      0.827614       0.760948       0.000000
      0.870711       0.820711       0.000000
      0.770753       0.842791       0.000000
      0.660865       0.856962       0.000000
      0.770753       0.842791       0.000000
      0.792195       0.896655       0.000000
      0.662887       0.906804       0.000000
      0.770753       0.842791       0.000000
      0.870711       0.820711       0.000000
      0.913807       0.880474       0.000000
      0.792195       0.896655       0.000000
      0.152860       0.880474       0.000000
      0.270755       0.896655       0.000000
      0.217995       0.949038       0.000000
      0.076430       0.940237       0.000000
      0.270755       0.896655       0.000000
      0.397732       0.906804       0.000000
      0.364819       0.954435       0.000000
      0.217995       0.949038       0.000000
      0.076430       0.940237       0.000000
      0.217995       0.949038       0.000000
      0.166667       1.000000       0.000000
      0.000000       1.000000       0.000000
      0.217995       0.949038       0.000000
      0.364819       0.954435       0.000000
      0.333333       1.000000       0.000000
      0.166667       1.000000       0.000000
      0.397732       0.906804       0.000000
      0.529912       0.910264       0.000000
      0.514582       0.956255       0.000000
      0.364819       0.954435       0.000000
      0.529912       0.910264       0.000000
      0.662887       0.906804       0.000000
      0.664819       0.954435       0.000000
      0.514582       0.956255       0.000000
      0.364819       0.954435       0.000000
      0.514582       0.956255       0.000000
      0.500000       1.000000       0.000000
      0.333333       1.000000       0.000000
      0.514582       0.956255       0.000000
      0.664819       0.954435       0.000000
      0.666667       1.000000       0.000000
      0.500000       1.000000       0.000000
      0.662887       0.906804       0.000000
      0.792195       0.896655       0.000000
      0.813047       0.949038       0.000000
      0.664819       0.954435       0.000000
      0.792195       0.896655       0.000000
      0.913807       0.880474       0.000000
      0.956904       0.940237       0.000000
      0.813047       0.949038       0.000000
      0.664819       0.954435       0.000000
      0.813047       0.949038       0.000000
      0.833333       1.000000       0.000000
      0.666667       1.000000       0.000000
      0.813047       0.949038       0.000000
      0.956904       0.940237       0.000000
      1.000000       1.000000       0.000000
      0.833333       1.000000       0.000000
      0.458579       0.358579       0.000000
      0.428341       0.397369       0.000000
      0.351758       0.356122       0.000000
      0.382149       0.298816       0.000000
      0.382149       0.298816       0.000000
      0.351758       0.356122       0.000000
      0.277372       0.316058       0.000000
      0.305719       0.239052       0.000000
      0.428341       0.602631       0.000000
      0.458579       0.641421       0.000000
      0.382149       0.701184       0.000000
      0.351758       0.643878       0.000000
      0.351758       0.643878       0.000000
      0.382149       0.701184       0.000000
      0.305719       0.760948       0.000000
      0.277372       0.683942       0.000000
      0.305719       0.239052       0.000000
      0.277372       0.316058       0.000000
      0.205089       0.277126       0.000000
      0.229289       0.179289       0.000000
      0.229289       0.179289       0.000000
      0.205089       0.277126       0.000000
      0.134820       0.239280       0.000000
      0.152860       0.119526       0.000000
      0.205089       0.277126       0.000000
      0.189557       0.385654       0.000000
      0.123505       0.367423       0.000000
      0.134820       0.239280       0.000000
      0.277372       0.683942       0.000000
      0.305719       0.760948       0.000000
      0.229289       0.820711       0.000000
      0.205089       0.722874       0.000000
      0.189557       0.614346       0.000000
      0.205089       0.722874       0.000000
      0.134820       0.760720       0.000000
      0.123505       0.632577       0.000000
      0.205089       0.722874       0.000000
      0.229289       0.820711       0.000000
      0.152860       0.880474       0.000000
      0.134820       0.760720       0.000000
      0.152860       0.119526       0.000000
      0.134820       0.239280       0.000000
      0.066483       0.202474       0.000000
      0.076430       0.059763       0.000000
      0.134820       0.239280       0.000000
      0.123505       0.367423       0.000000
      0.060383       0.350000       0.000000
      0.066483       0.202474       0.000000
      0.076430       0.059763       0.000000
      0.066483       0.202474       0.000000
      0.000000       0.166667       0.000000
      0.000000       0.000000       0.000000
      0.123505       0.632577       0.000000
      0.134820       0.760720       0.000000
      0.066483       0.797526       0.000000
      0.060383       0.650000       0.000000
      0.134820       0.760720       0.000000
      0.152860       0.880474       0.000000
      0.076430       0.940237       0.000000
      0.066483       0.797526       0.000000
      0.066483       0.797526       0.000000
      0.076430       0.940237       0.000000
      0.000000       1.000000       0.000000
      0.000000       0.833333       0.000000
      0.400000       0.500000       0.000000
      0.400119       0.506902       0.000000
      0.390391       0.507240       0.000000
      0.390272       0.500000       0.000000
      0.400119       0.506902       0.000000
      0.400476       0.513791       0.000000
      0.390747       0.514468       0.000000
      0.390391       0.507240       0.000000
      0.390272       0.500000       0.000000
      0.390391       0.507240       0.000000
      0.380731       0.507577       0.000000
      0.380612       0.500000       0.000000
[...]
POINT_DATA  3672
VECTORS U float 
      0.000212       0.006980       0.000000
      0.000201       0.006988       0.000000
      0.000194       0.006979       0.000000
      0.000202       0.006965       0.000000
      0.000201       0.006988       0.000000
      0.000191       0.006993       0.000000
      0.000188       0.006991       0.000000
      0.000194       0.006979       0.000000
      0.000202       0.006965       0.000000
      0.000194       0.006979       0.000000
      0.000190       0.006974       0.000000
      0.000198       0.006958       0.000000
      0.000194       0.006979       0.000000
      0.000188       0.006991       0.000000
      0.000185       0.006988       0.000000
      0.000190       0.006974       0.000000
      0.000191       0.006993       0.000000
      0.000181       0.006994       0.000000
      0.000184       0.006996       0.000000
      0.000188       0.006991       0.000000
      0.000181       0.006994       0.000000
      0.000170       0.006992       0.000000
      0.000179       0.006994       0.000000
      0.000184       0.006996       0.000000
      0.000188       0.006991       0.000000
      0.000184       0.006996       0.000000
      0.000185       0.006995       0.000000
      0.000185       0.006988       0.000000
      0.000184       0.006996       0.000000
      0.000179       0.006994       0.000000
      0.000185       0.006993       0.000000
      0.000185       0.006995       0.000000
      0.000170       0.006992       0.000000
      0.000154       0.006986       0.000000
      0.000171       0.006981       0.000000
      0.000179       0.006994       0.000000
      0.000154       0.006986       0.000000
      0.000135       0.006975       0.000000
      0.000159       0.006961       0.000000
      0.000171       0.006981       0.000000
      0.000179       0.006994       0.000000
      0.000171       0.006981       0.000000
      0.000182       0.006979       0.000000
      0.000185       0.006993       0.000000
      0.000171       0.006981       0.000000
      0.000159       0.006961       0.000000
      0.000172       0.006954       0.000000
      0.000182       0.006979       0.000000
      0.000198       0.006958       0.000000
      0.000190       0.006974       0.000000
      0.000188       0.006973       0.000000
      0.000197       0.006957       0.000000
      0.000190       0.006974       0.000000
      0.000185       0.006988       0.000000
      0.000184       0.006986       0.000000
      0.000188       0.006973       0.000000
      0.000197       0.006957       0.000000
      0.000188       0.006973       0.000000
      0.000188       0.006975       0.000000
      0.000199       0.006962       0.000000
      0.000188       0.006973       0.000000
      0.000184       0.006986       0.000000
      0.000182       0.006986       0.000000
      0.000188       0.006975       0.000000
      0.000185       0.006988       0.000000
      0.000185       0.006995       0.000000
      0.000185       0.006994       0.000000
      0.000184       0.006986       0.000000
      0.000185       0.006995       0.000000
      0.000185       0.006993       0.000000
      0.000188       0.006993       0.000000
      0.000185       0.006994       0.000000
      0.000184       0.006986       0.000000
      0.000185       0.006994       0.000000
      0.000185       0.006993       0.000000
      0.000182       0.006986       0.000000
      0.000185       0.006994       0.000000
      0.000188       0.006993       0.000000
      0.000191       0.006992       0.000000
      0.000185       0.006993       0.000000
      0.000185       0.006993       0.000000
      0.000182       0.006979       0.000000
      0.000188       0.006978       0.000000
      0.000188       0.006993       0.000000
      0.000182       0.006979       0.000000
      0.000172       0.006954       0.000000
      0.000180       0.006953       0.000000
      0.000188       0.006978       0.000000
      0.000188       0.006993       0.000000
      0.000188       0.006978       0.000000
      0.000192       0.006980       0.000000
      0.000191       0.006992       0.000000
      0.000188       0.006978       0.000000
      0.000180       0.006953       0.000000
      0.000182       0.006959       0.000000
      0.000192       0.006980       0.000000
      0.000199       0.006962       0.000000
      0.000188       0.006975       0.000000
      0.000189       0.006982       0.000000
      0.000205       0.006973       0.000000
      0.000188       0.006975       0.000000
      0.000182       0.006986       0.000000
      0.000182       0.006988       0.000000
      0.000189       0.006982       0.000000
      0.000205       0.006973       0.000000
      0.000189       0.006982       0.000000
      0.000193       0.006992       0.000000
      0.000214       0.006992       0.000000
      0.000189       0.006982       0.000000
      0.000182       0.006988       0.000000
      0.000182       0.006992       0.000000
      0.000193       0.006992       0.000000
      0.000182       0.006986       0.000000
      0.000185       0.006993       0.000000
      0.000184       0.006992       0.000000
      0.000182       0.006988       0.000000
      0.000185       0.006993       0.000000
      0.000191       0.006992       0.000000
      0.000192       0.006992       0.000000
      0.000184       0.006992       0.000000
      0.000182       0.006988       0.000000
      0.000184       0.006992       0.000000
      0.000183       0.006992       0.000000
      0.000182       0.006992       0.000000
      0.000184       0.006992       0.000000
      0.000192       0.006992       0.000000
      0.000192       0.006992       0.000000
      0.000183       0.006992       0.000000
      0.000191       0.006992       0.000000
      0.000192       0.006980       0.000000
      0.000194       0.006985       0.000000
      0.000192       0.006992       0.000000
      0.000192       0.006980       0.000000
      0.000182       0.006959       0.000000
      0.000181       0.006973       0.000000
      0.000194       0.006985       0.000000
      0.000192       0.006992       0.000000
      0.000194       0.006985       0.000000
      0.000194       0.006992       0.000000
      0.000192       0.006992       0.000000
      0.000194       0.006985       0.000000
      0.000181       0.006973       0.000000
      0.000176       0.006992       0.000000
      0.000194       0.006992       0.000000
      0.000020       0.000012       0.000000
      0.000032       0.000022       0.000000
      0.000025       0.000040       0.000000
      0.000011       0.000026       0.000000
      0.000011       0.000026       0.000000
      0.000025       0.000040       0.000000
      0.000023       0.000051       0.000000
      0.000007       0.000032       0.000000
      0.000225       0.006969       0.000000
      0.000212       0.006980       0.000000
      0.000202       0.006965       0.000000
      0.000218       0.006950       0.000000
      0.000218       0.006950       0.000000
      0.000202       0.006965       0.000000
      0.000198       0.006958       0.000000
      0.000215       0.006939       0.000000
      0.000007       0.000032       0.000000
      0.000023       0.000051       0.000000
      0.000022       0.000058       0.000000
      0.000006       0.000032       0.000000
      0.000006       0.000032       0.000000
      0.000022       0.000058       0.000000
      0.000024       0.000062       0.000000
      0.000007       0.000027       0.000000
      0.000022       0.000058       0.000000
      0.000049       0.000088       0.000000
      0.000053       0.000101       0.000000
      0.000024       0.000062       0.000000
      0.000215       0.006939       0.000000
      0.000198       0.006958       0.000000
      0.000197       0.006957       0.000000
      0.000214       0.006931       0.000000
      0.000242       0.006902       0.000000
      0.000214       0.006931       0.000000
      0.000215       0.006927       0.000000
      0.000246       0.006889       0.000000
      0.000214       0.006931       0.000000
      0.000197       0.006957       0.000000
      0.000199       0.006962       0.000000
      0.000215       0.006927       0.000000
      0.000007       0.000027       0.000000
      0.000024       0.000062       0.000000
      0.000027       0.000062       0.000000
      0.000007       0.000016       0.000000
      0.000024       0.000062       0.000000
      0.000053       0.000101       0.000000
      0.000057       0.000111       0.000000
      0.000027       0.000062       0.000000
      0.000007       0.000016       0.000000
      0.000027       0.000062       0.000000
      0.000031       0.000060       0.000000
      0.000000       0.000000       0.000000
      0.000246       0.006889       0.000000
      0.000215       0.006927       0.000000
      0.000218       0.006927       0.000000
      0.000249       0.006877       0.000000
      0.000215       0.006927       0.000000
      0.000199       0.006962       0.000000
      0.000205       0.006973       0.000000
      0.000218       0.006927       0.000000
      0.000218       0.006927       0.000000
      0.000205       0.006973       0.000000
      0.000214       0.006992       0.000000
      0.000224       0.006931       0.000000
      0.000091       0.006906       0.000000
      0.000235       0.006935       0.000000
      0.000246       0.006941       0.000000
      0.000239       0.006973       0.000000
      0.000235       0.006935       0.000000
      0.000245       0.006942       0.000000
      0.000248       0.006943       0.000000
      0.000246       0.006941       0.000000
      0.000239       0.006973       0.000000
      0.000246       0.006941       0.000000
      0.000250       0.006938       0.000000
      0.000251       0.006975       0.000000
      0.000246       0.006941       0.000000
      0.000248       0.006943       0.000000
      0.000249       0.006941       0.000000
      0.000250       0.006938       0.000000
      0.000039       0.000053       0.000000
     -0.000105       0.000070       0.000000
      0.000041       0.000015       0.000000
      0.000050       0.000048       0.000000
     -0.000105       0.000070       0.000000
      0.000091       0.006906       0.000000
      0.000239       0.006973       0.000000
      0.000041       0.000015       0.000000
      0.000050       0.000048       0.000000
      0.000041       0.000015       0.000000
      0.000052       0.000014       0.000000
      0.000054       0.000051       0.000000
      0.000041       0.000015       0.000000
      0.000239       0.006973       0.000000
      0.000251       0.006975       0.000000
      0.000052       0.000014       0.000000
      0.000240       0.006957       0.000000
      0.000232       0.006963       0.000000
      0.000229       0.006951       0.000000
      0.000239       0.006945       0.000000
      0.000232       0.006963       0.000000
      0.000225       0.006969       0.000000
      0.000220       0.006958       0.000000
      0.000229       0.006951       0.000000
      0.000239       0.006945       0.000000
      0.000229       0.006951       0.000000
      0.000227       0.006942       0.000000
      0.000238       0.006934       0.000000
      0.000229       0.006951       0.000000
      0.000220       0.006958       0.000000
      0.000218       0.006950       0.000000
      0.000227       0.006942       0.000000
      0.000246       0.006949       0.000000
      0.000243       0.006953       0.000000
      0.000243       0.006947       0.000000
      0.000247       0.006944       0.000000
      0.000243       0.006953       0.000000
      0.000240       0.006957       0.000000
      0.000239       0.006950       0.000000
      0.000243       0.006947       0.000000
      0.000247       0.006944       0.000000
      0.000243       0.006947       0.000000
      0.000243       0.006942       0.000000
      0.000248       0.006938       0.000000
      0.000243       0.006947       0.000000
      0.000239       0.006950       0.000000
      0.000239       0.006945       0.000000
      0.000243       0.006942       0.000000
      0.000245       0.006942       0.000000
      0.000246       0.006946       0.000000
      0.000248       0.006945       0.000000
      0.000248       0.006943       0.000000
      0.000246       0.006946       0.000000
      0.000246       0.006949       0.000000
      0.000246       0.006947       0.000000
      0.000248       0.006945       0.000000
      0.000248       0.006943       0.000000
      0.000248       0.006945       0.000000
      0.000248       0.006943       0.000000
      0.000249       0.006941       0.000000
      0.000248       0.006945       0.000000
      0.000246       0.006947       0.000000
      0.000247       0.006944       0.000000
      0.000248       0.006943       0.000000
      0.000032       0.000022       0.000000
      0.000039       0.000028       0.000000
      0.000036       0.000039       0.000000
      0.000028       0.000033       0.000000
      0.000039       0.000028       0.000000
      0.000045       0.000035       0.000000
      0.000045       0.000046       0.000000
      0.000036       0.000039       0.000000
      0.000028       0.000033       0.000000
      0.000036       0.000039       0.000000
      0.000034       0.000048       0.000000
      0.000025       0.000040       0.000000
      0.000036       0.000039       0.000000
      0.000045       0.000046       0.000000
      0.000044       0.000056       0.000000
      0.000034       0.000048       0.000000
      0.000045       0.000035       0.000000
      0.000048       0.000038       0.000000
      0.000049       0.000043       0.000000
      0.000045       0.000040       0.000000
      0.000048       0.000038       0.000000
      0.000050       0.000043       0.000000
      0.000052       0.000047       0.000000
      0.000049       0.000043       0.000000
      0.000045       0.000040       0.000000
      0.000049       0.000043       0.000000
      0.000049       0.000049       0.000000
      0.000045       0.000046       0.000000
      0.000049       0.000043       0.000000
      0.000052       0.000047       0.000000
      0.000053       0.000053       0.000000
      0.000049       0.000049       0.000000
      0.000050       0.000043       0.000000
      0.000049       0.000046       0.000000
      0.000052       0.000046       0.000000
      0.000051       0.000044       0.000000
      0.000049       0.000046       0.000000
      0.000039       0.000053       0.000000
      0.000050       0.000048       0.000000
      0.000052       0.000046       0.000000
      0.000051       0.000044       0.000000
      0.000052       0.000046       0.000000
      0.000053       0.000049       0.000000
      0.000052       0.000047       0.000000
      0.000052       0.000046       0.000000
      0.000050       0.000048       0.000000
      0.000054       0.000051       0.000000
      0.000053       0.000049       0.000000
      0.000251       0.006975       0.000000
      0.000250       0.006938       0.000000
      0.000252       0.006935       0.000000
      0.000255       0.006973       0.000000
      0.000250       0.006938       0.000000
      0.000249       0.006941       0.000000
      0.000251       0.006937       0.000000
      0.000252       0.006935       0.000000
      0.000255       0.006973       0.000000
      0.000252       0.006935       0.000000
      0.000254       0.006932       0.000000
      0.000257       0.006970       0.000000
      0.000252       0.006935       0.000000
      0.000251       0.006937       0.000000
      0.000252       0.006934       0.000000
      0.000254       0.006932       0.000000
      0.000054       0.000051       0.000000
      0.000052       0.000014       0.000000
      0.000056       0.000016       0.000000
      0.000056       0.000054       0.000000
      0.000052       0.000014       0.000000
      0.000251       0.006975       0.000000
      0.000255       0.006973       0.000000
      0.000056       0.000016       0.000000
      0.000056       0.000054       0.000000
      0.000056       0.000016       0.000000
      0.000058       0.000019       0.000000
      0.000058       0.000057       0.000000
      0.000056       0.000016       0.000000
      0.000255       0.006973       0.000000
      0.000257       0.006970       0.000000
      0.000058       0.000019       0.000000
      0.000249       0.006941       0.000000
      0.000248       0.006943       0.000000
      0.000249       0.006940       0.000000
      0.000251       0.006937       0.000000
      0.000248       0.006943       0.000000
      0.000247       0.006944       0.000000
      0.000247       0.006941       0.000000
      0.000249       0.006940       0.000000
      0.000251       0.006937       0.000000
      0.000249       0.006940       0.000000
      0.000250       0.006936       0.000000
      0.000252       0.006934       0.000000
      0.000249       0.006940       0.000000
      0.000247       0.006941       0.000000
      0.000248       0.006938       0.000000
      0.000250       0.006936       0.000000
      0.000052       0.000047       0.000000
      0.000053       0.000049       0.000000
      0.000054       0.000052       0.000000
      0.000053       0.000050       0.000000
      0.000053       0.000049       0.000000
      0.000054       0.000051       0.000000
      0.000056       0.000054       0.000000
      0.000054       0.000052       0.000000
      0.000053       0.000050       0.000000
      0.000054       0.000052       0.000000
      0.000055       0.000055       0.000000
      0.000053       0.000053       0.000000
      0.000054       0.000052       0.000000
      0.000056       0.000054       0.000000
      0.000058       0.000057       0.000000
      0.000055       0.000055       0.000000
      0.000257       0.006970       0.000000
      0.000254       0.006932       0.000000
      0.000255       0.006928       0.000000
      0.000258       0.006967       0.000000
      0.000254       0.006932       0.000000
      0.000252       0.006934       0.000000
      0.000253       0.006931       0.000000
      0.000255       0.006928       0.000000
      0.000258       0.006967       0.000000
      0.000255       0.006928       0.000000
      0.000256       0.006925       0.000000
      0.000259       0.006963       0.000000
      0.000255       0.006928       0.000000
      0.000253       0.006931       0.000000
      0.000254       0.006927       0.000000
      0.000256       0.006925       0.000000
      0.000058       0.000057       0.000000
      0.000058       0.000019       0.000000
      0.000059       0.000022       0.000000
      0.000059       0.000061       0.000000
      0.000058       0.000019       0.000000
      0.000257       0.006970       0.000000
      0.000258       0.006967       0.000000
      0.000059       0.000022       0.000000
      0.000059       0.000061       0.000000
      0.000059       0.000022       0.000000
      0.000060       0.000025       0.000000
      0.000059       0.000064       0.000000
      0.000059       0.000022       0.000000
      0.000258       0.006967       0.000000
      0.000259       0.006963       0.000000
      0.000060       0.000025       0.000000
      0.000248       0.006938       0.000000
      0.000243       0.006942       0.000000
      0.000243       0.006936       0.000000
      0.000248       0.006932       0.000000
      0.000243       0.006942       0.000000
      0.000239       0.006945       0.000000
      0.000238       0.006939       0.000000
      0.000243       0.006936       0.000000
      0.000248       0.006932       0.000000
      0.000243       0.006936       0.000000
      0.000243       0.006930       0.000000