# vtk DataFile Version 2.0
time_10.vtk
ASCII
DATASET UNSTRUCTURED_GRID
POINTS   576 float
      0.458579       0.641421       0.000000
      0.497369       0.671659       0.000000
      0.438243       0.730363       0.000000
      0.382149       0.701184       0.000000
      0.497369       0.671659       0.000000
      0.545805       0.692517       0.000000
      0.506084       0.750000       0.000000
      0.438243       0.730363       0.000000
      0.382149       0.701184       0.000000
      0.438243       0.730363       0.000000
      0.380813       0.787383       0.000000
      0.305719       0.760948       0.000000
      0.438243       0.730363       0.000000
      0.506084       0.750000       0.000000
      0.468251       0.804752       0.000000
      0.380813       0.787383       0.000000
      0.545805       0.692517       0.000000
      0.600000       0.700000       0.000000
      0.581017       0.756950       0.000000
      0.506084       0.750000       0.000000
      0.600000       0.700000       0.000000
      0.654195       0.692517       0.000000
      0.656527       0.750000       0.000000
      0.581017       0.756950       0.000000
      0.506084       0.750000       0.000000
      0.581017       0.756950       0.000000
      0.563060       0.810819       0.000000
      0.468251       0.804752       0.000000
      0.581017       0.756950       0.000000
      0.656527       0.750000       0.000000
      0.658747       0.804752       0.000000
      0.563060       0.810819       0.000000
      0.654195       0.692517       0.000000
      0.702631       0.671659       0.000000
      0.725999       0.730363       0.000000
      0.656527       0.750000       0.000000
      0.702631       0.671659       0.000000
      0.741421       0.641421       0.000000
      0.784518       0.701184       0.000000
      0.725999       0.730363       0.000000
      0.656527       0.750000       0.000000
      0.725999       0.730363       0.000000
      0.748697       0.787383       0.000000
      0.658747       0.804752       0.000000
      0.725999       0.730363       0.000000
      0.784518       0.701184       0.000000
      0.827614       0.760948       0.000000
      0.748697       0.787383       0.000000
      0.305719       0.760948       0.000000
      0.380813       0.787383       0.000000
      0.325006       0.842791       0.000000
      0.229289       0.820711       0.000000
      0.380813       0.787383       0.000000
      0.468251       0.804752       0.000000
      0.432173       0.856962       0.000000
      0.325006       0.842791       0.000000
      0.229289       0.820711       0.000000
      0.325006       0.842791       0.000000
      0.270755       0.896655       0.000000
      0.152860       0.880474       0.000000
      0.325006       0.842791       0.000000
      0.432173       0.856962       0.000000
      0.397732       0.906804       0.000000
      0.270755       0.896655       0.000000
      0.468251       0.804752       0.000000
      0.563060       0.810819       0.000000
      0.546050       0.861851       0.000000
      0.432173       0.856962       0.000000
      0.563060       0.810819       0.000000
      0.658747       0.804752       0.000000
      0.660865       0.856962       0.000000
      0.546050       0.861851       0.000000
      0.432173       0.856962       0.000000
      0.546050       0.861851       0.000000
      0.529912       0.910264       0.000000
      0.397732       0.906804       0.000000
      0.546050       0.861851       0.000000
      0.660865       0.856962       0.000000
      0.662887       0.906804       0.000000
      0.529912       0.910264       0.000000
      0.658747       0.804752       0.000000
      0.748697       0.787383       0.000000
      0.770753       0.842791       0.000000
      0.660865       0.856962       0.000000
      0.748697       0.787383       0.000000
      0.827614       0.760948       0.000000
      0.870711       0.820711       0.000000
      0.770753       0.842791       0.000000
      0.660865       0.856962       0.000000
      0.770753       0.842791       0.000000
      0.792195       0.896655       0.000000
      0.662887       0.906804       0.000000
      0.770753       0.842791       0.000000
      0.870711       0.820711       0.000000
      0.913807       0.880474       0.000000
      0.792195       0.896655       0.000000
      0.152860       0.880474       0.000000
      0.270755       0.896655       0.000000
      0.217995       0.949038       0.000000
      0.076430       0.940237       0.000000
      0.270755       0.896655       0.000000
      0.397732       0.906804       0.000000
      0.364819       0.954435       0.000000
      0.217995       0.949038       0.000000
      0.076430       0.940237       0.000000
      0.217995       0.949038       0.000000
      0.166667       1.000000       0.000000
      0.000000       1.000000       0.000000
      0.217995       0.949038       0.000000
      0.364819       0.954435       0.000000
      0.333333       1.000000       0.000000
      0.166667       1.000000       0.000000
      0.397732       0.906804       0.000000
      0.529912       0.910264       0.000000
      0.514582       0.956255       0.000000
      0.364819       0.954435       0.000000
      0.529912       0.910264       0.000000
      0.662887       0.906804       0.000000
      0.664819       0.954435       0.000000
      0.514582       0.956255       0.000000
      0.364819       0.954435       0.000000
      0.514582       0.956255       0.000000
      0.500000       1.000000       0.000000
      0.333333       1.000000       0.000000
      0.514582       0.956255       0.000000
      0.664819       0.954435       0.000000
      0.666667       1.000000       0.000000
      0.500000       1.000000       0.000000
      0.662887       0.906804       0.000000
      0.792195       0.896655       0.000000
      0.813047       0.949038       0.000000
      0.664819       0.954435       0.000000
      0.792195       0.896655       0.000000
      0.913807       0.880474       0.000000
      0.956904       0.940237       0.000000
      0.813047       0.949038       0.000000
      0.664819       0.954435       0.000000
      0.813047       0.949038       0.000000
      0.833333       1.000000       0.000000
      0.666667       1.000000       0.000000
      0.813047       0.949038       0.000000
      0.956904       0.940237       0.000000
      1.000000       1.000000       0.000000
      0.833333       1.000000       0.000000
      0.458579       0.358579       0.000000
      0.428341       0.397369       0.000000
      0.351758       0.356122       0.000000
      0.382149       0.298816       0.000000
      0.428341       0.397369       0.000000
      0.407483       0.445805       0.000000
      0.331305       0.424779       0.000000
      0.351758       0.356122       0.000000
      0.382149       0.298816       0.000000
      0.351758       0.356122       0.000000
      0.277372       0.316058       0.000000
      0.305719       0.239052       0.000000
      0.351758       0.356122       0.000000
      0.331305       0.424779       0.000000
      0.258747       0.404752       0.000000
      0.277372       0.316058       0.000000
      0.407483       0.445805       0.000000
      0.400000       0.500000       0.000000
      0.324066       0.500000       0.000000
      0.331305       0.424779       0.000000
      0.400000       0.500000       0.000000
      0.407483       0.554195       0.000000
      0.331305       0.575221       0.000000
      0.324066       0.500000       0.000000
      0.331305       0.424779       0.000000
      0.324066       0.500000       0.000000
      0.252241       0.500000       0.000000
      0.258747       0.404752       0.000000
      0.324066       0.500000       0.000000
      0.331305       0.575221       0.000000
      0.258747       0.595248       0.000000
      0.252241       0.500000       0.000000
      0.407483       0.554195       0.000000
      0.428341       0.602631       0.000000
      0.351758       0.643878       0.000000
      0.331305       0.575221       0.000000
      0.428341       0.602631       0.000000
      0.458579       0.641421       0.000000
      0.382149       0.701184       0.000000
      0.351758       0.643878       0.000000
      0.331305       0.575221       0.000000
      0.351758       0.643878       0.000000
      0.277372       0.683942       0.000000
      0.258747       0.595248       0.000000
      0.351758       0.643878       0.000000
      0.382149       0.701184       0.000000
      0.305719       0.760948       0.000000
      0.277372       0.683942       0.000000
      0.305719       0.239052       0.000000
      0.277372       0.316058       0.000000
      0.205089       0.277126       0.000000
      0.229289       0.179289       0.000000
      0.277372       0.316058       0.000000
      0.258747       0.404752       0.000000
      0.189557       0.385654       0.000000
      0.205089       0.277126       0.000000
      0.229289       0.179289       0.000000
      0.205089       0.277126       0.000000
      0.134820       0.239280       0.000000
      0.152860       0.119526       0.000000
      0.205089       0.277126       0.000000
      0.189557       0.385654       0.000000
      0.123505       0.367423       0.000000
      0.134820       0.239280       0.000000
      0.258747       0.404752       0.000000
      0.252241       0.500000       0.000000
      0.184198       0.500000       0.000000
      0.189557       0.385654       0.000000
      0.252241       0.500000       0.000000
      0.258747       0.595248       0.000000
      0.189557       0.614346       0.000000
      0.184198       0.500000       0.000000
      0.189557       0.385654       0.000000
      0.184198       0.500000       0.000000
      0.119648       0.500000       0.000000
      0.123505       0.367423       0.000000
[...]
POINT_DATA   576
VECTORS U float 
      0.000376       0.004891       0.000000
      0.000194       0.005243       0.000000
      0.000032       0.004980       0.000000
      0.000249       0.004536       0.000000
      0.000194       0.005243       0.000000
      0.000002       0.005478       0.000000
     -0.000111       0.005376       0.000000
      0.000032       0.004980       0.000000
      0.000249       0.004536       0.000000
      0.000032       0.004980       0.000000
      0.000058       0.004956       0.000000
      0.000316       0.004585       0.000000
      0.000032       0.004980       0.000000
     -0.000111       0.005376       0.000000
     -0.000123       0.005335       0.000000
      0.000058       0.004956       0.000000
      0.000002       0.005478       0.000000
     -0.000198       0.005574       0.000000
     -0.000186       0.005598       0.000000
     -0.000111       0.005376       0.000000
     -0.000198       0.005574       0.000000
     -0.000416       0.005524       0.000000
     -0.000258       0.005560       0.000000
     -0.000186       0.005598       0.000000
     -0.000111       0.005376       0.000000
     -0.000186       0.005598       0.000000
     -0.000185       0.005596       0.000000
     -0.000123       0.005335       0.000000
     -0.000186       0.005598       0.000000
     -0.000258       0.005560       0.000000
     -0.000196       0.005586       0.000000
     -0.000185       0.005596       0.000000
     -0.000416       0.005524       0.000000
     -0.000662       0.005329       0.000000
     -0.000392       0.005265       0.000000
     -0.000258       0.005560       0.000000
     -0.000662       0.005329       0.000000
     -0.000930       0.005004       0.000000
     -0.000626       0.004812       0.000000
     -0.000392       0.005265       0.000000
     -0.000258       0.005560       0.000000
     -0.000392       0.005265       0.000000
     -0.000283       0.005288       0.000000
     -0.000196       0.005586       0.000000
     -0.000392       0.005265       0.000000
     -0.000626       0.004812       0.000000
     -0.000504       0.004842       0.000000
     -0.000283       0.005288       0.000000
      0.000316       0.004585       0.000000
      0.000058       0.004956       0.000000
      0.000120       0.005065       0.000000
      0.000414       0.004785       0.000000
      0.000058       0.004956       0.000000
     -0.000123       0.005335       0.000000
     -0.000103       0.005369       0.000000
      0.000120       0.005065       0.000000
      0.000414       0.004785       0.000000
      0.000120       0.005065       0.000000
      0.000196       0.005251       0.000000
      0.000528       0.005056       0.000000
      0.000120       0.005065       0.000000
     -0.000103       0.005369       0.000000
     -0.000072       0.005461       0.000000
      0.000196       0.005251       0.000000
     -0.000123       0.005335       0.000000
     -0.000185       0.005596       0.000000
     -0.000179       0.005611       0.000000
     -0.000103       0.005369       0.000000
     -0.000185       0.005596       0.000000
     -0.000196       0.005586       0.000000
     -0.000163       0.005621       0.000000
     -0.000179       0.005611       0.000000
     -0.000103       0.005369       0.000000
     -0.000179       0.005611       0.000000
     -0.000172       0.005646       0.000000
     -0.000072       0.005461       0.000000
     -0.000179       0.005611       0.000000
     -0.000163       0.005621       0.000000
     -0.000143       0.005664       0.000000
     -0.000172       0.005646       0.000000
     -0.000196       0.005586       0.000000
     -0.000283       0.005288       0.000000
     -0.000226       0.005358       0.000000
     -0.000163       0.005621       0.000000
     -0.000283       0.005288       0.000000
     -0.000504       0.004842       0.000000
     -0.000438       0.004959       0.000000
     -0.000226       0.005358       0.000000
     -0.000163       0.005621       0.000000
     -0.000226       0.005358       0.000000
     -0.000195       0.005462       0.000000
     -0.000143       0.005664       0.000000
     -0.000226       0.005358       0.000000
     -0.000438       0.004959       0.000000
     -0.000419       0.005147       0.000000
     -0.000195       0.005462       0.000000
      0.000528       0.005056       0.000000
      0.000196       0.005251       0.000000
      0.000289       0.005488       0.000000
      0.000675       0.005377       0.000000
      0.000196       0.005251       0.000000
     -0.000072       0.005461       0.000000
     -0.000034       0.005594       0.000000
      0.000289       0.005488       0.000000
      0.000675       0.005377       0.000000
      0.000289       0.005488       0.000000
      0.000408       0.005762       0.000000
      0.000877       0.005762       0.000000
      0.000289       0.005488       0.000000
     -0.000034       0.005594       0.000000
      0.000017       0.005762       0.000000
      0.000408       0.005762       0.000000
     -0.000072       0.005461       0.000000
     -0.000172       0.005646       0.000000
     -0.000167       0.005698       0.000000
     -0.000034       0.005594       0.000000
     -0.000172       0.005646       0.000000
     -0.000143       0.005664       0.000000
     -0.000132       0.005712       0.000000
     -0.000167       0.005698       0.000000
     -0.000034       0.005594       0.000000
     -0.000167       0.005698       0.000000
     -0.000164       0.005762       0.000000
      0.000017       0.005762       0.000000
     -0.000167       0.005698       0.000000
     -0.000132       0.005712       0.000000
     -0.000129       0.005762       0.000000
     -0.000164       0.005762       0.000000
     -0.000143       0.005664       0.000000
     -0.000195       0.005462       0.000000
     -0.000187       0.005596       0.000000
     -0.000132       0.005712       0.000000
     -0.000195       0.005462       0.000000
     -0.000419       0.005147       0.000000
     -0.000455       0.005414       0.000000
     -0.000187       0.005596       0.000000
     -0.000132       0.005712       0.000000
     -0.000187       0.005596       0.000000
     -0.000200       0.005762       0.000000
     -0.000129       0.005762       0.000000
     -0.000187       0.005596       0.000000
     -0.000455       0.005414       0.000000
     -0.000547       0.005762       0.000000
     -0.000200       0.005762       0.000000
      0.000328       0.000751       0.000000
      0.000499       0.001214       0.000000
      0.000488       0.001590       0.000000
      0.000199       0.001092       0.000000
      0.000499       0.001214       0.000000
      0.000632       0.001879       0.000000
      0.000807       0.002179       0.000000
      0.000488       0.001590       0.000000
      0.000199       0.001092       0.000000
      0.000488       0.001590       0.000000
      0.000556       0.001588       0.000000
      0.000238       0.001042       0.000000
      0.000488       0.001590       0.000000
      0.000807       0.002179       0.000000
      0.000911       0.002213       0.000000
      0.000556       0.001588       0.000000
      0.000632       0.001879       0.000000
      0.000675       0.002801       0.000000
      0.000975       0.002814       0.000000
      0.000807       0.002179       0.000000
      0.000675       0.002801       0.000000
      0.000658       0.003731       0.000000
      0.000840       0.003445       0.000000
      0.000975       0.002814       0.000000
      0.000807       0.002179       0.000000
      0.000975       0.002814       0.000000
      0.001094       0.002823       0.000000
      0.000911       0.002213       0.000000
      0.000975       0.002814       0.000000
      0.000840       0.003445       0.000000
      0.000946       0.003427       0.000000
      0.001094       0.002823       0.000000
      0.000658       0.003731       0.000000
      0.000544       0.004409       0.000000
      0.000539       0.004031       0.000000
      0.000840       0.003445       0.000000
      0.000544       0.004409       0.000000
      0.000376       0.004891       0.000000
      0.000249       0.004536       0.000000
      0.000539       0.004031       0.000000
      0.000840       0.003445       0.000000
      0.000539       0.004031       0.000000
      0.000619       0.004039       0.000000
      0.000946       0.003427       0.000000
      0.000539       0.004031       0.000000
      0.000249       0.004536       0.000000
      0.000316       0.004585       0.000000
      0.000619       0.004039       0.000000
      0.000238       0.001042       0.000000
      0.000556       0.001588       0.000000
      0.000635       0.001480       0.000000
      0.000281       0.000849       0.000000
      0.000556       0.001588       0.000000
      0.000911       0.002213       0.000000
      0.001015       0.002175       0.000000
      0.000635       0.001480       0.000000
      0.000281       0.000849       0.000000
      0.000635       0.001480       0.000000
      0.000706       0.001357       0.000000
      0.000289       0.000603       0.000000
      0.000635       0.001480       0.000000
      0.001015       0.002175       0.000000
      0.001120       0.002132       0.000000
      0.000706       0.001357       0.000000
      0.000911       0.002213       0.000000
      0.001094       0.002823       0.000000
      0.001204       0.002834       0.000000
      0.001015       0.002175       0.000000
      0.001094       0.002823       0.000000
      0.000946       0.003427       0.000000
      0.001053       0.003486       0.000000
      0.001204       0.002834       0.000000
      0.001015       0.002175       0.000000
      0.001204       0.002834       0.000000
      0.001322       0.002847       0.000000
      0.001120       0.002132       0.000000
      0.001204       0.002834       0.000000
      0.001053       0.003486       0.000000
      0.001162       0.003557       0.000000
      0.001322       0.002847       0.000000
      0.000946       0.003427       0.000000
      0.000619       0.004039       0.000000
      0.000716       0.004163       0.000000
      0.001053       0.003486       0.000000
      0.000619       0.004039       0.000000
      0.000316       0.004585       0.000000
      0.000414       0.004785       0.000000
      0.000716       0.004163       0.000000
      0.001053       0.003486       0.000000
      0.000716       0.004163       0.000000
      0.000814       0.004317       0.000000
      0.001162       0.003557       0.000000
      0.000716       0.004163       0.000000
      0.000414       0.004785       0.000000
      0.000528       0.005056       0.000000
      0.000814       0.004317       0.000000
      0.000289       0.000603       0.000000
      0.000706       0.001357       0.000000
      0.000769       0.001265       0.000000
      0.000234       0.000331       0.000000
      0.000706       0.001357       0.000000
      0.001120       0.002132       0.000000
      0.001220       0.002117       0.000000
      0.000769       0.001265       0.000000
      0.000234       0.000331       0.000000
      0.000769       0.001265       0.000000
      0.000823       0.001222       0.000000
      0.000000       0.000000       0.000000
      0.000769       0.001265       0.000000
      0.001220       0.002117       0.000000
      0.001309       0.002149       0.000000
      0.000823       0.001222       0.000000
      0.001120       0.002132       0.000000
      0.001322       0.002847       0.000000
      0.001441       0.002860       0.000000
      0.001220       0.002117       0.000000
      0.001322       0.002847       0.000000
      0.001162       0.003557       0.000000
      0.001269       0.003606       0.000000
      0.001441       0.002860       0.000000
      0.001220       0.002117       0.000000
      0.001441       0.002860       0.000000
      0.001550       0.002870       0.000000
      0.001309       0.002149       0.000000
      0.001441       0.002860       0.000000
      0.001269       0.003606       0.000000
      0.001369       0.003606       0.000000
      0.001550       0.002870       0.000000
      0.001162       0.003557       0.000000
      0.000814       0.004317       0.000000
      0.000914       0.004465       0.000000
      0.001269       0.003606       0.000000
      0.000814       0.004317       0.000000
      0.000528       0.005056       0.000000
      0.000675       0.005377       0.000000
      0.000914       0.004465       0.000000
      0.001269       0.003606       0.000000
      0.000914       0.004465       0.000000
      0.001027       0.004595       0.000000
      0.001369       0.003606       0.000000
      0.000914       0.004465       0.000000
      0.000675       0.005377       0.000000
      0.000877       0.005762       0.000000
      0.001027       0.004595       0.000000
     -0.000873       0.000704       0.000000
     -0.000601       0.000380       0.000000
     -0.000321       0.000449       0.000000
     -0.000555       0.000905       0.000000
     -0.000601       0.000380       0.000000
     -0.000364       0.000187       0.000000
     -0.000202       0.000160       0.000000
     -0.000321       0.000449       0.000000
     -0.000555       0.000905       0.000000
     -0.000321       0.000449       0.000000
     -0.000189       0.000434       0.000000
     -0.000408       0.000883       0.000000
     -0.000321       0.000449       0.000000
     -0.000202       0.000160       0.000000
     -0.000121       0.000143       0.000000
     -0.000189       0.000434       0.000000
     -0.000364       0.000187       0.000000
     -0.000173       0.000134       0.000000
     -0.000154       0.000116       0.000000
     -0.000202       0.000160       0.000000
     -0.000173       0.000134       0.000000
     -0.000008       0.000214       0.000000
     -0.000110       0.000309       0.000000
     -0.000154       0.000116       0.000000
     -0.000202       0.000160       0.000000
     -0.000154       0.000116       0.000000
     -0.000142       0.000124       0.000000
     -0.000121       0.000143       0.000000
     -0.000154       0.000116       0.000000
     -0.000110       0.000309       0.000000
     -0.000125       0.000350       0.000000
     -0.000142       0.000124       0.000000
     -0.000008       0.000214       0.000000
      0.000157       0.000424       0.000000
      0.000002       0.000670       0.000000
     -0.000110       0.000309       0.000000
      0.000157       0.000424       0.000000
      0.000328       0.000751       0.000000
      0.000199       0.001092       0.000000
      0.000002       0.000670       0.000000
     -0.000110       0.000309       0.000000
      0.000002       0.000670       0.000000
      0.000009       0.000690       0.000000
     -0.000125       0.000350       0.000000
      0.000002       0.000670       0.000000
      0.000199       0.001092       0.000000
      0.000238       0.001042       0.000000
      0.000009       0.000690       0.000000
     -0.000408       0.000883       0.000000
     -0.000189       0.000434       0.000000
     -0.000101       0.000369       0.000000
     -0.000308       0.000771       0.000000
     -0.000189       0.000434       0.000000
     -0.000121       0.000143       0.000000
     -0.000067       0.000120       0.000000
     -0.000101       0.000369       0.000000
     -0.000308       0.000771       0.000000
     -0.000101       0.000369       0.000000
     -0.000038       0.000269       0.000000
     -0.000242       0.000589       0.000000
     -0.000101       0.000369       0.000000
     -0.000067       0.000120       0.000000
     -0.000028       0.000088       0.000000
     -0.000038       0.000269       0.000000
     -0.000121       0.000143       0.000000
     -0.000142       0.000124       0.000000
     -0.000124       0.000119       0.000000
     -0.000067       0.000120       0.000000
     -0.000142       0.000124       0.000000
     -0.000125       0.000350       0.000000
     -0.000111       0.000320       0.000000
     -0.000124       0.000119       0.000000
     -0.000067       0.000120       0.000000
     -0.000124       0.000119       0.000000
     -0.000098       0.000095       0.000000
     -0.000028       0.000088       0.000000
     -0.000124       0.000119       0.000000
     -0.000111       0.000320       0.000000
     -0.000084       0.000239       0.000000
     -0.000098       0.000095       0.000000
     -0.000125       0.000350       0.000000
      0.000009       0.000690       0.000000
      0.000037       0.000583       0.000000
     -0.000111       0.000320       0.000000
      0.000009       0.000690       0.000000
      0.000238       0.001042       0.000000
      0.000281       0.000849       0.000000
      0.000037       0.000583       0.000000
     -0.000111       0.000320       0.000000
      0.000037       0.000583       0.000000
      0.000055       0.000409       0.000000
     -0.000084       0.000239       0.000000
      0.000037       0.000583       0.000000
      0.000281       0.000849       0.000000
      0.000289       0.000603       0.000000
      0.000055       0.000409       0.000000
     -0.000242       0.000589       0.000000
     -0.000038       0.000269       0.000000
     -0.000002       0.000142       0.000000
     -0.000186       0.000331       0.000000
     -0.000038       0.000269       0.000000
     -0.000028       0.000088       0.000000
     -0.000004       0.000049       0.000000
     -0.000002       0.000142       0.000000
     -0.000186       0.000331       0.000000
     -0.000002       0.000142       0.000000
      0.000000       0.000000       0.000000
      0.000000       0.000000       0.000000
     -0.000002       0.000142       0.000000
     -0.000004       0.000049       0.000000
      0.000000       0.000000       0.000000
      0.000000       0.000000       0.000000
     -0.000028       0.000088       0.000000
     -0.000098       0.000095       0.000000
     -0.000060       0.000055       0.000000
     -0.000004       0.000049       0.000000
     -0.000098       0.000095       0.000000
     -0.000084       0.000239       0.000000
     -0.000047       0.000127       0.000000
     -0.000060       0.000055       0.000000
     -0.000004       0.000049       0.000000
     -0.000060       0.000055       0.000000
      0.000000       0.000000       0.000000
      0.000000       0.000000       0.000000
     -0.000060       0.000055       0.000000
     -0.000047       0.000127       0.000000
      0.000000       0.000000       0.000000
      0.000000       0.000000       0.000000
     -0.000084       0.000239       0.000000
      0.000055       0.000409       0.000000
      0.000047       0.000207       0.000000
     -0.000047       0.000127       0.000000
      0.000055       0.000409       0.000000
      0.000289       0.000603       0.000000
      0.000234       0.000331       0.000000
      0.000047       0.000207       0.000000
     -0.000047       0.000127       0.000000
      0.000047       0.000207       0.000000
      0.000000       0.000000       0.000000
      0.000000       0.000000       0.000000
      0.000047       0.000207       0.000000
      0.000234       0.000331       0.000000
      0.000000       0.000000       0.000000
      0.000000       0.000000       0.000000
     -0.000873       0.000704       0.000000
     -0.001170       0.001176       0.000000
     -0.000966       0.001402       0.000000
     -0.000555       0.000905       0.000000
     -0.001170       0.001176       0.000000
     -0.001430       0.001863       0.000000
     -0.001468       0.002037       0.000000
     -0.000966       0.001402       0.000000
     -0.000555       0.000905       0.000000
     -0.000966       0.001402       0.000000
     -0.000843       0.001425       0.000000