# vtk DataFile Version 2.0
time_10.vtk
ASCII
DATASET UNSTRUCTURED_GRID
POINTS   576 float
      0.458579       0.641421       0.000000
      0.497369       0.671659       0.000000
      0.438243       0.730363       0.000000
      0.382149       0.701184       0.000000
      0.497369       0.671659       0.000000
      0.545805       0.692517       0.000000
      0.506084       0.750000       0.000000
      0.438243       0.730363       0.000000
      0.382149       0.701184       0.000000
      0.438243       0.730363       0.000000
      0.380813       0.787383       0.000000
      0.305719       0.760948       0.000000
      0.438243       0.730363       0.000000
      0.506084       0.750000       0.000000
      0.468251       0.804752       0.000000
      0.380813       0.787383       0.000000
      0.545805       0.692517       0.000000
      0.600000       0.700000       0.000000
      0.581017       0.756950       0.000000
      0.506084       0.750000       0.000000
      0.600000       0.700000       0.000000
      0.654195       0.692517       0.000000
      0.656527       0.750000       0.000000
      0.581017       0.756950       0.000000
      0.506084       0.750000       0.000000
      0.581017       0.756950       0.000000
      0.563060       0.810819       0.000000
      0.468251       0.804752       0.000000
      0.581017       0.756950       0.000000
      0.656527       0.750000       0.000000
      0.658747       0.804752       0.000000
      0.563060       0.810819       0.000000
      0.654195       0.692517       0.000000
      0.702631       0.671659       0.000000
      0.725999       0.730363       0.000000
      0.656527       0.750000       0.000000
      0.702631       0.671659       0.000000
      0.741421       0.641421       0.000000
      0.784518       0.701184       0.000000
      0.725999       0.730363       0.000000
      0.656527       0.750000       0.000000
      0.725999       0.730363       0.000000
      0.748697       0.787383       0.000000
      0.658747       0.804752       0.000000
      0.725999       0.730363       0.000000
      0.784518       0.701184       0.000000
      0.827614       0.760948       0.000000
      0.748697       0.787383       0.000000
      0.305719       0.760948       0.000000
      0.380813       0.787383       0.000000
      0.325006       0.842791       0.000000
      0.229289       0.820711       0.000000
      0.380813       0.787383       0.000000
      0.468251       0.804752       0.000000
      0.432173       0.856962       0.000000
      0.325006       0.842791       0.000000
      0.229289       0.820711       0.000000
      0.325006       0.842791       0.000000
      0.270755       0.896655       0.000000
      0.152860       0.880474       0.000000
      0.325006       0.842791       0.000000
      0.432173       0.856962       0.000000
      0.397732       0.906804       0.000000
      0.270755       0.896655       0.000000
      0.468251       0.804752       0.000000
      0.563060       0.810819       0.000000
      0.546050       0.861851       0.000000
      0.432173       0.856962       0.000000
      0.563060       0.810819       0.000000
      0.658747       0.804752       0.000000
      0.660865       0.856962       0.000000
      0.546050       0.861851       0.000000
      0.432173       0.856962       0.000000
      0.546050       0.861851       0.000000
      0.529912       0.910264       0.000000
      0.397732       0.906804       0.000000
      0.546050       0.861851       0.000000
      0.660865       0.856962       0.000000
      0.662887       0.906804       0.000000
      0.529912       0.910264       0.000000
      0.658747       0.804752       0.000000
      0.748697       0.787383       0.000000
      0.770753       0.842791       0.000000
      0.660865       0.856962       0.000000
      0.748697       0.787383       0.000000
      0.827614       0.760948       0.000000
      0.870711       0.820711       0.000000
      0.770753       0.842791       0.000000
      0.660865       0.856962       0.000000
      0.770753       0.842791       0.000000
      0.792195       0.896655       0.000000
      0.662887       0.906804       0.000000
      0.770753       0.842791       0.000000
      0.870711       0.820711       0.000000
      0.913807       0.880474       0.000000
      0.792195       0.896655       0.000000
      0.152860       0.880474       0.000000
      0.270755       0.896655       0.000000
      0.217995       0.949038       0.000000
      0.076430       0.940237       0.000000
      0.270755       0.896655       0.000000
      0.397732       0.906804       0.000000
      0.364819       0.954435       0.000000
      0.217995       0.949038       0.000000
      0.076430       0.940237       0.000000
      0.217995       0.949038       0.000000
      0.166667       1.000000       0.000000
      0.000000       1.000000       0.000000
      0.217995       0.949038       0.000000
      0.364819       0.954435       0.000000
      0.333333       1.000000       0.000000
      0.166667       1.000000       0.000000
      0.397732       0.906804       0.000000
      0.529912       0.910264       0.000000
      0.514582       0.956255       0.000000
      0.364819       0.954435       0.000000
      0.529912       0.910264       0.000000
      0.662887       0.906804       0.000000
      0.664819       0.954435       0.000000
      0.514582       0.956255       0.000000
      0.364819       0.954435       0.000000
      0.514582       0.956255       0.000000
      0.500000       1.000000       0.000000
      0.333333       1.000000       0.000000
      0.514582       0.956255       0.000000
      0.664819       0.954435       0.000000
      0.666667       1.000000       0.000000
      0.500000       1.000000       0.000000
      0.662887       0.906804       0.000000
      0.792195       0.896655       0.000000
      0.813047       0.949038       0.000000
      0.664819       0.954435       0.000000
      0.792195       0.896655       0.000000
      0.913807       0.880474       0.000000
      0.956904       0.940237       0.000000
      0.813047       0.949038       0.000000
      0.664819       0.954435       0.000000
      0.813047       0.949038       0.000000
      0.833333       1.000000       0.000000
      0.666667       1.000000       0.000000
      0.813047       0.949038       0.000000
      0.956904       0.940237       0.000000
      1.000000       1.000000       0.000000
      0.833333       1.000000       0.000000
      0.458579       0.358579       0.000000
      0.428341       0.397369       0.000000
      0.351758       0.356122       0.000000
      0.382149       0.298816       0.000000
      0.428341       0.397369       0.000000
      0.407483       0.445805       0.000000
      0.331305       0.424779       0.000000
      0.351758       0.356122       0.000000
      0.382149       0.298816       0.000000
      0.351758       0.356122       0.000000
      0.277372       0.316058       0.000000
      0.305719       0.239052       0.000000
      0.351758       0.356122       0.000000
      0.331305       0.424779       0.000000
      0.258747       0.404752       0.000000
      0.277372       0.316058       0.000000
      0.407483       0.445805       0.000000
      0.400000       0.500000       0.000000
      0.324066       0.500000       0.000000
      0.331305       0.424779       0.000000
      0.400000       0.500000       0.000000
      0.407483       0.554195       0.000000
      0.331305       0.575221       0.000000
      0.324066       0.500000       0.000000
      0.331305       0.424779       0.000000
      0.324066       0.500000       0.000000
      0.252241       0.500000       0.000000
      0.258747       0.404752       0.000000
      0.324066       0.500000       0.000000
      0.331305       0.575221       0.000000
      0.258747       0.595248       0.000000
      0.252241       0.500000       0.000000
      0.407483       0.554195       0.000000
      0.428341       0.602631       0.000000
      0.351758       0.643878       0.000000
      0.331305       0.575221       0.000000
      0.428341       0.602631       0.000000
      0.458579       0.641421       0.000000
      0.382149       0.701184       0.000000
      0.351758       0.643878       0.000000
      0.331305       0.575221       0.000000
      0.351758       0.643878       0.000000
      0.277372       0.683942       0.000000
      0.258747       0.595248       0.000000
      0.351758       0.643878       0.000000
      0.382149       0.701184       0.000000
      0.305719       0.760948       0.000000
      0.277372       0.683942       0.000000
      0.305719       0.239052       0.000000
      0.277372       0.316058       0.000000
      0.205089       0.277126       0.000000
      0.229289       0.179289       0.000000
      0.277372       0.316058       0.000000
      0.258747       0.404752       0.000000
      0.189557       0.385654       0.000000
      0.205089       0.277126       0.000000
      0.229289       0.179289       0.000000
      0.205089       0.277126       0.000000
      0.134820       0.239280       0.000000
      0.152860       0.119526       0.000000
      0.205089       0.277126       0.000000
      0.189557       0.385654       0.000000
      0.123505       0.367423       0.000000
      0.134820       0.239280       0.000000
      0.258747       0.404752       0.000000
      0.252241       0.500000       0.000000
      0.184198       0.500000       0.000000
      0.189557       0.385654       0.000000
      0.252241       0.500000       0.000000
      0.258747       0.595248       0.000000
      0.189557       0.614346       0.000000
      0.184198       0.500000       0.000000
      0.189557       0.385654       0.000000
      0.184198       0.500000       0.000000
      0.119648       0.500000       0.000000
      0.123505       0.367423       0.000000
[...]
POINT_DATA   576
VECTORS U float 
      0.000398       0.005164       0.000000
      0.000205       0.005529       0.000000
      0.000034       0.005253       0.000000
      0.000261       0.004789       0.000000
      0.000205       0.005529       0.000000
      0.000003       0.005772       0.000000
     -0.000115       0.005666       0.000000
      0.000034       0.005253       0.000000
      0.000261       0.004789       0.000000
      0.000034       0.005253       0.000000
      0.000059       0.005226       0.000000
      0.000329       0.004835       0.000000
      0.000034       0.005253       0.000000
     -0.000115       0.005666       0.000000
     -0.000129       0.005622       0.000000
      0.000059       0.005226       0.000000
      0.000003       0.005772       0.000000
     -0.000206       0.005872       0.000000
     -0.000194       0.005897       0.000000
     -0.000115       0.005666       0.000000
     -0.000206       0.005872       0.000000
     -0.000434       0.005820       0.000000
     -0.000269       0.005858       0.000000
     -0.000194       0.005897       0.000000
     -0.000115       0.005666       0.000000
     -0.000194       0.005897       0.000000
     -0.000192       0.005894       0.000000
     -0.000129       0.005622       0.000000
     -0.000194       0.005897       0.000000
     -0.000269       0.005858       0.000000
     -0.000204       0.005884       0.000000
     -0.000192       0.005894       0.000000
     -0.000434       0.005820       0.000000
     -0.000692       0.005619       0.000000
     -0.000409       0.005552       0.000000
     -0.000269       0.005858       0.000000
     -0.000692       0.005619       0.000000
     -0.000975       0.005283       0.000000
     -0.000654       0.005080       0.000000
     -0.000409       0.005552       0.000000
     -0.000269       0.005858       0.000000
     -0.000409       0.005552       0.000000
     -0.000294       0.005574       0.000000
     -0.000204       0.005884       0.000000
     -0.000409       0.005552       0.000000
     -0.000654       0.005080       0.000000
     -0.000523       0.005107       0.000000
     -0.000294       0.005574       0.000000
      0.000329       0.004835       0.000000
      0.000059       0.005226       0.000000
      0.000122       0.005337       0.000000
      0.000430       0.005039       0.000000
      0.000059       0.005226       0.000000
     -0.000129       0.005622       0.000000
     -0.000109       0.005657       0.000000
      0.000122       0.005337       0.000000
      0.000430       0.005039       0.000000
      0.000122       0.005337       0.000000
      0.000200       0.005529       0.000000
      0.000547       0.005321       0.000000
      0.000122       0.005337       0.000000
     -0.000109       0.005657       0.000000
     -0.000078       0.005750       0.000000
      0.000200       0.005529       0.000000
     -0.000129       0.005622       0.000000
     -0.000192       0.005894       0.000000
     -0.000187       0.005909       0.000000
     -0.000109       0.005657       0.000000
     -0.000192       0.005894       0.000000
     -0.000204       0.005884       0.000000
     -0.000168       0.005918       0.000000
     -0.000187       0.005909       0.000000
     -0.000109       0.005657       0.000000
     -0.000187       0.005909       0.000000
     -0.000180       0.005944       0.000000
     -0.000078       0.005750       0.000000
     -0.000187       0.005909       0.000000
     -0.000168       0.005918       0.000000
     -0.000148       0.005962       0.000000
     -0.000180       0.005944       0.000000
     -0.000204       0.005884       0.000000
     -0.000294       0.005574       0.000000
     -0.000232       0.005645       0.000000
     -0.000168       0.005918       0.000000
     -0.000294       0.005574       0.000000
     -0.000523       0.005107       0.000000
     -0.000452       0.005226       0.000000
     -0.000232       0.005645       0.000000
     -0.000168       0.005918       0.000000
     -0.000232       0.005645       0.000000
     -0.000200       0.005751       0.000000
     -0.000148       0.005962       0.000000
     -0.000232       0.005645       0.000000
     -0.000452       0.005226       0.000000
     -0.000431       0.005420       0.000000
     -0.000200       0.005751       0.000000
      0.000547       0.005321       0.000000
      0.000200       0.005529       0.000000
      0.000296       0.005775       0.000000
      0.000701       0.005656       0.000000
      0.000200       0.005529       0.000000
     -0.000078       0.005750       0.000000
     -0.000039       0.005888       0.000000
      0.000296       0.005775       0.000000
      0.000701       0.005656       0.000000
      0.000296       0.005775       0.000000
      0.000420       0.006062       0.000000
      0.000914       0.006062       0.000000
      0.000296       0.005775       0.000000
     -0.000039       0.005888       0.000000
      0.000013       0.006062       0.000000
      0.000420       0.006062       0.000000
     -0.000078       0.005750       0.000000
     -0.000180       0.005944       0.000000
     -0.000176       0.005996       0.000000
     -0.000039       0.005888       0.000000
     -0.000180       0.005944       0.000000
     -0.000148       0.005962       0.000000
     -0.000136       0.006011       0.000000
     -0.000176       0.005996       0.000000
     -0.000039       0.005888       0.000000
     -0.000176       0.005996       0.000000
     -0.000172       0.006062       0.000000
      0.000013       0.006062       0.000000
     -0.000176       0.005996       0.000000
     -0.000136       0.006011       0.000000
     -0.000132       0.006062       0.000000
     -0.000172       0.006062       0.000000
     -0.000148       0.005962       0.000000
     -0.000200       0.005751       0.000000
     -0.000190       0.005890       0.000000
     -0.000136       0.006011       0.000000
     -0.000200       0.005751       0.000000
     -0.000431       0.005420       0.000000
     -0.000469       0.005699       0.000000
     -0.000190       0.005890       0.000000
     -0.000136       0.006011       0.000000
     -0.000190       0.005890       0.000000
     -0.000204       0.006062       0.000000
     -0.000132       0.006062       0.000000
     -0.000190       0.005890       0.000000
     -0.000469       0.005699       0.000000
     -0.000565       0.006062       0.000000
     -0.000204       0.006062       0.000000
      0.000347       0.000775       0.000000
      0.000530       0.001254       0.000000
      0.000514       0.001655       0.000000
      0.000210       0.001133       0.000000
      0.000530       0.001254       0.000000
      0.000672       0.001946       0.000000
      0.000855       0.002279       0.000000
      0.000514       0.001655       0.000000
      0.000210       0.001133       0.000000
      0.000514       0.001655       0.000000
      0.000586       0.001661       0.000000
      0.000250       0.001085       0.000000
      0.000514       0.001655       0.000000
      0.000855       0.002279       0.000000
      0.000965       0.002323       0.000000
      0.000586       0.001661       0.000000
      0.000672       0.001946       0.000000
      0.000710       0.002946       0.000000
      0.001039       0.002961       0.000000
      0.000855       0.002279       0.000000
      0.000710       0.002946       0.000000
      0.000699       0.003957       0.000000
      0.000890       0.003639       0.000000
      0.001039       0.002961       0.000000
      0.000855       0.002279       0.000000
      0.001039       0.002961       0.000000
      0.001163       0.002970       0.000000
      0.000965       0.002323       0.000000
      0.001039       0.002961       0.000000
      0.000890       0.003639       0.000000
      0.001002       0.003610       0.000000
      0.001163       0.002970       0.000000
      0.000699       0.003957       0.000000
      0.000577       0.004664       0.000000
      0.000567       0.004260       0.000000
      0.000890       0.003639       0.000000
      0.000577       0.004664       0.000000
      0.000398       0.005164       0.000000
      0.000261       0.004789       0.000000
      0.000567       0.004260       0.000000
      0.000890       0.003639       0.000000
      0.000567       0.004260       0.000000
      0.000650       0.004259       0.000000
      0.001002       0.003610       0.000000
      0.000567       0.004260       0.000000
      0.000261       0.004789       0.000000
      0.000329       0.004835       0.000000
      0.000650       0.004259       0.000000
      0.000250       0.001085       0.000000
      0.000586       0.001661       0.000000
      0.000668       0.001552       0.000000
      0.000293       0.000887       0.000000
      0.000586       0.001661       0.000000
      0.000965       0.002323       0.000000
      0.001074       0.002286       0.000000
      0.000668       0.001552       0.000000
      0.000293       0.000887       0.000000
      0.000668       0.001552       0.000000
      0.000743       0.001426       0.000000
      0.000302       0.000632       0.000000
      0.000668       0.001552       0.000000
      0.001074       0.002286       0.000000
      0.001185       0.002244       0.000000
      0.000743       0.001426       0.000000
      0.000965       0.002323       0.000000
      0.001163       0.002970       0.000000
      0.001278       0.002981       0.000000
      0.001074       0.002286       0.000000
      0.001163       0.002970       0.000000
      0.001002       0.003610       0.000000
      0.001113       0.003668       0.000000
      0.001278       0.002981       0.000000
      0.001074       0.002286       0.000000
      0.001278       0.002981       0.000000
      0.001401       0.002994       0.000000
      0.001185       0.002244       0.000000
      0.001278       0.002981       0.000000
      0.001113       0.003668       0.000000
      0.001228       0.003740       0.000000
      0.001401       0.002994       0.000000
      0.001002       0.003610       0.000000
      0.000650       0.004259       0.000000
      0.000752       0.004384       0.000000
      0.001113       0.003668       0.000000
      0.000650       0.004259       0.000000
      0.000329       0.004835       0.000000
      0.000430       0.005039       0.000000
      0.000752       0.004384       0.000000
      0.001113       0.003668       0.000000
      0.000752       0.004384       0.000000
      0.000854       0.004542       0.000000
      0.001228       0.003740       0.000000
      0.000752       0.004384       0.000000
      0.000430       0.005039       0.000000
      0.000547       0.005321       0.000000
      0.000854       0.004542       0.000000
      0.000302       0.000632       0.000000
      0.000743       0.001426       0.000000
      0.000809       0.001332       0.000000
      0.000244       0.000347       0.000000
      0.000743       0.001426       0.000000
      0.001185       0.002244       0.000000
      0.001290       0.002229       0.000000
      0.000809       0.001332       0.000000
      0.000244       0.000347       0.000000
      0.000809       0.001332       0.000000
      0.000865       0.001288       0.000000
      0.000000       0.000000       0.000000
      0.000809       0.001332       0.000000
      0.001290       0.002229       0.000000
      0.001382       0.002265       0.000000
      0.000865       0.001288       0.000000
      0.001185       0.002244       0.000000
      0.001401       0.002994       0.000000
      0.001526       0.003007       0.000000
      0.001290       0.002229       0.000000
      0.001401       0.002994       0.000000
      0.001228       0.003740       0.000000
      0.001339       0.003789       0.000000
      0.001526       0.003007       0.000000
      0.001290       0.002229       0.000000
      0.001526       0.003007       0.000000
      0.001639       0.003018       0.000000
      0.001382       0.002265       0.000000
      0.001526       0.003007       0.000000
      0.001339       0.003789       0.000000
      0.001444       0.003786       0.000000
      0.001639       0.003018       0.000000
      0.001228       0.003740       0.000000
      0.000854       0.004542       0.000000
      0.000958       0.004694       0.000000
      0.001339       0.003789       0.000000
      0.000854       0.004542       0.000000
      0.000547       0.005321       0.000000
      0.000701       0.005656       0.000000
      0.000958       0.004694       0.000000
      0.001339       0.003789       0.000000
      0.000958       0.004694       0.000000
      0.001076       0.004828       0.000000
      0.001444       0.003786       0.000000
      0.000958       0.004694       0.000000
      0.000701       0.005656       0.000000
      0.000914       0.006062       0.000000
      0.001076       0.004828       0.000000
     -0.000916       0.000724       0.000000
     -0.000628       0.000389       0.000000
     -0.000335       0.000462       0.000000
     -0.000579       0.000936       0.000000
     -0.000628       0.000389       0.000000
     -0.000380       0.000190       0.000000
     -0.000211       0.000162       0.000000
     -0.000335       0.000462       0.000000
     -0.000579       0.000936       0.000000
     -0.000335       0.000462       0.000000
     -0.000196       0.000447       0.000000
     -0.000423       0.000916       0.000000
     -0.000335       0.000462       0.000000
     -0.000211       0.000162       0.000000
     -0.000126       0.000146       0.000000
     -0.000196       0.000447       0.000000
     -0.000380       0.000190       0.000000
     -0.000180       0.000136       0.000000
     -0.000160       0.000117       0.000000
     -0.000211       0.000162       0.000000
     -0.000180       0.000136       0.000000
     -0.000006       0.000219       0.000000
     -0.000113       0.000317       0.000000
     -0.000160       0.000117       0.000000
     -0.000211       0.000162       0.000000
     -0.000160       0.000117       0.000000
     -0.000147       0.000126       0.000000
     -0.000126       0.000146       0.000000
     -0.000160       0.000117       0.000000
     -0.000113       0.000317       0.000000
     -0.000130       0.000361       0.000000
     -0.000147       0.000126       0.000000
     -0.000006       0.000219       0.000000
      0.000167       0.000436       0.000000
      0.000004       0.000693       0.000000
     -0.000113       0.000317       0.000000
      0.000167       0.000436       0.000000
      0.000347       0.000775       0.000000
      0.000210       0.001133       0.000000
      0.000004       0.000693       0.000000
     -0.000113       0.000317       0.000000
      0.000004       0.000693       0.000000
      0.000009       0.000715       0.000000
     -0.000130       0.000361       0.000000
      0.000004       0.000693       0.000000
      0.000210       0.001133       0.000000
      0.000250       0.001085       0.000000
      0.000009       0.000715       0.000000
     -0.000423       0.000916       0.000000
     -0.000196       0.000447       0.000000
     -0.000103       0.000381       0.000000
     -0.000318       0.000803       0.000000
     -0.000196       0.000447       0.000000
     -0.000126       0.000146       0.000000
     -0.000069       0.000122       0.000000
     -0.000103       0.000381       0.000000
     -0.000318       0.000803       0.000000
     -0.000103       0.000381       0.000000
     -0.000038       0.000278       0.000000
     -0.000250       0.000614       0.000000
     -0.000103       0.000381       0.000000
     -0.000069       0.000122       0.000000
     -0.000028       0.000090       0.000000
     -0.000038       0.000278       0.000000
     -0.000126       0.000146       0.000000
     -0.000147       0.000126       0.000000
     -0.000128       0.000121       0.000000
     -0.000069       0.000122       0.000000
     -0.000147       0.000126       0.000000
     -0.000130       0.000361       0.000000
     -0.000115       0.000330       0.000000
     -0.000128       0.000121       0.000000
     -0.000069       0.000122       0.000000
     -0.000128       0.000121       0.000000
     -0.000102       0.000098       0.000000
     -0.000028       0.000090       0.000000
     -0.000128       0.000121       0.000000
     -0.000115       0.000330       0.000000
     -0.000088       0.000248       0.000000
     -0.000102       0.000098       0.000000
     -0.000130       0.000361       0.000000
      0.000009       0.000715       0.000000
      0.000038       0.000606       0.000000
     -0.000115       0.000330       0.000000
      0.000009       0.000715       0.000000
      0.000250       0.001085       0.000000
      0.000293       0.000887       0.000000
      0.000038       0.000606       0.000000
     -0.000115       0.000330       0.000000
      0.000038       0.000606       0.000000
      0.000056       0.000426       0.000000
     -0.000088       0.000248       0.000000
      0.000038       0.000606       0.000000
      0.000293       0.000887       0.000000
      0.000302       0.000632       0.000000
      0.000056       0.000426       0.000000
     -0.000250       0.000614       0.000000
     -0.000038       0.000278       0.000000
     -0.000001       0.000148       0.000000
     -0.000192       0.000344       0.000000
     -0.000038       0.000278       0.000000
     -0.000028       0.000090       0.000000
     -0.000004       0.000050       0.000000
     -0.000001       0.000148       0.000000
     -0.000192       0.000344       0.000000
     -0.000001       0.000148       0.000000
      0.000000       0.000000       0.000000
      0.000000       0.000000       0.000000
     -0.000001       0.000148       0.000000
     -0.000004       0.000050       0.000000
      0.000000       0.000000       0.000000
      0.000000       0.000000       0.000000
     -0.000028       0.000090       0.000000
     -0.000102       0.000098       0.000000
     -0.000062       0.000057       0.000000
     -0.000004       0.000050       0.000000
     -0.000102       0.000098       0.000000
     -0.000088       0.000248       0.000000
     -0.000049       0.000131       0.000000
     -0.000062       0.000057       0.000000
     -0.000004       0.000050       0.000000
     -0.000062       0.000057       0.000000
      0.000000       0.000000       0.000000
      0.000000       0.000000       0.000000
     -0.000062       0.000057       0.000000
     -0.000049       0.000131       0.000000
      0.000000       0.000000       0.000000
      0.000000       0.000000       0.000000
     -0.000088       0.000248       0.000000
      0.000056       0.000426       0.000000
      0.000049       0.000215       0.000000
     -0.000049       0.000131       0.000000
      0.000056       0.000426       0.000000
      0.000302       0.000632       0.000000
      0.000244       0.000347       0.000000
      0.000049       0.000215       0.000000
     -0.000049       0.000131       0.000000
      0.000049       0.000215       0.000000
      0.000000       0.000000       0.000000
      0.000000       0.000000       0.000000
      0.000049       0.000215       0.000000
      0.000244       0.000347       0.000000
      0.000000       0.000000       0.000000
      0.000000       0.000000       0.000000
     -0.000916       0.000724       0.000000
     -0.001232       0.001211       0.000000
     -0.001013       0.001453       0.000000
     -0.000579       0.000936       0.000000
     -0.001232       0.001211       0.000000
     -0.001510       0.001924       0.000000
     -0.001546       0.002117       0.000000
     -0.001013       0.001453       0.000000
     -0.000579       0.000936       0.000000
     -0.001013       0.001453       0.000000
     -0.000881       0.001483       0.000000